# vtk DataFile Version 2.0
Electric current density generated by TTH
ASCII
DATASET UNSTRUCTURED_GRID
POINTS 19715 double
4.380503e-05 -1.072914e-20 -7.163261e-23
4.377382e-05 1.653223e-06 -7.163261e-23
4.008238e-05 1.767152e-05 -7.163261e-23
-2.184945e-05 -3.796685e-05 -7.163261e-23
4.253363e-05 -8.726914e-06 2.773215e-07
4.221679e-05 -1.060112e-05 2.920818e-07
4.221679e-05 1.060112e-05 2.920818e-07
4.162631e-05 1.216408e-05 -2.537801e-07
4.162631e-05 -1.216408e-05 -2.537801e-07
4.297443e-05 -4.724447e-06 -8.700491e-08
4.297443e-05 4.724447e-06 -8.700491e-08
2.917571e-05 3.261321e-05 1.576078e-07
1.948087e-05 -3.918341e-05 1.576043e-07
-4.370882e-05 1.829789e-06 1.747188e-07
-2.169001e-05 -3.805816e-05 -7.163261e-23
-4.370882e-05 -1.829789e-06 1.747188e-07
3.029657e-05 3.129873e-05 -2.885538e-07
4.353149e-05 -1.485251e-06 -2.890938e-07
1.810996e-05 -3.964454e-05 -2.833274e-07
4.020631e-05 1.682978e-05 2.829457e-07
4.020631e-05 -1.682978e-05 2.829457e-07
-4.344181e-05 5.245012e-06 1.601177e-07
4.333653e-05 2.381264e-06 2.707209e-07
-3.992857e-05 -1.790459e-05 1.572267e-07
-1.195969e-05 -4.209312e-05 1.572249e-07
-2.153019e-05 -3.814880e-05 -7.163261e-23
-4.196540e-05 1.240041e-05 1.572249e-07
-6.582457e-06 4.326125e-05 1.572249e-07
-1.283977e-05 4.183306e-05 1.572249e-07
-3.386629e-05 -2.771172e-05 1.572249e-07
-1.629978e-05 4.061012e-05 1.572249e-07
-1.336513e-05 -4.166819e-05 1.572247e-07
-2.634063e-05 3.494333e-05 1.572247e-07
-2.094619e-05 3.843848e-05 -1.288695e-07
-7.119787e-06 -4.319212e-05 -1.290728e-07
-3.954432e-05 1.873797e-05 1.572247e-07
-2.136999e-05 -3.823877e-05 -7.163261e-23
-4.302816e-05 5.989215e-06 -2.840670e-07
-2.502425e-05 3.588808e-05 -1.690757e-07
-3.915240e-05 -1.957913e-05 -1.290273e-07
-2.876322e-05 -3.297795e-05 1.571656e-07
-3.889346e-05 2.005410e-05 1.571656e-07
-4.171407e-05 1.327405e-05 -1.287708e-07
-1.883579e-05 -3.951552e-05 -1.287708e-07
-2.589888e-05 -3.527203e-05 1.571654e-07
4.280813e-05 -6.573957e-06 2.109251e-07
-1.475553e-05 -4.119638e-05 1.571878e-07
-2.120942e-05 -3.832807e-05 -7.163261e-23
-3.774270e-05 2.214398e-05 1.571878e-07
-4.238240e-05 9.867017e-06 2.924442e-07
4.270482e-06 4.354403e-05 -1.665963e-07
4.270482e-06 -4.354403e-05 -1.665963e-07
4.273637e-05 7.067901e-06 2.173574e-07
3.394160e-05 -2.760951e-05 -1.666379e-07
3.394160e-05 2.760951e-05 -1.666379e-07
-1.365297e-05 4.156832e-05 -1.664404e-07
-9.227130e-06 4.276902e-05 -1.664405e-07
-4.368976e-05 2.349687e-06 -1.666583e-07
-2.104847e-05 -3.841669e-05 -7.163261e-23
-4.368976e-05 -2.349687e-06 -1.666583e-07
4.148585e-05 -1.292837e-05 2.864647e-07
4.148585e-05 1.292837e-05 2.864647e-07
2.616854e-05 3.486197e-05 2.818283e-07
2.376681e-05 -3.654160e-05 2.818283e-07
8.000068e-06 4.301868e-05 -1.617372e-07
-8.186994e-06 4.276327e-05 2.911809e-07
-2.018074e-05 3.858058e-05 2.911809e-07
-4.051447e-05 1.594683e-05 -2.911809e-07
-4.083997e-05 1.509372e-05 2.911809e-07
-2.088715e-05 -3.850464e-05 -7.163261e-23
-1.936726e-05 3.899530e-05 -2.911809e-07
-7.288432e-06 4.292555e-05 -2.911809e-07
4.280590e-05 -6.255407e-06 1.484030e-07
-2.126758e-05 -3.824364e-05 -1.568388e-07
-4.762684e-06 4.349946e-05 1.568388e-07
-4.235803e-05 1.098560e-05 1.568368e-07
-4.215424e-05 -9.730456e-06 -1.520093e-07
2.816915e-05 3.326584e-05 2.819330e-07
2.046001e-05 -3.849032e-05 2.819331e-07
8.037786e-06 4.246728e-05 2.588166e-08
-2.072546e-05 -3.859191e-05 -7.163261e-23
-4.248381e-05 -8.352123e-06 -1.976792e-07
-1.798840e-05 -3.989119e-05 1.567800e-07
-3.872408e-05 2.037977e-05 -1.567771e-07
-3.605172e-05 -2.394032e-05 1.728140e-07
-8.964009e-06 4.233807e-05 -1.728140e-07
-1.334619e-05 4.116728e-05 -1.728141e-07
-1.674864e-05 3.990425e-05 -1.728141e-07
4.332365e-05 -6.139892e-06 -1.612301e-07
-2.969053e-05 3.148553e-05 1.728235e-07
-1.767918e-06 4.324037e-05 -1.726511e-07
-2.056341e-05 -3.867850e-05 -7.163261e-23
-3.604716e-06 -4.312833e-05 -1.756308e-07
4.269811e-05 -6.819319e-06 1.040648e-07
6.723444e-06 4.299303e-05 2.924468e-07
-1.931515e-05 3.872638e-05 -1.718988e-07
-8.065698e-06 4.251767e-05 1.718988e-07
-4.056703e-05 1.507062e-05 1.718988e-07
-4.024208e-05 1.591802e-05 -1.718988e-07
-2.012301e-05 3.831282e-05 1.718988e-07
-7.172313e-06 4.267746e-05 -1.718989e-07
-4.323035e-05 4.276543e-06 -2.836629e-07
-2.040100e-05 -3.876441e-05 -7.163261e-23
-4.323065e-05 -4.276350e-06 -2.837324e-07
-1.803554e-07 4.374791e-05 -1.731196e-07
4.745529e-06 -4.328426e-05 2.908083e-07
4.570784e-06 -4.324200e-05 2.909546e-07
4.745529e-06 4.328426e-05 2.908083e-07
4.570784e-06 4.324200e-05 2.909546e-07
3.210483e-05 -2.933948e-05 2.917150e-07
3.210483e-05 2.933948e-05 2.917150e-07
9.049230e-07 4.375049e-05 -1.561474e-07
-8.930514e-06 -4.283871e-05 1.564266e-07
4.000791e-05 1.783949e-05 -7.163261e-23
-2.023823e-05 -3.884964e-05 -7.163261e-23
-3.303855e-05 2.869431e-05 1.564266e-07
-4.186039e-05 -1.275215e-05 1.564247e-07
-3.710381e-05 2.322217e-05 -1.355775e-07
-1.964538e-05 -3.910202e-05 1.564240e-07
-4.140900e-05 -1.414934e-05 1.564240e-07
-4.017532e-05 1.679012e-05 2.909081e-07
-3.579960e-05 -2.478614e-05 -2.909081e-07
-3.048154e-05 3.109405e-05 -2.909080e-07
-4.303545e-05 -7.894690e-06 1.656537e-07
-4.237064e-05 -1.099893e-05 -1.291482e-07
-2.007510e-05 -3.893418e-05 -7.163261e-23
-2.778519e-05 3.382648e-05 -1.291474e-07
-4.065528e-05 -1.622947e-05 -1.291474e-07
-3.269278e-05 -2.911065e-05 -1.291483e-07
-3.078014e-05 -3.110460e-05 1.563618e-07
-4.366653e-06 4.355339e-05 -1.354984e-07
-2.094617e-05 -3.842097e-05 1.563616e-07
3.213820e-05 2.921245e-05 -2.807897e-07
3.213820e-05 -2.921245e-05 -2.807897e-07
4.340415e-05 9.544502e-07 2.755842e-07
7.504186e-06 -4.264906e-05 -2.052470e-07
-1.991162e-05 -3.901804e-05 -7.163261e-23
-3.984122e-05 -1.704671e-05 2.323129e-07
-2.138799e-05 3.769421e-05 -2.356519e-07
-2.667790e-05 3.414971e-05 2.323130e-07
-1.394495e-05 -4.102987e-05 2.323003e-07
-3.123356e-05 3.003992e-05 -2.324788e-07
-3.947498e-05 1.787844e-05 2.323115e-07
-2.381721e-06 -4.326940e-05 -2.323180e-07
-3.123357e-05 -3.004011e-05 -2.325859e-07
-1.629249e-05 -4.015578e-05 2.324793e-07
-3.773010e-05 2.131624e-05 2.325733e-07
-1.974779e-05 -3.910122e-05 -7.163261e-23
-3.305986e-05 -2.801711e-05 2.323120e-07
-1.199923e-05 4.164051e-05 2.323120e-07
-3.631464e-05 2.364658e-05 -2.323164e-07
-1.112337e-05 -4.188298e-05 2.323120e-07
-2.353747e-05 -3.638587e-05 2.325859e-07
-2.448351e-05 3.575181e-05 -2.298144e-07
-4.166558e-05 -1.191190e-05 2.323202e-07
-3.488806e-05 -2.570480e-05 -2.323128e-07
-3.691914e-05 -2.269121e-05 2.323187e-07
-3.032801e-05 3.087456e-05 -1.753194e-07
-1.958361e-05 -3.918370e-05 -7.163261e-23
-3.555731e-05 -2.467192e-05 -1.753194e-07
-3.991456e-05 1.672884e-05 1.753194e-07
3.740920e-05 2.164839e-05 2.890661e-08
3.566975e-05 -2.440839e-05 2.890644e-08
3.566975e-05 2.440839e-05 2.890644e-08
-1.108950e-06 4.320677e-05 -2.295612e-08
-4.313775e-05 3.229108e-06 1.447679e-07
-4.313775e-05 -3.229108e-06 1.447679e-07
-1.180997e-05 -4.157837e-05 -4.175649e-08
-4.144901e-05 1.224978e-05 -2.599090e-08
-1.941908e-05 -3.926550e-05 -7.163261e-23
-1.268014e-05 4.131938e-05 -2.599088e-08
-6.499685e-06 4.272975e-05 -2.599088e-08
-3.344879e-05 -2.737253e-05 -2.599088e-08
-1.609767e-05 4.011162e-05 -2.599088e-08
-3.943851e-05 -1.768278e-05 -2.598743e-08
-3.014174e-05 3.097754e-05 3.239553e-08
-8.289375e-06 4.241956e-05 -3.238547e-08
-1.320262e-05 -4.115541e-05 -2.598764e-08
-1.988683e-05 3.837508e-05 -3.238547e-08
-2.601833e-05 3.451266e-05 -2.598764e-08
-1.925422e-05 -3.934660e-05 -7.163261e-23
-4.027876e-05 1.567654e-05 3.238547e-08
-4.059865e-05 1.482843e-05 -3.238547e-08
-2.069007e-05 3.794730e-05 2.598764e-08
-3.994119e-05 1.651768e-05 -3.239596e-08
-7.040537e-06 -4.264397e-05 2.598764e-08
-3.905903e-05 1.850593e-05 -2.598764e-08
-1.907772e-05 3.878367e-05 3.238548e-08
-7.397998e-06 4.258406e-05 3.238544e-08
-3.562732e-05 -2.447093e-05 3.239592e-08
-4.352896e-05 1.016919e-06 2.910919e-07
-1.908902e-05 -3.942702e-05 -7.163261e-23
4.369318e-05 -2.219888e-06 -1.714015e-07
5.125427e-06 -4.295418e-05 1.455536e-07
-3.478252e-05 2.655421e-05 1.556905e-07
-3.846139e-05 -2.087274e-05 -1.556905e-07
-2.362374e-05 3.683570e-05 1.556905e-07
-3.443582e-05 2.700230e-05 1.556905e-07
-2.514754e-05 -3.581273e-05 -1.556905e-07
4.267721e-05 -9.619212e-06 -1.737150e-07
4.267721e-05 9.619212e-06 -1.737150e-07
1.886664e-05 -3.922756e-05 2.920142e-07
-1.892348e-05 -3.950674e-05 -7.163261e-23
4.093042e-05 -1.545630e-05 1.686088e-07
4.093042e-05 1.545630e-05 1.686088e-07
-1.995681e-06 4.317585e-05 3.282178e-08
-2.439056e-05 -3.633240e-05 -1.558254e-07
-2.662667e-05 -3.472697e-05 1.558254e-07
-3.846627e-05 2.086391e-05 -1.555760e-07
-3.205183e-05 -2.979299e-05 1.558254e-07
-2.284564e-05 3.732318e-05 1.558246e-07
-4.140663e-05 1.415744e-05 1.558246e-07
-3.443546e-05 -2.700262e-05 1.558246e-07
-1.875760e-05 -3.958576e-05 -7.163261e-23
-4.221485e-05 1.152602e-05 1.558246e-07
-3.801491e-05 -2.167507e-05 -1.558246e-07
-2.409901e-05 3.652643e-05 1.558272e-07
-3.872855e-05 -2.037258e-05 -1.558272e-07
-3.533194e-05 2.581853e-05 1.558272e-07
-2.174543e-05 -3.797489e-05 -1.555802e-07
-3.478275e-05 -2.655377e-05 1.558255e-07
-3.954874e-05 -1.873071e-05 1.558255e-07
-2.707480e-05 -3.437874e-05 1.558255e-07
3.346117e-05 -2.786137e-05 2.909771e-07
3.993273e-05 1.800714e-05 -7.163261e-23
-1.859140e-05 -3.966409e-05 -7.163261e-23
3.352199e-05 -2.769264e-05 2.907655e-07
3.346117e-05 2.786137e-05 2.909771e-07
3.352199e-05 2.769264e-05 2.907655e-07
4.274042e-05 9.391653e-06 1.557461e-07
4.274042e-05 -9.391653e-06 1.557461e-07
4.304019e-05 -6.385227e-06 2.924594e-07
2.124863e-06 -4.332979e-05 -2.616313e-07
-1.090229e-06 -4.320811e-05 3.204229e-08
-2.948541e-05 3.160291e-05 -3.246205e-08
-3.263065e-05 2.834212e-05 -1.975345e-08
-1.842487e-05 -3.974172e-05 -7.163261e-23
-8.818997e-06 -4.231147e-05 -1.975345e-08
-4.134439e-05 -1.259671e-05 -1.985651e-08
-3.662014e-05 2.295647e-05 1.963067e-08
-1.940342e-05 -3.862048e-05 -1.963067e-08
-4.090007e-05 -1.397945e-05 -4.210617e-08
[...]
POINT_DATA 19715
VECTORS 10.000GHz_fone_imag double
6.070258e-05 3.503693e-05 2.925380e-02
5.835645e-05 -1.175115e-04 2.926087e-02
-1.093825e-04 1.136029e-04 2.923177e-02
1.441425e-04 -3.392730e-04 2.920012e-02
-2.805729e-02 5.572424e-03 -1.010860e-02
-2.898301e-02 7.013363e-03 9.035310e-04
-2.898312e-02 -7.012714e-03 9.035311e-04
2.499246e-02 7.300460e-03 -1.527836e-02
2.499307e-02 -7.300478e-03 -1.527881e-02
9.066514e-03 -1.118767e-03 -2.940461e-02
9.065825e-03 1.132038e-03 -2.942741e-02
-1.087168e-02 -1.190643e-02 2.438882e-02
-6.996198e-03 1.455393e-02 2.438912e-02
1.831971e-02 -8.755699e-04 2.328377e-02
2.136196e-04 3.213535e-04 2.940331e-02
1.834196e-02 8.558036e-04 2.324173e-02
2.052070e-02 2.108556e-02 4.655157e-03
2.943845e-02 -1.016045e-03 3.736792e-03
1.212801e-02 -2.602140e-02 7.204816e-03
-2.681849e-02 -1.128440e-02 7.130535e-03
-2.681865e-02 1.128340e-02 7.131171e-03
1.589711e-02 -1.889716e-03 2.458653e-02
-2.765576e-02 -1.606634e-03 -1.199325e-02
1.453151e-02 6.821353e-03 2.442105e-02
4.504642e-03 1.527399e-02 2.425096e-02
3.498349e-05 -3.358970e-05 2.910290e-02
1.550244e-02 -4.274310e-03 2.445146e-02
2.674582e-03 -1.585127e-02 2.449670e-02
4.949934e-03 -1.528914e-02 2.449258e-02
1.259780e-02 9.954453e-03 2.439218e-02
6.237606e-03 -1.482198e-02 2.451880e-02
4.643319e-03 1.535531e-02 2.442060e-02
9.443826e-03 -1.298681e-02 2.440312e-02
-6.369837e-03 1.204968e-02 2.596030e-02
-2.006178e-03 -1.328998e-02 2.599317e-02
1.437583e-02 -7.116083e-03 2.441243e-02
-7.898078e-05 2.863028e-04 2.934463e-02
-2.886558e-02 4.121930e-03 -7.767128e-03
-9.815531e-03 1.428752e-02 2.372489e-02
-1.200695e-02 -6.316009e-03 2.594865e-02
1.073548e-02 1.200537e-02 2.455218e-02
1.434630e-02 -7.143892e-03 2.459449e-02
-1.300140e-02 4.024618e-03 2.594776e-02
-5.987886e-03 -1.228009e-02 2.601407e-02
9.657845e-03 1.283458e-02 2.457669e-02
-2.156425e-02 3.269030e-03 -2.135916e-02
5.487902e-03 1.512155e-02 2.458796e-02
-9.999037e-05 -1.982732e-04 2.922852e-02
1.385904e-02 -8.207319e-03 2.464078e-02
2.917230e-02 -6.661256e-03 -1.303839e-04
1.540687e-03 1.676559e-02 2.404363e-02
1.539158e-03 -1.676787e-02 2.404334e-02
-2.240966e-02 -3.664967e-03 -2.053794e-02
1.315628e-02 -1.051880e-02 2.399512e-02
1.315632e-02 1.051859e-02 2.399523e-02
-5.391888e-03 1.598586e-02 2.392391e-02
-3.677264e-03 1.644141e-02 2.392756e-02
-1.683546e-02 8.138002e-04 2.403617e-02
1.314541e-04 -2.725735e-05 2.923399e-02
-1.685340e-02 -8.458479e-04 2.401948e-02
-2.828537e-02 8.902762e-03 -6.333080e-03
-2.828521e-02 -8.902761e-03 -6.333281e-03
-1.726703e-02 -2.296142e-02 7.493650e-03
-1.561609e-02 2.404538e-02 7.699186e-03
3.167973e-03 1.644805e-02 2.423630e-02
5.500644e-03 -2.940391e-02 2.475659e-03
1.399394e-02 -2.645379e-02 2.479057e-03
-2.781841e-02 1.107432e-02 2.461985e-03
2.801649e-02 -1.049869e-02 2.484231e-03
5.511033e-06 1.408402e-04 2.907195e-02
-1.343595e-02 2.676937e-02 2.407025e-03
-4.898639e-03 2.946338e-02 2.433165e-03
-1.532666e-02 2.084030e-03 -2.658479e-02
-7.969907e-03 -1.414673e-02 2.452169e-02
1.885391e-03 -1.611685e-02 2.441900e-02
1.572103e-02 -4.193026e-03 2.446142e-02
-1.537122e-02 -3.574752e-03 -2.652606e-02
-1.857649e-02 -2.194612e-02 7.483280e-03
-1.349278e-02 2.540780e-02 7.528596e-03
-4.879592e-04 -2.783500e-03 -3.070361e-02
-1.654407e-04 -3.959010e-05 2.922751e-02
-1.965976e-02 -3.636654e-03 -2.258226e-02
6.806622e-03 1.488575e-02 2.455050e-02
-1.428328e-02 7.638769e-03 2.446926e-02
1.473882e-02 9.552013e-03 -2.518245e-02
-3.842015e-03 1.712433e-02 -2.517417e-02
-5.602982e-03 1.663506e-02 -2.513861e-02
-6.958320e-03 1.607769e-02 -2.512474e-02
1.610048e-02 -2.306151e-03 2.414006e-02
1.189959e-02 -1.292149e-02 -2.516171e-02
-9.490128e-04 1.748165e-02 -2.510143e-02
-2.626691e-04 -2.053619e-04 2.933513e-02
-1.669864e-03 -1.772467e-02 -2.483252e-02
-1.023369e-02 1.786748e-03 -2.908016e-02
-4.584823e-03 -2.950584e-02 2.246626e-04
-7.572674e-03 1.562580e-02 -2.522329e-02
3.410286e-03 -1.713136e-02 -2.522695e-02
1.642815e-02 -5.926977e-03 -2.522377e-02
-1.625065e-02 6.226663e-03 -2.523902e-02
7.990211e-03 -1.554177e-02 -2.523655e-02
-3.012971e-03 1.727034e-02 -2.516536e-02
-2.899175e-02 2.993699e-03 -7.516287e-03
-1.746768e-04 -3.832635e-04 2.906429e-02
-2.898012e-02 -3.023319e-03 -7.538428e-03
-6.370869e-05 1.774570e-02 2.363278e-02
-3.345107e-03 2.955542e-02 2.945481e-03
-3.206137e-03 2.956963e-02 -3.528474e-03
-3.344395e-03 -2.960809e-02 2.893814e-03
-3.183421e-03 -2.957734e-02 -3.548235e-03
-2.201829e-02 2.033605e-02 -2.871563e-03
-2.201867e-02 -2.033652e-02 -2.872109e-03
2.737770e-04 1.578506e-02 2.481907e-02
3.080474e-03 1.572071e-02 2.445808e-02
-2.467502e-04 -1.081040e-04 2.914863e-02
1.895209e-04 -3.132525e-04 2.918037e-02
1.196393e-02 -1.065843e-02 2.445762e-02
1.521868e-02 4.878261e-03 2.448885e-02
-1.217002e-02 7.342235e-03 2.559436e-02
7.493475e-03 1.422024e-02 2.441243e-02
1.527559e-02 5.000603e-03 2.452728e-02
2.768544e-02 -1.166139e-02 2.606664e-03
-2.463053e-02 -1.717624e-02 2.628323e-03
-2.109882e-02 2.137202e-02 2.623526e-03
1.630039e-02 3.126374e-03 2.423692e-02
-1.312478e-02 -3.585568e-03 2.592821e-02
1.406930e-04 2.726649e-04 2.909665e-02
-8.471384e-03 1.065093e-02 2.590750e-02
-1.256207e-02 -5.244358e-03 2.592657e-02
-1.028238e-02 -8.883458e-03 2.589562e-02
1.144759e-02 1.120009e-02 2.448467e-02
-1.138272e-03 1.407125e-02 2.573596e-02
7.470681e-03 1.413411e-02 2.454786e-02
2.135293e-02 1.930011e-02 -9.028685e-03
2.135309e-02 -1.930005e-02 -9.028310e-03
-2.830103e-02 -5.777287e-04 -1.055174e-02
3.767493e-03 -2.103493e-02 -2.197786e-02
-2.606731e-04 -1.312258e-04 2.919863e-02
2.168892e-02 9.343861e-03 -1.937975e-02
-1.203392e-02 2.097797e-02 -1.840111e-02
1.449459e-02 -1.864832e-02 -1.937589e-02
7.544989e-03 2.234820e-02 -1.934333e-02
-1.712061e-02 1.643074e-02 -1.914515e-02
2.147872e-02 -9.790482e-03 -1.934764e-02
-1.244941e-03 -2.361225e-02 -1.934438e-02
-1.709871e-02 -1.640189e-02 -1.926330e-02
8.918628e-03 2.196497e-02 -1.918102e-02
2.063190e-02 -1.161827e-02 -1.924133e-02
3.007914e-04 -1.428303e-04 2.909039e-02
1.806063e-02 1.522822e-02 -1.937417e-02
6.598562e-03 -2.267158e-02 -1.936238e-02
-1.982503e-02 1.284060e-02 -1.936984e-02
6.126021e-03 2.278682e-02 -1.937288e-02
1.290331e-02 1.985596e-02 -1.926494e-02
-1.331959e-02 1.939347e-02 -1.939555e-02
2.268684e-02 6.547319e-03 -1.937196e-02
-1.903287e-02 -1.404715e-02 -1.939523e-02
2.011339e-02 1.243215e-02 -1.933506e-02
-1.215723e-02 1.270437e-02 -2.498884e-02
-4.534121e-05 3.614300e-04 2.912089e-02
-1.457798e-02 -9.832979e-03 -2.497997e-02
1.629832e-02 -6.584147e-03 -2.499339e-02
-2.494884e-03 -1.413627e-03 -3.051392e-02
-2.380055e-03 1.598426e-03 -3.050869e-02
-2.380130e-03 -1.597820e-03 -3.050835e-02
-9.435871e-05 2.552916e-03 -3.073776e-02
1.463343e-02 -1.174248e-03 -2.683536e-02
1.463357e-02 1.173089e-03 -2.683556e-02
-1.470813e-03 -4.400514e-03 -3.021298e-02
-2.768432e-03 7.750948e-04 -3.072317e-02
-1.938258e-04 -2.825205e-04 2.925829e-02
-8.876250e-04 2.848951e-03 -3.074204e-02
-4.634109e-04 2.908819e-03 -3.074944e-02
-2.255920e-03 -1.782315e-03 -3.076727e-02
-1.138404e-03 2.770602e-03 -3.072036e-02
-2.597911e-03 -1.214235e-03 -3.076910e-02
2.513070e-03 -2.434734e-03 -3.047830e-02
-6.145752e-04 3.431438e-03 -3.053223e-02
-8.352397e-04 -2.729876e-03 -3.076527e-02
-1.643560e-03 3.067224e-03 -3.054036e-02
-1.691760e-03 2.327545e-03 -3.076820e-02
-7.674809e-05 -1.280487e-04 2.904861e-02
3.257039e-03 -1.365471e-03 -3.052607e-02
-3.242519e-03 1.256856e-03 -3.054102e-02
1.391328e-03 -2.581461e-03 -3.072109e-02
-3.217230e-03 1.427969e-03 -3.047703e-02
4.727844e-04 2.953186e-03 -3.072658e-02
-2.590487e-03 1.281246e-03 -3.078292e-02
1.618685e-03 -3.112224e-03 -3.051326e-02
5.272111e-04 -3.494298e-03 -3.053155e-02
2.821788e-03 2.064364e-03 -3.047454e-02
2.973626e-02 -7.199756e-04 2.451848e-03
1.890331e-04 -6.544112e-05 2.916596e-02
1.723401e-02 -8.010782e-04 2.381273e-02
-1.845376e-03 1.458802e-02 -2.685612e-02
1.252567e-02 -9.322475e-03 2.452180e-02
-1.378338e-02 -7.522321e-03 2.464700e-02
8.316495e-03 -1.323647e-02 2.458789e-02
1.235972e-02 -9.783452e-03 2.462567e-02
-9.159025e-03 -1.292140e-02 2.470624e-02
1.714646e-02 -3.911221e-03 2.360739e-02
1.714420e-02 3.911689e-03 2.360969e-02
-1.312046e-02 2.687502e-02 1.364615e-03
-6.332634e-05 2.944339e-04 2.932902e-02
-1.626249e-02 6.237338e-03 2.379887e-02
-1.626277e-02 -6.237461e-03 2.379837e-02
1.024886e-04 -3.500603e-03 -3.049964e-02
-8.780513e-03 -1.307871e-02 2.467485e-02
9.391419e-03 1.250703e-02 2.453780e-02
-1.403746e-02 7.436930e-03 2.476744e-02
1.156798e-02 1.067382e-02 2.470733e-02
8.048230e-03 -1.341956e-02 2.458555e-02
1.484034e-02 -5.139573e-03 2.467888e-02
1.211675e-02 9.796305e-03 2.456160e-02
6.636463e-05 -1.316553e-04 2.920740e-02
1.516831e-02 -4.172302e-03 2.471690e-02
-1.361988e-02 -7.799712e-03 2.468020e-02
8.777675e-03 -1.324274e-02 2.450191e-02
-1.402453e-02 -7.541407e-03 2.462808e-02
1.257295e-02 -9.196334e-03 2.466970e-02
-7.799674e-03 -1.385221e-02 2.482454e-02
1.256566e-02 9.599973e-03 2.464945e-02
1.428591e-02 6.644787e-03 2.465977e-02
9.870533e-03 1.245899e-02 2.450290e-02
-2.287420e-02 1.913066e-02 2.737886e-03
7.818014e-06 -3.039892e-05 2.907370e-02
2.466668e-04 3.281621e-04 2.935662e-02
-2.289382e-02 1.895301e-02 -3.656964e-03
-2.287420e-02 -1.913114e-02 2.737533e-03
-2.289430e-02 -1.895348e-02 -3.658668e-03
-1.550394e-02 -3.399488e-03 2.472602e-02
-1.550361e-02 3.399667e-03 2.472608e-02
-2.966499e-02 4.408158e-03 -6.021078e-04
1.454053e-03 -2.690630e-02 -1.403017e-02
1.486781e-04 3.409154e-03 -3.069213e-02
-2.428021e-03 2.631503e-03 -3.059969e-02
-1.670663e-03 1.440453e-03 -3.075454e-02
6.172839e-05 1.852583e-04 2.914385e-02
-4.602003e-04 -2.165217e-03 -3.078587e-02
-2.206873e-03 -6.622047e-04 -3.076660e-02
1.955559e-03 -1.140789e-03 -3.079730e-02
-1.154966e-03 -1.941793e-03 -3.065685e-02
-4.389738e-03 -1.263984e-03 -3.048762e-02
-3.033437e-03 -1.980155e-03 -3.059132e-02
6.929190e-04 -3.418370e-03 -3.057194e-02
2.857972e-04 3.473053e-03 -3.049578e-02
8.873536e-04 -2.368057e-03 -3.065490e-02
1.051658e-03 -3.317005e-03 -3.056100e-02
-2.906217e-04 -6.084716e-07 2.919666e-02
2.623843e-03 -2.987673e-02 3.049556e-04
1.721830e-02 3.130590e-04 2.397087e-02
1.463191e-02 -4.729505e-03 2.483716e-02
1.463202e-02 4.729650e-03 2.483643e-02
2.964159e-02 4.714713e-03 6.383760e-04
1.552648e-02 3.282464e-03 2.489922e-02
1.552596e-02 -3.281980e-03 2.489961e-02
2.877247e-02 -3.864185e-03 7.403500e-03
2.966055e-02 2.022847e-03 2.755810e-03
2.967363e-02 1.956637e-03 -3.898444e-03
1.119650e-04 -2.463220e-04 2.928375e-02
2.966613e-02 -2.021562e-03 2.757733e-03
2.968202e-02 -1.956444e-03 -3.903282e-03
8.517587e-05 1.621459e-02 2.468815e-02
-2.978922e-02 3.648777e-03 -1.438150e-03
-1.164976e-03 2.992416e-02 1.208328e-03
1.735945e-02 -8.823872e-04 2.386531e-02
1.733474e-02 9.013106e-04 2.393811e-02
1.585732e-02 7.485301e-04 2.484016e-02
2.056697e-02 -2.177967e-02 1.314432e-03
-2.824687e-03 2.975961e-03 -3.033750e-02
-1.230125e-04 1.247598e-04 2.934859e-02
2.495771e-02 1.659242e-02 1.332843e-03
-6.162096e-03 2.935245e-02 1.438741e-03
-1.162272e-02 2.758078e-02 3.350247e-04
-9.199786e-03 2.853242e-02 1.405254e-03
1.680104e-02 -1.198133e-03 2.410079e-02
1.680159e-02 1.198964e-03 2.409943e-02
7.650470e-03 1.465034e-02 2.436394e-02
9.642362e-03 1.345379e-02 2.427357e-02
1.037738e-02 1.286494e-02 2.435854e-02
9.746209e-03 -1.375935e-02 2.418170e-02
-2.502505e-04 -4.817779e-04 2.936035e-02
1.057825e-02 -1.278637e-02 2.433675e-02
-1.006762e-02 1.379295e-02 2.399295e-02
-8.362373e-03 -1.497091e-02 2.387617e-02
2.723346e-03 -1.526436e-02 2.483782e-02
2.865597e-02 -4.505709e-03 6.728451e-03
-2.423804e-02 6.618247e-03 -1.765341e-02
-2.352505e-02 7.854400e-03 -1.831460e-02
-2.924371e-02 3.925594e-03 -5.711918e-03
-2.236903e-02 -1.073587e-02 -1.835099e-02
-8.934846e-04 -2.073446e-02 -2.244204e-02
1.057739e-04 1.880387e-04 2.926677e-02
2.954311e-02 5.228417e-03 -1.203158e-03
-2.470529e-03 -2.984559e-02 1.327183e-03
2.876098e-02 3.642107e-03 6.518921e-03
-2.309346e-02 8.462711e-03 1.625444e-02
-2.309350e-02 -8.462563e-03 1.625433e-02
-1.544249e-02 -3.580257e-03 2.469067e-02
-1.544251e-02 3.580429e-03 2.469173e-02
1.856466e-02 7.785010e-04 -2.450149e-02
1.850103e-02 -9.027619e-04 -2.456438e-02
-2.917672e-02 -1.302926e-03 5.211117e-03
-2.882172e-04 -3.819683e-04 2.925266e-02
1.238411e-02 -9.616523e-03 2.456522e-02
-1.377812e-02 -7.543617e-03 2.478585e-02
8.467556e-03 -1.315972e-02 2.472229e-02
1.247150e-02 -9.648408e-03 2.448123e-02
-9.018530e-03 -1.301092e-02 2.462213e-02
-2.925720e-02 -3.910036e-03 -5.802017e-03
-2.621088e-02 -1.235845e-02 6.507576e-03
2.976682e-02 -2.985714e-03 -1.524135e-04
2.976640e-02 2.987737e-03 -1.657741e-04
-1.553662e-02 -2.058070e-03 2.480161e-02
1.405162e-05 1.464517e-04 2.935824e-02
-1.686182e-02 -2.483477e-02 1.354822e-03
2.062790e-02 -9.068663e-04 -2.262559e-02
2.057782e-02 8.824010e-04 -2.274490e-02
1.306747e-02 -1.001298e-03 -2.766715e-02
-2.209546e-02 -3.434141e-03 -2.069852e-02
5.047355e-06 -1.382352e-02 -2.765625e-02
-1.927095e-02 1.758820e-02 -1.587064e-02
2.967971e-02 -3.591159e-03 2.452618e-03
-2.808519e-02 -9.844399e-03 1.348223e-03
-2.808494e-02 9.844055e-03 1.348138e-03
-2.824714e-04 -3.052988e-04 2.924542e-02
7.593034e-03 -1.685996e-02 -2.456490e-02
1.597388e-02 2.868092e-03 2.453403e-02
1.596847e-02 -2.876519e-03 2.454904e-02
-1.680109e-02 1.734517e-03 2.395167e-02
-1.707488e-02 -1.746283e-03 2.376378e-02
2.934873e-02 -4.180694e-03 4.362237e-03
-6.438549e-05 -1.245263e-02 -2.799369e-02
-1.645975e-02 1.876386e-02 -1.741264e-02
-1.301711e-02 1.976605e-03 -2.747460e-02
1.580797e-02 -6.505534e-03 2.404585e-02
-1.288488e-04 -1.276287e-04 2.928338e-02
1.048414e-04 -3.151084e-04 2.926293e-02
1.580817e-02 6.505449e-03 2.404589e-02
-1.679635e-02 -2.325028e-02 7.723463e-03
-2.170139e-02 2.022739e-02 4.104439e-03
-2.170216e-02 -2.022804e-02 4.103633e-03
2.963671e-02 2.989458e-04 3.215481e-03
2.801780e-02 3.227667e-03 -1.093736e-02
5.312253e-03 -2.937657e-02 -3.624340e-03
-2.881172e-02 5.626438e-03 5.318094e-03
2.805117e-02 -3.210068e-03 -1.086474e-02
3.741494e-03 2.779225e-02 -1.150596e-02
9.652805e-05 -9.820500e-05 2.913064e-02
1.426718e-02 -3.900274e-03 2.518368e-02
5.960004e-04 4.212038e-03 -3.048726e-02
-7.301398e-03 -1.285510e-02 2.529390e-02
2.190345e-02 2.028789e-02 3.503840e-04
2.190357e-02 -2.028781e-02 3.510819e-04
-2.865196e-02 6.815022e-03 4.888222e-03
-2.512550e-03 -3.050910e-03 -3.072723e-02
3.057848e-03 -2.582087e-03 -3.069708e-02
3.483605e-03 1.867983e-03 -3.058115e-02
-2.416890e-03 -3.172507e-03 -3.057608e-02
1.169502e-04 -2.401203e-04 2.923739e-02
2.538418e-03 -2.953281e-03 -3.068130e-02
1.441757e-03 -3.752486e-03 -3.070343e-02
3.781871e-03 1.355850e-03 -3.069415e-02
5.450594e-04 -3.977187e-03 -3.069553e-02
1.689582e-03 3.528848e-03 -3.056468e-02
3.785309e-03 -1.201412e-03 -3.058069e-02
-2.641114e-03 -2.930526e-03 -3.056854e-02
-1.299338e-02 6.973262e-03 2.527570e-02
2.975684e-03 -1.615420e-02 2.443737e-02
7.726809e-03 -1.452044e-02 2.444442e-02
3.836663e-04 2.362081e-04 2.921611e-02
-1.524726e-02 6.204241e-03 2.443701e-02
1.539824e-02 -5.822672e-03 2.443296e-02
-7.414086e-03 1.471887e-02 2.444055e-02
-2.607129e-03 1.623349e-02 2.443777e-02
5.212121e-03 -2.942286e-02 -4.130548e-03
1.703384e-02 -1.037549e-02 -2.331753e-02
1.005682e-04 2.557430e-03 -3.068189e-02
1.462949e-02 6.274804e-03 2.466604e-02
1.462962e-02 -6.274924e-03 2.466632e-02
-1.393499e-02 5.640149e-03 2.519640e-02
2.431577e-04 5.141804e-04 2.919867e-02
-1.393515e-02 -5.640208e-03 2.519604e-02
-1.677702e-02 4.330812e-03 2.378050e-02
-1.677748e-02 -4.330752e-03 2.378084e-02
-9.409738e-03 1.720475e-03 -2.941271e-02
-6.898378e-03 1.960294e-02 -2.205908e-02
-2.259614e-02 -1.837217e-02 5.397904e-03
-2.259586e-02 1.837230e-02 5.397422e-03
1.406140e-02 -5.908222e-03 2.493723e-02
-9.851271e-03 -6.850342e-03 2.660950e-02
-8.418821e-03 8.548191e-03 2.659993e-02
1.205618e-04 5.997706e-04 2.918081e-02
1.831625e-02 2.199182e-02 7.986453e-03
1.782531e-02 -2.237083e-02 7.978762e-03
1.289630e-02 2.554464e-02 7.977970e-03
1.700028e-02 2.302337e-02 7.995533e-03
-1.072098e-02 -1.914083e-03 -2.890426e-02
-4.800328e-03 -2.852976e-02 6.419540e-03
2.862716e-03 -1.631774e-02 2.428664e-02
-1.159575e-03 2.010093e-02 -2.301121e-02
-2.596206e-02 3.014536e-03 -1.547969e-02
2.852044e-03 -1.593614e-02 2.458692e-02
-9.406191e-05 3.442258e-04 2.927034e-02
-9.950690e-03 1.070988e-02 2.503838e-02
-1.228686e-02 -7.984860e-03 2.499552e-02
-2.878205e-03 -2.898764e-02 5.366857e-03
-2.880568e-03 2.898367e-02 5.369111e-03
-1.459532e-02 -2.620816e-02 -7.823347e-05
3.149961e-03 1.579933e-02 2.472565e-02
1.209391e-02 -1.063291e-02 2.476169e-02
5.069090e-04 1.543720e-02 2.470512e-02
-2.667052e-02 1.316695e-02 1.424508e-03
1.053866e-02 1.180799e-02 2.468084e-02
8.277821e-05 3.303397e-04 2.921205e-02
1.394187e-02 -6.986113e-03 2.457434e-02
-6.940381e-03 1.416646e-02 2.468571e-02
-6.366507e-03 -1.472810e-02 2.464141e-02
-2.329812e-03 -1.554169e-02 2.459286e-02
4.709256e-03 1.492685e-02 2.459466e-02
9.201993e-03 -1.245805e-02 2.468459e-02
1.172166e-02 -1.080014e-02 2.465950e-02
1.145072e-02 -1.085166e-02 2.460015e-02
9.110883e-03 -1.273009e-02 2.456715e-02
4.376170e-03 1.495193e-02 2.462169e-02
2.028313e-05 1.191326e-04 2.908405e-02
-5.989829e-03 -1.475289e-02 2.466996e-02
-2.282575e-03 -1.580091e-02 2.476275e-02
-6.686276e-03 1.448794e-02 2.466193e-02
1.059229e-02 1.162606e-02 2.459423e-02
1.405987e-02 -6.880436e-03 2.466640e-02
-1.211716e-02 -1.044022e-02 2.485973e-02
1.143386e-02 1.120659e-02 2.485833e-02
-1.543690e-02 -4.281727e-03 2.486935e-02
-9.948678e-03 1.252321e-02 2.486828e-02
-1.476360e-02 -6.173868e-03 2.487392e-02
-1.252049e-04 -9.891402e-05 2.928707e-02
-7.626652e-04 1.562088e-02 2.489580e-02
8.333529e-04 -2.692823e-03 -3.084245e-02
1.375846e-03 2.473992e-03 -3.084785e-02
1.227483e-03 -2.512581e-03 -3.086016e-02
-2.330952e-02 -1.750104e-02 6.184494e-03
-2.330905e-02 1.750107e-02 6.184199e-03
-2.676612e-02 -4.931563e-03 -1.316615e-02
6.554549e-03 2.626966e-03 -3.008012e-02
6.559666e-03 -2.623972e-03 -3.007869e-02
1.505970e-02 -4.118929e-03 2.460528e-02
2.417899e-04 1.443374e-04 2.907163e-02
4.777498e-05 3.427284e-05 2.914332e-02
-1.358471e-02 -7.838311e-03 2.468050e-02
1.231781e-02 9.580238e-03 2.459001e-02
1.499655e-02 -5.185107e-03 2.463364e-02
8.193314e-03 -1.351627e-02 2.459360e-02
1.411989e-02 6.680953e-03 2.459936e-02
9.839304e-03 1.241954e-02 2.458582e-02
1.247134e-02 9.472338e-03 2.463169e-02
1.272887e-02 -9.299674e-03 2.462041e-02
-8.089495e-03 -1.376576e-02 2.464573e-02
-1.400183e-02 -7.181468e-03 2.462513e-02
-6.668040e-05 -6.580277e-05 2.921933e-02
8.775753e-03 -1.327370e-02 2.451166e-02
-6.138898e-03 1.443234e-02 2.485593e-02
9.551321e-03 1.238478e-02 2.457581e-02
-1.396347e-02 7.772107e-03 2.461234e-02
1.160946e-02 1.084668e-02 2.459859e-02
-8.680854e-03 -1.320303e-02 2.473855e-02
1.498921e-02 4.815065e-03 2.487960e-02
-1.824161e-04 -2.986208e-02 1.139874e-03
2.893532e-02 -1.607944e-03 5.249634e-03
2.904160e-02 1.597326e-03 5.324911e-03
-2.632759e-05 -1.636465e-04 2.919330e-02
-1.583754e-02 -2.553650e-03 2.461975e-02
1.409367e-02 2.557678e-02 5.857537e-03
7.182299e-03 1.383249e-02 2.500442e-02
-2.072398e-02 2.053874e-02 6.237201e-03
-2.063882e-02 -2.058196e-02 6.260800e-03
2.229299e-02 4.950794e-04 -2.072436e-02
1.000263e-02 -4.129475e-03 -2.866108e-02
1.000261e-02 4.129190e-03 -2.866171e-02
-1.429797e-02 7.889840e-03 2.426067e-02
-2.447936e-02 1.577841e-02 6.261836e-03
4.243952e-04 1.381935e-04 2.937432e-02
-2.448227e-02 -1.577044e-02 6.261527e-03
-2.559797e-02 -1.387950e-02 6.259153e-03
-2.574954e-02 -1.358740e-02 6.011853e-03
-2.471781e-02 1.547194e-02 6.264577e-03
-2.462555e-02 -1.555290e-02 6.056359e-03
-2.338625e-02 1.738026e-02 6.047702e-03
-2.338412e-02 -1.737375e-02 6.053495e-03
-9.882046e-03 -2.747952e-02 6.700743e-03
1.587391e-02 -2.458383e-03 2.443929e-02
2.834897e-02 -6.232784e-03 -8.652815e-03
3.089784e-04 5.921206e-04 2.920645e-02
2.834877e-02 6.232437e-03 -8.653453e-03
-2.880155e-02 7.116439e-04 7.696449e-03