# vtk DataFile Version 2.0
Electric current density generated by TTH
ASCII
DATASET UNSTRUCTURED_GRID
POINTS 1418 double
1.451055e-05 -3.554060e-21 -5.472140e-22
1.185468e-05 8.367950e-06 -5.472140e-22
1.009103e-05 -2.471590e-21 -4.645102e-07
-1.340689e-05 -5.240406e-06 -7.102041e-07
8.202158e-06 -1.079620e-05 -1.829658e-06
1.360653e-05 2.021703e-06 -1.674074e-06
7.178240e-06 1.022468e-05 2.223660e-06
-1.227320e-05 -6.010151e-06 1.749605e-06
1.301407e-05 -2.687127e-06 -1.991721e-06
-1.211180e-05 4.280343e-07 -2.228646e-06
1.015738e-05 3.013542e-06 -1.471205e-06
-1.379702e-05 -4.109061e-06 7.065009e-07
-1.199989e-05 4.220146e-06 2.189618e-06
1.046890e-05 -2.564141e-21 -1.313213e-06
1.251948e-05 7.082302e-06 7.415575e-07
8.274216e-06 -5.734287e-06 -3.319572e-07
-9.689392e-06 3.691410e-06 1.162941e-06
1.321861e-05 3.418253e-06 1.759335e-06
-8.446865e-06 -1.165722e-05 -7.066900e-07
4.674816e-06 9.252939e-06 1.159767e-06
-9.922292e-06 -3.461240e-06 -1.366272e-06
-7.064502e-06 -7.250551e-06 5.958258e-07
1.057481e-05 -2.360966e-06 -1.707164e-06
8.824188e-06 -5.126842e-06 -8.382591e-07
1.115930e-05 -2.733239e-21 -1.934849e-06
5.852773e-06 -9.128049e-06 -1.713965e-06
-1.319983e-05 -2.188806e-06 1.942522e-06
1.359984e-05 4.646904e-06 7.749982e-07
1.106529e-05 9.147947e-06 8.137761e-07
2.772139e-06 -1.333324e-05 -1.786221e-06
3.627006e-06 -1.326262e-05 1.679604e-06
-1.322731e-05 -3.423442e-06 1.751682e-06
-4.149705e-06 -9.347333e-06 8.898232e-07
-1.418226e-05 -2.544660e-06 -6.667744e-07
-4.727476e-06 1.069474e-05 2.156664e-06
1.204285e-05 -2.949647e-21 -2.221932e-06
1.009146e-05 3.406815e-06 1.532864e-06
-7.951329e-06 6.257397e-06 -5.778525e-07
-3.695855e-06 1.147874e-05 2.223575e-06
-1.113501e-05 8.042405e-06 -1.691738e-06
-1.331681e-05 3.703485e-06 1.613058e-06
8.357861e-06 -9.555882e-06 -2.194559e-06
-4.732982e-06 1.289881e-05 1.688225e-06
-2.668024e-06 -1.412844e-05 -7.576824e-07
-5.009977e-06 -8.936519e-06 9.301870e-07
-2.332571e-08 1.011904e-05 -5.809491e-07
1.296678e-05 -3.175945e-21 -2.124823e-06
-1.122364e-05 8.947052e-06 -8.231424e-07
-5.286953e-06 1.340679e-05 -6.575724e-07
-4.126552e-06 1.375364e-05 8.079157e-07
9.058648e-06 -6.165583e-06 -1.803574e-06
5.861190e-06 1.032816e-05 2.197887e-06
-9.457565e-06 -3.392408e-06 1.548668e-07
1.088117e-05 2.064963e-06 1.883904e-06
-9.900165e-06 1.703877e-06 1.251460e-07
3.124785e-06 1.046028e-05 -1.773053e-06
-7.362692e-06 -1.126885e-05 1.894307e-06
1.377133e-05 -3.373004e-21 -1.660313e-06
-1.017174e-05 -1.015700e-05 7.674843e-07
6.578313e-06 -1.191377e-05 -1.793025e-06
1.184382e-05 -3.524141e-06 2.232715e-06
3.689181e-06 -9.625531e-06 1.057424e-06
-8.413107e-06 5.489021e-06 1.190123e-07
6.333067e-06 1.199806e-05 -1.823743e-06
-1.025126e-05 8.641763e-07 -1.018004e-06
2.179645e-06 1.344624e-05 1.783674e-06
-6.031293e-06 8.710287e-06 1.470761e-06
2.047429e-06 1.374873e-05 -1.534363e-06
1.431740e-05 -3.506751e-21 -9.087192e-07
6.344498e-06 1.204837e-05 1.787440e-06
1.432365e-05 1.003636e-06 8.094405e-07
6.264779e-06 -1.047006e-05 2.232906e-06
-9.157335e-06 4.124004e-06 6.359644e-08
-1.045757e-05 -1.716206e-06 -1.474021e-06
-1.006025e-05 1.028285e-05 -7.366682e-07
1.146387e-05 -8.687343e-06 7.421751e-07
1.323634e-06 -1.271828e-05 -2.175044e-06
-5.427669e-06 -8.516464e-06 -5.005171e-07
5.451708e-06 8.880700e-06 -1.243955e-06
-8.304773e-07 1.000782e-05 5.526075e-09
1.262169e-05 4.716605e-06 1.885951e-06
9.530920e-06 -1.079076e-05 7.026367e-07
-4.769618e-06 -8.909122e-06 -5.281252e-07
-3.495749e-06 -1.348004e-05 -1.506817e-06
1.156966e-05 6.149004e-07 -2.124823e-06
-9.129782e-06 1.047078e-05 -1.543048e-06
-1.105540e-05 8.201844e-06 1.665443e-06
-1.333503e-05 -3.373989e-06 -1.674659e-06
-4.808936e-07 1.327789e-05 -1.992731e-06
1.363284e-05 1.877357e-06 1.669121e-06
3.867821e-06 -1.006454e-05 1.660974e-06
1.404686e-06 -1.052234e-05 1.494522e-06
-1.027193e-05 2.273280e-06 1.381414e-06
-3.823690e-06 -1.096227e-05 2.132475e-06
-1.246466e-07 1.197507e-05 -2.213847e-06
9.527632e-06 -9.750812e-06 1.775264e-06
-9.579933e-06 -1.073362e-05 7.326820e-07
-1.067926e-05 -4.223264e-06 -2.088942e-06
3.543050e-07 -1.439331e-05 -7.011959e-07
-7.315605e-06 1.238830e-05 -7.324515e-07
4.934383e-06 -8.780349e-06 3.628603e-07
7.709675e-06 8.742357e-06 2.146379e-06
1.205016e-05 1.976838e-06 -2.233221e-06
3.116218e-06 -1.184277e-05 2.233963e-06
8.711998e-06 1.148849e-05 6.357321e-07
-1.366907e-05 -4.533787e-06 -6.899599e-07
3.021090e-06 1.308357e-05 1.914592e-06
-1.003967e-05 -8.274508e-06 -2.110257e-06
9.509072e-06 -7.360879e-06 2.220004e-06
-4.942058e-06 -1.293892e-05 1.585337e-06
1.332271e-05 3.620540e-06 -1.628524e-06
-1.082424e-05 -8.795744e-06 1.483001e-06
1.125600e-05 9.157435e-06 -5.472140e-22
1.026273e-05 -7.153630e-06 2.221932e-06
8.712648e-06 1.148935e-05 -6.320978e-07
1.113152e-05 4.324532e-06 2.209013e-06
1.157028e-05 -6.030646e-07 2.124823e-06
2.206356e-06 1.194067e-05 2.230174e-06
-9.479448e-06 -4.080420e-06 -1.079577e-06
-1.103833e-07 -1.057588e-05 1.449748e-06
-1.226324e-06 -1.279099e-05 -2.159374e-06
-5.785645e-07 1.389942e-05 1.522517e-06
6.661701e-06 1.073850e-05 -2.204876e-06
-7.892272e-06 -1.091373e-05 1.889616e-06
9.773499e-06 -6.288039e-06 -2.136055e-06
7.370035e-06 -7.698912e-06 1.540133e-06
7.571733e-06 7.048558e-06 1.122593e-06
1.403241e-05 3.129473e-06 7.604980e-07
6.823336e-06 8.501854e-06 -1.760911e-06
-1.054617e-05 1.474952e-06 1.530538e-06
-6.348010e-06 -1.231945e-05 1.577181e-06
1.044520e-05 -3.440672e-06 1.831791e-06
-1.013301e-05 9.395223e-06 1.616693e-06
1.011973e-05 -2.938053e-06 -1.402909e-06
1.013061e-05 2.047614e-06 -1.106517e-06
-6.551933e-06 -1.165261e-05 1.949170e-06
1.002125e-05 -6.859794e-07 -1.053477e-07
-6.006531e-06 1.307648e-05 -7.239187e-07
-1.006587e-05 1.738418e-06 -8.612514e-07
-1.212769e-05 7.793113e-06 6.439563e-07
-5.806076e-06 -1.235119e-05 -1.763726e-06
1.209366e-05 -2.145036e-06 -2.234163e-06
3.964922e-06 -1.164994e-05 2.233972e-06
7.068970e-06 1.257215e-05 6.185369e-07
-1.038367e-05 -5.709361e-07 -1.211729e-06
-5.147971e-06 1.110134e-05 -2.233822e-06
-1.382194e-05 -4.201573e-07 1.607169e-06
-1.253821e-05 5.431169e-06 1.751024e-06
2.183435e-06 -1.350447e-05 1.738335e-06
4.862229e-06 -1.352406e-05 -7.757459e-07
-8.337619e-06 -1.174097e-05 6.934149e-07
1.337614e-06 1.162594e-05 -2.159243e-06
7.948238e-06 1.099003e-05 -1.826502e-06
1.241824e-05 2.085986e-06 2.211734e-06
9.930654e-08 1.062526e-05 1.505602e-06
1.019985e-05 -1.019985e-05 -6.131826e-07
-8.495376e-06 -6.234396e-06 1.402798e-06
-8.355600e-06 7.285706e-06 1.890585e-06
-1.038553e-05 7.971590e-06 2.079898e-06
1.338009e-05 -3.490525e-06 1.607586e-06
2.610847e-06 -1.116506e-05 2.082119e-06
-6.882580e-06 -1.020230e-05 -2.233964e-06
1.134712e-05 7.367796e-07 2.042504e-06
9.657010e-06 3.474015e-06 -9.681494e-07
8.774211e-06 4.918957e-06 -2.731499e-07
-1.475237e-06 -1.435012e-05 6.097086e-07
5.113860e-06 -9.009638e-06 -1.148118e-06
-1.117647e-05 4.515666e-06 2.223099e-06
-8.706064e-06 -5.062632e-06 3.577365e-07
-9.433367e-06 9.622077e-06 -1.885494e-06
9.677471e-06 7.964513e-06 2.219334e-06
-1.910110e-06 -1.367271e-05 -1.628913e-06
5.889004e-06 9.530365e-06 1.959456e-06
1.120663e-05 2.111653e-06 -2.056744e-06
9.605518e-06 -9.637485e-06 -1.794799e-06
-1.178163e-05 -1.589685e-06 2.200223e-06
1.047779e-05 -9.164397e-06 -1.513141e-06
-9.889701e-06 6.074813e-06 -2.131362e-06
-5.093436e-06 -1.010265e-05 2.016271e-06
1.006206e-05 6.356280e-06 -2.202507e-06
-1.071626e-05 9.581932e-07 -1.639854e-06
9.149473e-06 -5.412230e-06 -1.510700e-06
-1.992983e-06 1.006547e-05 9.639827e-07
-2.136964e-08 -1.242277e-05 2.229369e-06
1.397398e-05 -7.132332e-07 -1.430938e-06
1.074121e-05 8.716557e-06 1.602637e-06
-1.366855e-05 -2.857697e-07 -1.745008e-06
-9.921487e-06 -1.632428e-06 -2.376466e-07
-9.291545e-06 4.267953e-06 8.848007e-07
2.740686e-06 -1.411789e-05 7.484714e-07
1.904549e-06 1.096342e-05 -1.916209e-06
4.366635e-06 1.374178e-05 -6.334426e-07
1.265528e-05 6.994145e-07 2.198396e-06
9.485053e-06 -3.958201e-06 -9.986332e-07
1.241740e-05 -7.269308e-06 7.277514e-07
8.251173e-06 6.735868e-06 -1.533354e-06
-7.923040e-06 -1.205695e-05 -6.044934e-07
-1.005601e-05 8.117262e-07 4.534632e-07
-2.358598e-06 9.953322e-06 -8.941918e-07
-5.930315e-06 1.246292e-05 -1.632251e-06
1.370140e-05 -4.430080e-06 -6.947244e-07
1.205714e-05 5.596020e-06 1.989739e-06
1.367139e-05 4.513705e-06 -7.024827e-07
1.365014e-05 -4.536243e-06 7.408222e-07
1.086002e-05 -6.748492e-06 -2.175268e-06
8.468034e-06 -8.037139e-06 2.151682e-06
-7.980124e-06 1.126302e-05 1.630729e-06
6.185034e-07 -1.367972e-05 1.727064e-06
-5.545077e-07 1.061452e-05 1.509185e-06
8.910995e-06 1.052077e-05 -1.645704e-06
7.874964e-06 6.242207e-06 1.726389e-07
-1.051843e-05 2.352749e-06 -1.657530e-06
-1.969913e-06 -9.978789e-06 -7.486298e-07
9.427412e-06 5.816564e-06 -1.885188e-06
1.465646e-06 1.074427e-05 1.714398e-06
-4.673156e-06 -1.313410e-05 -1.490502e-06
-1.244896e-06 1.006378e-05 6.553438e-07
4.493672e-06 -1.296238e-05 1.705815e-06
9.796320e-06 8.014096e-06 -2.201552e-06
-6.435816e-06 1.017250e-05 2.221355e-06
-8.521924e-06 8.010580e-06 2.157426e-06
2.879186e-06 1.264244e-05 -2.125026e-06
-9.284642e-06 8.011696e-06 -2.234133e-06
1.060483e-05 9.904223e-06 -5.472140e-22
-9.792648e-06 2.386403e-06 -4.050239e-07
-2.151780e-06 -1.355735e-05 1.699141e-06
7.046347e-06 1.161668e-05 1.809587e-06
9.711678e-06 -2.634005e-06 -3.006918e-07
2.887197e-06 1.406627e-05 8.074897e-07
-8.844463e-06 -7.521549e-06 2.132559e-06
9.122866e-06 1.061146e-05 1.428840e-06
3.929047e-06 1.328228e-05 1.584735e-06
-9.523165e-06 -8.645961e-06 2.155925e-06
-1.080643e-05 -9.551204e-06 -6.215390e-07
1.135731e-05 2.705544e-06 2.151746e-06
-1.730393e-06 -1.003607e-05 7.836383e-07
-1.475878e-06 1.435636e-05 5.871469e-07
-6.453683e-06 -7.713767e-06 -2.604687e-07
1.042892e-05 9.901609e-06 7.505998e-07
3.013714e-06 -9.624451e-06 -4.364803e-07
-8.656343e-06 8.510894e-06 -2.229974e-06
-7.967582e-06 -1.097710e-05 -1.825883e-06
9.453507e-06 -3.397422e-06 -1.204538e-07
-1.373425e-05 -1.800641e-06 -1.584180e-06
[...]
POINT_DATA 1418
VECTORS 10.000GHz_fone_imag double
-5.188759e-04 -1.128825e-04 2.339650e-02
8.249266e-04 -7.073244e-05 2.717770e-02
1.258554e-02 1.726434e-03 -8.218544e-02
-9.180296e-03 -2.808807e-03 2.573652e-02
1.632814e-02 -2.184802e-02 1.666867e-02
2.357635e-02 4.172537e-03 1.832819e-02
-2.317179e-02 -3.285761e-02 1.171171e-03
2.427824e-02 1.200892e-02 2.000759e-02
3.008292e-02 -6.177777e-03 1.274626e-02
-4.778779e-02 9.594607e-04 -6.442916e-03
4.332973e-02 1.519616e-02 -5.507792e-02
8.726106e-03 3.024554e-03 2.562350e-02
3.811236e-02 -1.140195e-02 7.280014e-03
4.295871e-02 -5.884576e-04 -6.008316e-02
-7.766113e-03 -4.396812e-03 2.317483e-02
1.349853e-02 -6.812135e-03 -7.738827e-02
3.677253e-02 -1.418773e-02 -6.537252e-02
-2.421582e-02 -6.418648e-03 1.795490e-02
-4.867448e-03 -6.060474e-03 2.455836e-02
-1.443752e-02 -2.969097e-02 -6.406552e-02
-3.913867e-02 -1.302834e-02 -5.755899e-02
1.423875e-02 9.988040e-03 -7.202305e-02
4.777897e-02 -1.192420e-02 -4.483829e-02
2.256553e-02 -1.414674e-02 -6.956535e-02
4.716263e-02 -2.251180e-04 -2.927086e-02
2.606189e-02 -3.982073e-02 -4.224545e-02
2.940428e-02 5.283105e-03 1.362153e-02
-7.426194e-03 -3.534339e-03 2.509798e-02
-8.719142e-03 -7.556561e-03 2.593389e-02
4.026189e-03 -2.435791e-02 1.773266e-02
-7.074440e-03 2.484294e-02 1.884933e-02
2.491407e-02 5.503479e-03 1.747555e-02
7.729955e-03 2.532531e-02 -6.728339e-02
-9.079931e-03 -1.144182e-03 2.566709e-02
2.289316e-02 -4.498324e-02 -1.669549e-02
4.969023e-02 2.099771e-04 -8.313643e-03
-4.037123e-02 -1.793952e-02 -5.328831e-02
-1.753709e-02 1.235214e-02 -7.990383e-02
1.344043e-02 -4.787673e-02 -6.509535e-03
-2.073378e-02 1.308291e-02 1.928212e-02
2.302875e-02 -6.214271e-03 1.707107e-02
2.557536e-02 -2.979534e-02 7.029032e-03
8.977446e-03 -2.143316e-02 1.908479e-02
-2.109697e-03 -9.900356e-03 2.579456e-02
1.679597e-02 2.655843e-02 -6.789814e-02
-1.320633e-03 2.069883e-02 -7.947198e-02
3.429447e-02 4.480538e-04 1.006638e-02
-8.452257e-03 6.397707e-03 2.567762e-02
-2.347889e-03 7.041281e-03 2.450720e-02
2.738210e-03 -9.352181e-03 2.569855e-02
3.971767e-02 -2.726818e-02 -3.846797e-02
-2.514258e-02 -4.148462e-02 -7.987046e-03
8.428022e-03 2.282392e-03 -8.068581e-02
-5.027964e-02 -9.597597e-03 -3.816335e-02
-8.855824e-05 -7.880461e-04 -7.716691e-02
1.271772e-02 4.817914e-02 -4.441559e-02
1.663698e-02 2.628427e-02 1.680279e-02
2.570186e-02 1.316898e-04 1.979513e-02
5.969445e-03 5.346903e-03 2.414321e-02
1.210853e-02 -2.334723e-02 1.678195e-02
-4.200194e-02 1.141410e-02 2.546874e-03
-1.457636e-02 3.391891e-02 -6.969818e-02
4.673772e-03 -4.164804e-03 -8.238953e-02
1.220956e-02 2.508528e-02 1.740444e-02
-3.107146e-02 1.124668e-03 -7.165292e-02
-3.699907e-03 -2.471057e-02 1.676731e-02
2.443151e-02 -3.388407e-02 -4.818917e-02
4.034797e-03 2.227479e-02 2.127771e-02
1.169303e-02 4.179950e-05 2.592961e-02
-1.158879e-02 -2.213970e-02 1.784333e-02
-9.236827e-03 -6.870050e-04 2.571126e-02
-2.268938e-02 4.121552e-02 -3.507491e-03
2.824806e-03 -4.569830e-04 -7.444217e-02
-4.486971e-02 -5.378808e-03 -5.119308e-02
-7.995584e-03 6.711609e-03 2.556181e-02
-7.907229e-03 6.401374e-03 2.541523e-02
4.824246e-03 -4.024315e-02 8.388327e-03
-7.139158e-03 -1.479258e-02 -7.918730e-02
1.853974e-02 3.524771e-02 -6.201432e-02
-3.947919e-04 -1.999893e-04 -7.985989e-02
-2.530166e-02 -9.615409e-03 1.616139e-02
-5.564452e-03 6.465567e-03 2.593544e-02
-7.299248e-03 -1.573018e-02 -7.151032e-02
-5.830208e-03 -2.082287e-02 2.200274e-02
5.149942e-02 2.014843e-03 -2.128150e-02
-1.463574e-02 1.682993e-02 1.953792e-02
1.848585e-02 -1.354383e-02 1.860964e-02
-2.417801e-02 -4.756295e-03 1.927239e-02
-1.102110e-03 3.340236e-02 1.411013e-02
-2.415438e-02 -3.138842e-03 1.882484e-02
-1.715381e-02 4.214633e-02 -3.961778e-02
-5.834977e-03 4.685058e-02 -5.350677e-02
3.717823e-02 -8.478739e-03 -5.556772e-02
1.839167e-02 4.821482e-02 -2.005913e-02
5.051929e-04 4.765596e-02 -8.427372e-03
-1.734438e-02 1.787739e-02 1.680054e-02
5.616839e-03 6.665897e-03 2.565510e-02
-4.440202e-02 -1.679166e-02 -2.334458e-02
4.768981e-04 -9.299932e-03 2.283787e-02
-4.921648e-03 6.571369e-03 2.409225e-02
-5.940804e-03 1.111438e-02 -7.314897e-02
-3.007676e-02 -3.953963e-02 -1.865945e-02
4.288663e-02 6.784294e-03 -6.021050e-03
-1.258152e-02 4.561387e-02 -2.297553e-03
-4.264081e-03 -6.961057e-03 2.398827e-02
-8.310619e-03 -1.962925e-03 2.498278e-02
-5.659267e-03 -2.847130e-02 1.613177e-02
-2.726216e-02 -2.353883e-02 1.163250e-02
-3.831695e-02 3.092477e-02 -6.355097e-03
7.702126e-03 2.147938e-02 1.819037e-02
2.111482e-02 5.495959e-03 1.856039e-02
1.652470e-02 1.495157e-02 2.009535e-02
6.205981e-04 3.190847e-04 2.647080e-02
-3.475036e-02 2.565301e-02 2.047407e-03
4.663690e-03 7.244322e-03 2.556343e-02
-4.717932e-02 -1.829093e-02 -1.231668e-02
-4.915356e-02 1.339907e-03 -1.714099e-02
-9.108792e-03 -4.700612e-02 -5.708309e-03
-3.278849e-02 -1.384932e-02 -6.718318e-02
2.454549e-03 4.363802e-02 -5.346756e-02
-3.746372e-03 -3.875027e-02 6.229224e-03
1.761828e-03 -2.038793e-02 2.120905e-02
2.420872e-02 3.519335e-02 3.893496e-03
1.762755e-02 2.287462e-02 1.580173e-02
4.467686e-02 -2.636168e-02 -1.680297e-02
-3.176206e-02 3.405197e-02 -4.823338e-02
-2.799556e-02 -2.417140e-02 -6.644326e-02
-8.406978e-03 -5.481226e-04 2.471322e-02
3.160594e-02 3.980681e-02 -4.279964e-02
4.703733e-02 -5.210137e-03 -5.229760e-02
1.012977e-02 1.974263e-02 1.931659e-02
-4.822792e-02 1.623730e-02 -4.116365e-02
1.662962e-02 -1.670670e-02 2.145469e-02
4.198891e-02 -1.304735e-02 -5.787201e-02
2.861023e-02 3.987814e-03 -6.209621e-02
1.334246e-02 2.635318e-02 1.564894e-02
3.150546e-03 -3.885894e-03 -8.060660e-02
-3.713627e-03 8.101942e-03 2.499739e-02
-2.660505e-02 5.476628e-03 -6.958405e-02
6.845517e-03 -5.004484e-03 2.342742e-02
-1.189921e-02 -2.540367e-02 1.937641e-02
4.666098e-02 -8.551641e-03 -2.245351e-03
-1.424977e-02 4.485302e-02 -1.014122e-03
-4.384030e-03 -6.875648e-03 2.587312e-02
-4.109846e-02 -1.664142e-03 -6.287539e-02
-2.068852e-02 4.178343e-02 -2.047041e-03
2.221687e-02 8.203511e-04 1.908831e-02
2.323548e-02 -9.960886e-03 1.781147e-02
-4.224257e-03 2.646152e-02 1.888053e-02
3.213988e-03 -9.105005e-03 2.538931e-02
4.922201e-03 7.140546e-03 2.514510e-02
5.619096e-03 5.038585e-02 -1.752654e-02
1.686697e-02 2.200433e-02 1.647444e-02
-4.151384e-02 -7.603672e-03 3.417147e-03
-1.978704e-03 -4.653394e-02 -5.312295e-02
5.629007e-03 -5.254635e-03 2.603378e-02
3.232779e-02 2.369755e-02 -5.406858e-02
3.456866e-02 -3.044185e-02 -3.664310e-02
2.862933e-02 -2.162786e-02 1.266461e-02
-2.437153e-02 5.818681e-03 1.944547e-02
-1.150728e-02 5.078921e-02 -2.335255e-02
-2.683570e-02 -3.910534e-02 -1.825868e-03
-5.189825e-02 -2.249631e-03 -2.555306e-02
2.735737e-02 1.072781e-02 -6.935874e-02
8.984054e-03 5.201387e-03 -7.356349e-02
1.136591e-03 8.010032e-03 2.585526e-02
1.901455e-02 -3.338108e-02 -6.515733e-02
4.565993e-02 -1.777255e-02 -6.627159e-03
1.017568e-02 5.784806e-03 -7.728860e-02
-1.918859e-02 2.031927e-02 1.620959e-02
-3.385725e-02 -2.744687e-02 2.878376e-03
-2.480870e-03 -2.244248e-02 2.036373e-02
-2.840889e-02 -4.532072e-02 -3.251413e-02
5.110172e-02 1.101601e-02 -2.451085e-02
1.806787e-02 -1.810450e-02 1.716691e-02
4.967781e-02 7.154674e-03 -1.017594e-02
1.607584e-02 -1.378656e-02 2.253551e-02
-4.462283e-02 2.651742e-02 -1.754802e-02
2.170239e-02 4.582559e-02 -2.324497e-02
4.306323e-02 2.541481e-02 -1.061072e-02
-4.946970e-02 3.382921e-03 -4.713794e-02
3.952369e-02 -2.072174e-02 -5.443209e-02
5.403743e-03 -2.751101e-02 -6.640367e-02
-9.971397e-04 4.402057e-02 -1.965042e-03
2.099908e-02 -6.496281e-04 2.214719e-02
-1.702726e-02 -1.315810e-02 1.837159e-02
-2.723438e-02 -4.068324e-04 1.926899e-02
-4.982990e-03 -2.577185e-03 -8.124817e-02
2.739821e-02 -1.129274e-02 -7.206642e-02
-1.081173e-03 8.112019e-03 2.441947e-02
6.740989e-03 4.667669e-02 -3.196099e-02
3.637792e-03 6.062972e-03 2.391551e-02
-3.714689e-02 -1.401797e-03 5.011482e-03
3.250207e-02 -9.755697e-03 -6.889982e-02
-8.199513e-03 4.430144e-03 2.594904e-02
3.620660e-02 2.838877e-02 -5.449538e-02
-4.155333e-03 -5.918225e-03 2.563091e-02
1.343729e-02 4.412514e-04 -7.878970e-02
-4.153910e-03 2.625920e-02 -6.536036e-02
-1.034664e-02 2.203481e-02 2.042465e-02
7.827567e-03 -2.317606e-03 2.517460e-02
-2.848200e-02 -1.321666e-02 1.172095e-02
8.761668e-03 3.516508e-03 2.579781e-02
-9.815043e-03 2.613303e-03 2.574135e-02
3.230973e-02 -1.993090e-02 6.911859e-03
-3.806062e-02 3.480598e-02 -1.887567e-02
1.184763e-02 -1.809588e-02 2.027442e-02
-7.171867e-04 2.620399e-02 1.924430e-02
2.213217e-03 -4.655628e-02 -5.365831e-02
1.372666e-02 1.741808e-02 2.014637e-02
-5.975605e-03 -4.630022e-04 -8.161491e-02
-4.665251e-02 1.380224e-02 -4.668502e-02
-5.394666e-03 -2.034197e-02 -6.757576e-02
3.953825e-02 2.695272e-02 -3.742435e-02
-5.818148e-03 -5.088536e-02 -4.310907e-02
-6.798060e-03 -1.999251e-02 2.239326e-02
6.010329e-03 -2.328069e-02 -7.433338e-02
-9.620177e-03 2.319104e-02 1.728293e-02
3.028486e-02 2.418924e-02 3.249887e-03
2.508300e-02 -4.090473e-02 -6.428734e-03
3.884281e-02 -3.633145e-02 -1.709746e-02
9.272557e-03 3.428573e-02 8.364818e-03
-3.571808e-02 2.993648e-02 -3.248186e-03
8.397576e-04 1.494597e-03 2.409259e-02
-9.700707e-03 -4.243947e-04 -7.462311e-02
3.534880e-03 2.489811e-02 2.023774e-02
-1.287485e-02 -2.317734e-02 1.571253e-02
1.161812e-02 -3.035037e-03 -8.031007e-02
-2.014363e-03 -1.066866e-02 2.631877e-02
4.032257e-02 3.247762e-02 -2.135887e-02
-1.349627e-02 -1.629733e-02 1.919050e-02
-6.732543e-03 -2.072289e-02 1.847605e-02
2.793689e-02 2.481061e-02 9.356233e-03
-5.949693e-03 -5.018203e-03 2.589404e-02
-4.783638e-02 -1.099335e-02 -1.698403e-02
3.503786e-03 2.402224e-02 -7.438072e-02
1.541662e-03 -7.787452e-03 2.519427e-02
-4.071693e-03 -2.005315e-03 -7.997231e-02
-6.361294e-03 -6.504524e-03 2.607496e-02
9.482457e-04 -1.163927e-02 -7.390677e-02
-3.321620e-02 3.150356e-02 -7.608065e-03
-1.554043e-02 -2.230401e-02 1.638337e-02
4.929925e-03 -1.003719e-03 -8.306064e-02
-2.245752e-02 -3.436767e-03 2.176684e-02
-7.288174e-04 -4.088484e-02 -2.645724e-03
8.872633e-03 1.868269e-02 -7.119301e-02
6.764168e-03 1.396171e-02 -7.830663e-02
3.509402e-03 7.399428e-03 2.326176e-02
-9.260054e-03 1.732680e-03 2.516826e-02
-3.407391e-02 2.094761e-02 5.270142e-03
4.455238e-02 1.274476e-02 -1.799305e-04
3.445709e-02 3.415662e-02 -1.083841e-02
-1.971915e-02 -1.404087e-02 2.111686e-02
-7.524057e-03 5.308789e-03 2.549503e-02
-1.229097e-02 4.319057e-02 -3.431763e-02
2.233150e-02 9.937800e-03 1.675993e-02
2.188622e-02 -4.189018e-02 -4.382710e-03
-1.568049e-02 2.577950e-02 -7.342521e-02
-3.168552e-02 5.646768e-03 1.589414e-02
-2.914232e-03 -7.746870e-03 2.611160e-02
1.704839e-02 -3.337550e-02 9.602137e-03
1.598593e-02 3.576159e-02 9.597152e-03
3.264711e-02 3.543991e-02 -1.856980e-02
-1.507445e-02 -1.912244e-02 1.980783e-02
-2.100976e-02 -3.509290e-02 3.176663e-03
-2.708699e-04 2.880282e-02 -7.445611e-02
5.804947e-03 6.376044e-03 2.336409e-02
4.488649e-02 -2.200174e-02 -8.273272e-03
-1.766686e-02 5.760116e-03 2.119775e-02
3.948814e-02 2.069923e-02 -5.683444e-02
-2.754150e-02 -3.457426e-02 1.116203e-03
-4.231152e-03 4.366100e-02 6.411828e-04
-1.901342e-02 -1.019572e-02 2.063835e-02
4.866777e-02 -1.337380e-02 -3.157443e-02
2.014253e-02 6.637410e-04 2.230871e-02
-2.022305e-02 9.596488e-04 2.211948e-02
9.853821e-03 9.485767e-05 2.524415e-02
8.497050e-03 2.265097e-05 2.562947e-02
-9.108537e-03 4.323444e-04 2.599180e-02
1.790885e-02 5.995991e-03 2.137541e-02
-2.528250e-02 -7.649576e-03 1.904823e-02
3.331155e-02 -3.590984e-02 -7.330803e-03
1.496509e-02 1.402132e-02 2.338285e-02
4.409953e-02 1.882333e-03 -4.212080e-02
3.517257e-03 -6.799186e-03 2.611705e-02
-1.149883e-02 1.684148e-02 2.246898e-02
1.532943e-02 -3.941695e-02 -5.088396e-02
-5.052164e-02 -9.698298e-03 -1.414331e-02
5.114499e-02 -1.641880e-03 -2.082287e-02
-5.196028e-02 -5.478108e-03 -2.105428e-02
1.931704e-02 -5.975741e-03 2.287326e-02
4.694712e-02 2.182252e-02 -1.769252e-02
7.391344e-03 -1.684542e-02 2.225105e-02
-1.927362e-02 -2.171477e-02 -7.174935e-02
5.133719e-04 -9.243109e-03 -7.994875e-02
2.609852e-03 -6.633603e-03 2.550537e-02
3.893142e-03 -4.702236e-03 2.421972e-02
-1.684909e-02 1.416717e-02 2.104195e-02
-1.767330e-02 4.760785e-02 -2.054311e-02
-1.827207e-02 4.093154e-02 -5.711289e-02
-4.534339e-02 9.425383e-03 -4.342305e-02
-1.799663e-02 -2.461974e-02 -7.421397e-02
3.068052e-03 -8.558798e-03 2.621531e-02
-3.638300e-02 -8.043395e-03 1.116832e-02
-6.361048e-04 -5.062214e-02 -1.560750e-02
-1.498722e-03 6.504761e-03 2.568098e-02
9.030114e-03 -4.970659e-02 -2.560860e-02
-2.513112e-02 4.511425e-03 1.906892e-02
-3.541683e-03 6.174381e-03 2.585397e-02
-1.573276e-02 -4.934569e-02 -1.506018e-02
1.183406e-02 -1.737121e-02 2.159972e-02
-7.586040e-04 -5.096254e-02 -1.743757e-02
1.297665e-02 -3.245078e-02 -6.271314e-02
6.861472e-03 -2.361983e-02 2.026865e-02
9.722340e-03 4.369986e-02 -5.656372e-02
6.965882e-03 -4.383627e-03 2.533524e-02
-1.684858e-02 4.919699e-02 -4.066793e-02
-2.155033e-02 1.225107e-02 2.006459e-02
-8.674029e-03 -3.900672e-03 2.512026e-02
4.024316e-02 -1.129493e-02 5.988634e-03
-4.754830e-02 -2.101303e-03 -4.697754e-02
4.055732e-02 -2.713868e-02 -8.033213e-03
3.812351e-02 2.924580e-02 -2.519644e-02
4.565634e-02 1.457365e-02 -4.760593e-02
-8.104180e-03 3.637918e-03 2.571460e-02
-3.728380e-02 8.972029e-03 1.040129e-02
3.402603e-02 -2.140548e-02 8.368358e-03
7.550454e-03 -3.125838e-03 2.530059e-02
1.724462e-02 4.816812e-02 -1.322312e-02
-3.088885e-02 4.037458e-02 -1.577335e-02
-7.249952e-03 3.316108e-04 2.400003e-02
1.342126e-02 4.443093e-02 -1.322206e-03
-4.046256e-02 -2.103935e-02 -2.519160e-03
-1.970220e-02 -8.055185e-03 1.913423e-02
-3.069597e-05 -2.212477e-04 2.386988e-02
7.977995e-03 -4.526310e-02 -3.916788e-02
-2.982307e-02 -3.018562e-02 5.464350e-03
-3.048933e-02 2.199710e-02 -5.435613e-02
-6.729881e-03 1.360197e-03 2.576016e-02
4.090739e-03 -5.757007e-03 2.389216e-02
-9.165322e-03 2.325575e-03 2.491161e-02
9.369749e-03 1.815003e-03 2.435821e-02
6.905185e-03 -1.043096e-03 2.479499e-02
4.520885e-04 -6.137454e-03 2.470372e-02
4.709778e-02 3.725280e-03 -6.102529e-03
-9.361735e-04 -2.504051e-02 2.115351e-02
-1.894631e-02 6.081369e-03 -7.261766e-02
1.460968e-02 -2.587322e-02 -6.523393e-02
9.695057e-03 4.201773e-02 3.634088e-03
2.473724e-02 -2.618446e-03 1.738508e-02
-1.120838e-02 3.482499e-02 -6.555204e-02
3.854812e-02 -2.847661e-03 -6.391561e-02
-3.545286e-02 2.984036e-02 -4.940269e-02
6.933080e-03 2.385123e-02 1.947795e-02
4.189801e-02 -1.164414e-02 8.332430e-05
9.441157e-03 1.774929e-02 1.935419e-02
1.132332e-02 -4.425248e-02 -8.926083e-03
3.273927e-02 3.513560e-02 -2.264042e-02
-3.057550e-02 1.164004e-02 1.147941e-02
1.646587e-02 -4.206425e-02 -6.433702e-03
1.094592e-02 1.880719e-02 2.211111e-02
4.527767e-02 -1.857453e-02 -6.691089e-03
-3.488013e-02 3.556247e-02 -2.621628e-02
1.632868e-02 1.298716e-02 2.233796e-02
2.351696e-03 -9.324521e-03 -7.627896e-02
1.282380e-02 4.822465e-03 -8.122747e-02
1.513968e-02 1.670360e-02 2.132699e-02
-2.363414e-02 -4.177222e-02 -4.502949e-02
1.860631e-03 3.201161e-03 -7.972418e-02
1.731830e-02 1.179436e-02 -7.096459e-02
2.966367e-02 4.217317e-02 -4.174525e-02
-4.217153e-02 1.726868e-02 -7.331725e-03
-4.078998e-02 -1.753051e-02 -4.458578e-02
-3.160841e-02 2.996410e-03 -6.248363e-02
2.948993e-02 -3.210155e-02 -5.773848e-02
-2.656899e-02 4.025723e-02 -2.872575e-02
1.689989e-02 -2.591542e-02 -6.818947e-02
1.399871e-03 6.608688e-03 2.594175e-02
3.008177e-02 1.609031e-02 8.956004e-03
-4.938033e-02 -1.048346e-02 -1.221417e-02
1.919338e-02 3.526884e-02 5.765356e-03
-3.809055e-02 -2.020362e-02 4.547316e-03
3.483377e-02 2.034923e-02 8.270053e-03
-7.889512e-03 -1.139649e-02 -7.939994e-02
-4.639474e-03 5.529162e-05 -7.375111e-02
-1.712712e-02 2.881997e-02 -6.217653e-02
-1.974124e-04 2.980698e-02 -7.283951e-02
2.803896e-02 -9.318615e-03 1.433995e-02
2.160805e-02 4.330428e-03 1.939487e-02
3.564231e-02 8.650132e-03 7.281765e-03
-4.207108e-02 2.721317e-02 -4.063477e-02
-2.763994e-02 1.819105e-02 -6.441331e-02
5.128740e-03 2.544537e-03 -8.280627e-02
-1.099003e-02 -3.391016e-02 6.887931e-03
-3.320227e-02 1.532851e-02 -5.750584e-02
1.005018e-02 -3.408673e-02 -6.760627e-02
-2.653801e-02 4.160689e-02 -4.419129e-02
6.211101e-03 -5.801982e-03 -8.059026e-02
-1.881218e-03 -1.063724e-02 -7.246797e-02
2.576172e-02 2.965469e-02 7.799726e-03
-2.517426e-02 -7.457559e-03 1.949820e-02
-2.860275e-02 4.387620e-02 -2.170070e-02
-4.444196e-02 1.696300e-02 -4.189347e-03
2.748791e-02 -2.989303e-02 1.673743e-04
-2.554560e-02 2.277019e-02 9.482067e-03
-2.219815e-02 -4.444498e-02 -3.422078e-02
-5.570614e-03 -5.087075e-02 -4.498005e-02
2.147528e-02 -5.341880e-03 2.184150e-02
-1.338277e-02 3.695170e-02 8.961474e-03
1.097097e-03 2.313107e-02 1.926641e-02
-1.110890e-02 2.065026e-02 -7.495245e-02
2.540279e-02 3.138952e-02 7.509182e-03
-1.326712e-02 4.539030e-02 -1.326239e-02
-1.993077e-02 -1.162988e-02 1.969945e-02
-1.461882e-02 3.029153e-02 -6.973211e-02
-8.529755e-03 3.223770e-03 2.321427e-02
-4.497812e-02 1.164283e-02 -3.725550e-02
3.995675e-02 -3.326008e-02 -1.685017e-02
-6.033477e-03 -1.525065e-03 2.404652e-02
1.243128e-03 -2.848764e-02 1.817249e-02
4.776429e-03 3.933534e-02 3.742427e-03
-1.187996e-03 7.196260e-03 2.490421e-02
-4.110444e-02 3.292412e-02 -2.336035e-02
4.655921e-02 -1.337743e-02 -2.775619e-02
-2.138254e-02 -8.606508e-03 2.176314e-02
2.821930e-03 3.787986e-02 1.143789e-02
2.096603e-02 -4.776770e-02 -2.964310e-02
3.667830e-02 -2.738380e-02 -5.314609e-02
-2.907794e-03 6.017374e-03 2.439802e-02
-1.507315e-03 5.280081e-03 2.471696e-02
6.368933e-03 -4.935091e-03 2.558621e-02
1.519647e-02 -9.709010e-03 2.303694e-02
-3.816172e-02 3.311033e-02 -4.470366e-02
3.769071e-03 -9.038785e-03 -7.423312e-02
-2.176094e-02 -4.427019e-02 -1.175174e-02
4.468214e-02 2.397972e-02 -1.743809e-02
-1.878947e-02 -1.053796e-03 2.333563e-02
4.048527e-02 9.932999e-03 4.230164e-03
-1.943205e-02 -2.137585e-02 -6.783159e-02
2.588128e-02 -3.422023e-02 -5.397210e-02
8.019836e-03 -4.422224e-02 -5.514356e-02
-3.418709e-02 3.235753e-02 -4.348549e-03
-3.207803e-02 -2.116618e-02 3.180376e-03
-3.072449e-02 -3.068733e-02 -5.573258e-02
-3.151345e-02 3.168179e-02 -5.545735e-02
-1.183541e-03 -4.283319e-04 2.554414e-02
3.165535e-02 -4.006098e-02 -1.016013e-02
-1.057421e-02 -2.017424e-02 2.082829e-02
-8.309906e-03 -1.837530e-02 2.275917e-02
3.463600e-02 -3.572052e-02 -2.858437e-02
-2.439921e-02 -1.508536e-02 -7.411461e-02
-2.434976e-02 3.248843e-02 8.803461e-03
-2.044821e-02 3.849138e-02 4.263318e-03
7.830854e-03 3.636119e-03 2.243927e-02
1.312040e-02 -1.926231e-02 2.007598e-02
-4.841870e-03 -4.492157e-03 2.647979e-02
4.040335e-04 2.295441e-02 2.135580e-02
-3.715548e-02 2.235919e-02 -2.690881e-03
1.405856e-03 -5.047185e-02 -1.341297e-02
-1.945026e-02 4.871883e-02 -3.555297e-02
4.912876e-03 2.513853e-03 2.507095e-02
-3.356501e-02 -3.561350e-02 -3.605964e-02
3.656258e-02 3.105437e-02 -4.837182e-03
-5.859062e-03 -4.526416e-03 2.576446e-02
-7.761688e-03 -2.389515e-03 2.546887e-02
1.188966e-02 1.693599e-02 2.208393e-02
-4.214159e-02 2.925439e-02 -1.931195e-02
3.922028e-02 2.254289e-02 1.666046e-03
4.067366e-02 -2.386161e-02 -3.800250e-03
-4.932082e-02 -6.623627e-03 -3.010380e-02
-4.220549e-02 -2.245727e-02 -1.521610e-02
-6.977796e-03 -4.637226e-02 -1.536848e-02
7.708922e-03 -4.828992e-02 -1.462026e-02
2.095038e-02 -4.091859e-02 -8.280380e-03
4.562825e-02 -2.157459e-02 -9.941975e-03
7.839129e-04 -8.685982e-05 2.442978e-02
4.245265e-02 -9.614190e-03 -7.166801e-04
-3.331368e-03 4.948391e-02 -1.219150e-02
1.924121e-02 -1.058674e-04 -7.686878e-02
-2.275474e-03 1.353033e-03 -7.712872e-02
-4.303386e-02 4.759149e-03 -6.833924e-03
-3.599028e-02 -2.934283e-02 -2.200087e-03
6.316879e-03 4.273641e-02 -1.150883e-04
-4.198673e-02 -2.420160e-02 -4.597907e-02
-2.553573e-02 -2.225384e-02 1.381207e-02
-5.086689e-02 1.169884e-02 -2.113447e-02
4.036673e-04 1.072411e-03 2.529453e-02
-4.585429e-03 4.241851e-02 2.407025e-03
-1.896115e-02 -4.025556e-02 -5.164299e-03
-6.816619e-03 -4.229678e-02 -2.713708e-03
2.885497e-02 3.080425e-02 -3.439328e-03
2.165367e-02 4.646683e-02 -1.206424e-02