# vtk DataFile Version 2.0
Electric current density generated by TTH
ASCII
DATASET UNSTRUCTURED_GRID
POINTS 2636 double
-2.029637e-05 1.894284e-05 -3.320701e-22
-1.616035e-05 -1.914183e-05 8.218324e-09
-5.519474e-06 2.538871e-05 -1.287349e-06
2.516757e-05 1.087491e-05 9.049311e-07
2.516757e-05 -1.087491e-05 -9.049311e-07
-2.344223e-05 -9.625973e-06 -8.384588e-07
-2.555442e-05 -9.970438e-06 8.890658e-07
5.013465e-06 2.458570e-05 -3.285340e-07
-1.650524e-05 -2.186178e-05 9.309059e-07
-2.207551e-05 1.635992e-05 -8.328976e-07
9.060197e-06 2.414506e-05 1.206706e-06
-2.086734e-05 1.831196e-05 -3.320701e-22
-2.619365e-05 8.130768e-06 -8.936889e-07
-1.292918e-05 2.254468e-05 -1.289710e-06
-2.253339e-05 -1.143720e-05 -7.381389e-07
2.365699e-05 -1.388797e-05 8.871526e-07
2.365699e-05 1.388797e-05 -8.871526e-07
-7.851556e-06 -2.484820e-05 1.310389e-06
1.079883e-05 -2.518101e-05 9.243365e-07
6.406111e-06 -2.668915e-05 8.695906e-07
6.968332e-06 -2.652319e-05 -8.974115e-07
-2.612099e-05 -2.333151e-07 1.325484e-06
-2.141871e-05 1.766388e-05 -3.320701e-22
2.123892e-05 1.742981e-05 8.348790e-07
2.123892e-05 -1.742981e-05 -8.348790e-07
1.390334e-05 -2.222295e-05 -1.341934e-06
1.689213e-05 -1.991557e-05 -1.323871e-06
2.266340e-05 1.288562e-05 1.313337e-06
2.266340e-05 -1.288562e-05 -1.313337e-06
-2.291543e-05 1.014402e-05 -1.562262e-07
2.481033e-05 3.466070e-06 6.494990e-09
2.481033e-05 -3.466070e-06 -6.494990e-09
-1.257631e-05 -2.200120e-05 -8.389409e-07
-2.194996e-05 1.699921e-05 -3.320701e-22
-1.698675e-05 -2.021366e-05 1.355774e-06
2.245554e-05 1.313663e-05 -1.298108e-06
2.245554e-05 -1.313663e-05 1.298108e-06
5.068550e-06 -2.540626e-05 1.260165e-06
-2.248246e-05 -1.552051e-05 -1.002896e-06
1.652301e-05 -2.189332e-05 8.913873e-07
1.836802e-05 1.727872e-05 6.510733e-07
8.412455e-06 -2.442086e-05 1.226478e-06
2.447327e-05 1.240569e-05 8.805149e-07
2.446067e-05 -1.245012e-05 -8.699995e-07
-2.246059e-05 1.631857e-05 -3.320701e-22
-2.528213e-05 8.234289e-06 -1.343475e-06
1.950798e-06 2.497763e-05 -8.124056e-08
1.121869e-05 -2.290929e-05 -1.015457e-06
-1.863924e-05 -2.017029e-05 -8.493077e-07
3.602568e-06 -2.716578e-05 9.192175e-07
-2.484155e-05 4.564692e-06 7.187518e-07
-4.520559e-06 -2.472538e-05 4.697235e-07
1.978925e-05 -1.897956e-05 -9.014995e-07
9.124684e-06 -2.455607e-05 -1.339343e-06
-2.388405e-05 -7.572091e-06 1.087201e-07
-2.295012e-05 1.562261e-05 -3.320701e-22
-2.495092e-05 -2.288084e-06 1.085744e-07
-6.986216e-07 -2.734248e-05 9.727814e-07
-1.976366e-05 -1.715108e-05 -1.334532e-06
1.201111e-05 2.204918e-05 -3.895362e-07
1.319599e-05 -2.285667e-05 -1.355700e-06
5.060238e-07 -2.744675e-05 8.645299e-07
1.413015e-05 -2.355147e-05 8.476959e-07
2.341054e-06 -2.581400e-05 1.265257e-06
1.662707e-05 2.182262e-05 8.838314e-07
-2.383526e-05 -9.907066e-06 1.218323e-06
-2.341809e-05 1.491197e-05 -3.320701e-22
-2.541645e-05 -5.675776e-06 -1.305846e-06
-2.150947e-05 -1.705453e-05 -8.659745e-07
-2.337979e-05 9.001050e-06 6.071884e-08
-1.838982e-05 -1.864460e-05 1.337954e-06
1.838368e-05 -1.726639e-05 -6.564608e-07
1.982397e-05 1.894176e-05 9.026927e-07
2.635812e-05 -8.964419e-07 1.355361e-06
2.635812e-05 8.964419e-07 -1.355361e-06
-1.499567e-05 2.125366e-05 1.296743e-06
6.109977e-06 -2.430789e-05 -1.856359e-07
-2.386407e-05 1.418732e-05 -3.320701e-22
6.295222e-06 -2.459283e-05 -8.917083e-07
1.226723e-05 -2.438130e-05 -1.025860e-06
-7.460907e-06 -2.491994e-05 -1.297211e-06
-1.109068e-05 -2.510953e-05 -8.664775e-07
-7.955642e-06 2.475871e-05 1.294952e-06
-1.981547e-05 -1.907048e-05 8.000840e-07
-1.901058e-05 1.635491e-05 -2.658762e-07
1.026874e-05 2.434773e-05 -1.355665e-06
-1.905824e-05 1.749666e-05 -1.245653e-06
1.426936e-05 -2.071600e-05 5.198150e-07
-2.428763e-05 1.344934e-05 -3.320701e-22
-1.159382e-05 -2.340546e-05 -1.324955e-06
-2.397875e-05 7.274189e-06 -1.332190e-07
-2.605413e-05 -8.583212e-06 -8.879940e-07
2.363938e-05 8.649053e-06 5.591644e-07
2.363938e-05 -8.649053e-06 -5.591644e-07
3.275242e-06 -2.576013e-05 1.282558e-06
1.070164e-05 -2.265227e-05 6.784276e-08
7.707633e-06 -2.386081e-05 -2.515716e-07
-2.398559e-05 1.007492e-05 -1.298048e-06
5.163980e-06 -2.691837e-05 9.131067e-07
-2.468838e-05 1.269873e-05 -3.320701e-22
-2.515847e-05 6.887453e-07 5.501467e-07
1.762808e-05 1.797578e-05 -5.700718e-07
1.033960e-05 -2.381451e-05 1.280743e-06
1.101912e-05 -2.342559e-05 1.252418e-06
2.293426e-05 -1.026527e-05 -4.462499e-07
2.293426e-05 1.026527e-05 4.462499e-07
-2.748600e-05 -8.450174e-07 8.035985e-07
-2.010928e-05 -1.496548e-05 -2.052365e-07
-2.370074e-06 -2.732741e-05 8.897683e-07
-1.036553e-05 2.344709e-05 -1.115266e-06
-2.506593e-05 1.193620e-05 -3.320701e-22
-2.718675e-05 3.586181e-06 8.985904e-07
1.975223e-05 1.742895e-05 -1.354234e-06
1.975051e-05 -1.738186e-05 1.352296e-06
6.033521e-06 -2.526560e-05 1.285443e-06
-2.481742e-05 -9.351523e-06 1.350994e-06
-2.626142e-05 6.536825e-06 1.186668e-06
-2.087684e-05 -1.614886e-05 -1.355713e-06
-1.696543e-05 1.922555e-05 -1.118449e-06
9.311384e-06 -2.577847e-05 9.137882e-07
-1.325590e-05 -2.238826e-05 1.298861e-06
-2.541995e-05 1.116245e-05 -3.320701e-22
-2.647751e-05 7.258569e-06 -8.608853e-07
5.043325e-07 2.748133e-05 -8.210160e-07
4.193642e-06 2.713329e-05 -8.596256e-07
-2.612052e-05 4.558695e-07 -1.326013e-06
-1.277180e-05 -2.155383e-05 -8.092436e-08
-1.910923e-05 -1.642964e-05 6.195616e-07
2.587999e-05 -2.822408e-06 1.303288e-06
2.587999e-05 2.822408e-06 -1.303288e-06
4.583221e-06 2.525612e-05 1.137044e-06
-2.514537e-05 -7.527998e-06 1.346425e-06
-2.575008e-05 1.037821e-05 -3.320701e-22
-2.208875e-05 1.450673e-05 -1.355640e-06
1.469763e-05 2.164218e-05 1.333290e-06
-2.391722e-05 -1.116257e-05 1.355715e-06
7.689663e-06 -2.485847e-05 1.299556e-06
1.054025e-05 -2.532618e-05 -8.875065e-07
1.634891e-05 2.218137e-05 -7.206951e-07
3.754289e-06 -2.640004e-05 -1.330886e-06
-2.641406e-05 -1.098963e-06 1.355450e-06
2.645860e-05 8.776587e-07 1.354166e-06
2.645860e-05 -8.776587e-07 -1.354166e-06
-2.605602e-05 9.584231e-06 -3.320701e-22
1.810841e-05 -1.924640e-05 1.355645e-06
1.643424e-05 2.034084e-05 1.331233e-06
-1.031913e-07 2.613784e-05 1.328827e-06
1.040894e-05 2.315987e-05 8.981775e-07
2.120703e-05 1.749047e-05 -8.167710e-07
-3.253650e-06 2.556724e-05 -1.198620e-06
-2.505295e-05 -9.848721e-07 2.379506e-07
1.180037e-05 2.360179e-05 -1.355636e-06
-1.740181e-05 1.897183e-05 1.182590e-06
2.111440e-05 -1.760455e-05 8.147509e-07
-2.633749e-05 8.781246e-06 -3.320701e-22
-8.608108e-07 -2.639432e-05 1.355778e-06
-6.030118e-06 -2.460769e-05 -8.309686e-07
-1.083008e-05 2.335477e-05 1.182400e-06
-3.277881e-06 2.553598e-05 1.183432e-06
-2.068232e-06 -2.533846e-05 -9.323521e-07
-1.424179e-05 -2.076926e-05 5.832865e-07
-2.702889e-05 -5.076228e-06 8.002609e-07
1.179336e-05 2.260750e-05 1.006491e-06
5.293712e-06 -2.692225e-05 -8.807568e-07
-2.202752e-05 -1.647161e-05 7.953619e-07
-2.659422e-05 7.970012e-06 -3.320701e-22
-2.747035e-05 1.452578e-06 -7.902020e-07
-3.682275e-06 -2.619817e-05 1.354906e-06
1.862720e-05 -2.016750e-05 8.618656e-07
-2.121602e-05 1.399831e-05 9.272782e-07
2.366813e-05 -1.191502e-05 -1.352719e-06
2.366862e-05 1.191043e-05 1.352827e-06
7.827427e-06 -2.524411e-05 -1.355588e-06
-2.294621e-05 -1.516694e-05 7.943731e-07
-2.474075e-05 3.932509e-06 1.496881e-08
1.504655e-05 2.160875e-05 -1.353661e-06
-2.682597e-05 7.151292e-06 -3.320701e-22
1.375881e-05 2.274194e-05 1.344690e-06
2.427555e-05 -1.282879e-05 8.578835e-07
2.427555e-05 1.282879e-05 -8.578835e-07
-1.533333e-05 2.281642e-05 8.156790e-07
6.345773e-07 2.748459e-05 8.131207e-07
-7.739570e-06 2.637826e-05 8.153485e-07
1.756985e-05 -1.801710e-05 5.453197e-07
-2.002793e-05 1.876006e-05 8.758887e-07
-2.369103e-05 1.170608e-05 1.355656e-06
-1.993765e-06 -2.629998e-05 1.355411e-06
-2.703253e-05 6.325855e-06 -3.320701e-22
3.123907e-07 2.550530e-05 -1.014125e-06
8.110878e-07 -2.638755e-05 1.355761e-06
1.221088e-05 -2.198395e-05 5.018356e-07
2.109956e-05 1.592207e-05 -1.355530e-06
2.553607e-05 1.029196e-05 -7.565774e-07
2.553607e-05 -1.029196e-05 7.565774e-07
-6.908032e-06 -2.529684e-05 1.343244e-06
2.486744e-05 4.954785e-06 8.567334e-07
2.486744e-05 -4.954785e-06 -8.567334e-07
2.555818e-05 -1.007873e-05 -8.369456e-07
-2.721368e-05 5.494475e-06 -3.320701e-22
2.555818e-05 1.007873e-05 8.369456e-07
2.109969e-05 -1.592035e-05 1.355548e-06
8.833630e-06 2.598933e-05 8.667681e-07
2.513086e-05 7.235193e-06 -1.331506e-06
2.513086e-05 -7.235193e-06 1.331506e-06
-2.450008e-05 -6.692288e-06 -9.051451e-07
-1.904615e-05 1.824228e-05 1.355352e-06
-1.940926e-05 -1.745608e-05 1.321547e-06
3.580648e-06 -2.493042e-05 5.897546e-07
2.190244e-05 1.452336e-05 1.349826e-06
-2.736928e-05 4.657934e-06 -3.320701e-22
2.190244e-05 -1.452336e-05 -1.349826e-06
-1.337965e-05 2.398426e-05 8.493505e-07
-1.586967e-05 -2.084665e-05 -1.339846e-06
2.203557e-06 2.529033e-05 -8.921474e-07
-5.523913e-06 2.690312e-05 8.486364e-07
-2.178889e-05 1.671996e-05 8.481468e-07
-2.491516e-05 1.162467e-05 8.108681e-07
2.490153e-05 -4.083363e-06 6.799853e-07
2.490153e-05 4.083363e-06 -6.799853e-07
-1.397278e-05 -2.367965e-05 8.092583e-07
-2.749917e-05 3.817018e-06 -3.320701e-22
-2.349728e-05 1.175099e-05 -1.349018e-06
-2.366484e-05 -8.408734e-06 4.088481e-07
-1.731745e-05 -2.136937e-05 -7.948884e-07
3.198560e-06 2.637689e-05 1.345935e-06
-2.146436e-05 -1.529629e-05 1.354858e-06
-1.982374e-05 1.907844e-05 -7.841494e-07
-1.039444e-05 -2.355966e-05 1.186357e-06
1.768291e-05 1.964028e-05 -1.355621e-06
7.116068e-06 -2.416016e-05 5.899577e-07
-2.441938e-05 1.254069e-05 -8.646373e-07
-2.760322e-05 2.972516e-06 -3.320701e-22
-2.392354e-05 8.009060e-06 -6.703348e-07
1.171957e-05 -2.483835e-05 8.486236e-07
7.749405e-07 2.503939e-05 1.803144e-08
2.463879e-05 -6.130816e-06 8.966402e-07
2.463879e-05 6.130816e-06 -8.966402e-07
-8.549429e-07 2.520923e-05 -6.617509e-07
2.522429e-05 -2.259028e-06 8.172249e-07
2.522429e-05 2.259028e-06 -8.172249e-07
1.237534e-05 -2.337359e-05 1.355173e-06
1.340967e-05 -2.249995e-05 1.338759e-06
-2.768135e-05 2.125223e-06 -3.320701e-22
[...]
POINT_DATA 2636
VECTORS 10.000GHz_fone_imag double
1.527979e+10 1.467845e+10 3.659710e+08
-2.451270e+10 1.860128e+10 3.417475e+08
2.748182e+10 7.633969e+09 6.682742e+06
8.683402e+09 -2.195690e+10 5.873797e+08
-8.791652e+09 -2.082750e+10 5.108070e+08
-1.199259e+10 2.703970e+10 -6.045975e+08
-8.518569e+09 2.063800e+10 5.143859e+08
3.008043e+10 -7.557968e+09 -7.995075e+08
-1.758303e+10 1.370787e+10 9.952820e+08
1.554532e+10 1.914223e+10 -1.609899e+09
2.613029e+10 -9.612043e+09 3.195117e+08
1.550129e+10 1.708179e+10 1.733528e+09
6.401142e+09 2.125469e+10 5.697216e+08
2.386565e+10 1.347411e+10 1.735868e+08
-1.455874e+10 2.608329e+10 -4.477861e+08
-1.218197e+10 -2.055848e+10 4.905560e+08
1.215996e+10 -2.065243e+10 4.341263e+08
-2.715219e+10 6.367889e+09 -1.358791e+08
-1.980151e+10 -8.658959e+09 -4.292435e+08
-2.158652e+10 -5.192381e+09 -1.617183e+08
-2.391547e+10 -5.610579e+09 -1.326379e+09
-8.479150e+08 2.980994e+10 2.268268e+08
1.308746e+10 1.723373e+10 2.974290e+07
1.391006e+10 -1.702245e+10 -1.442724e+08
-1.313976e+10 -1.696030e+10 -2.278697e+08
-2.580129e+10 -1.513449e+10 5.301974e+08
-2.216869e+10 -1.544003e+10 1.493742e+09
1.337628e+10 -2.340233e+10 4.662734e+08
-1.329607e+10 -2.342334e+10 4.507769e+08
1.258211e+10 2.874427e+10 -9.328870e+08
5.615032e+09 -2.999736e+10 2.166980e+08
-5.403351e+09 -3.019065e+10 4.435584e+07
-2.631875e+10 1.409802e+10 -1.291855e+09
1.377617e+10 1.705730e+10 6.074426e+08
-1.978080e+10 1.651221e+10 -2.620940e+08
1.228485e+10 -2.422682e+10 -1.825503e+08
-1.239642e+10 -2.419864e+10 -2.037306e+08
-2.720603e+10 -4.879450e+09 9.415806e+08
-1.405962e+10 1.967622e+10 -5.284538e+08
-2.068502e+10 -1.590535e+10 -9.526875e+08
2.244886e+10 -2.433021e+10 9.887005e+08
-2.655942e+10 -9.118721e+09 -3.002993e+08
9.785300e+09 -1.970344e+10 1.773094e+08
-9.863964e+09 -1.970101e+10 2.320672e+08
1.444196e+10 1.923660e+10 -7.981320e+08
7.087086e+09 2.390838e+10 -3.911610e+08
3.014400e+10 -3.412265e+09 -6.591813e+08
-2.636567e+10 -1.217080e+10 -8.253919e+08
-1.648838e+10 1.507577e+10 1.457809e+07
-2.205915e+10 -2.687861e+09 -1.017833e+09
4.239603e+09 3.056272e+10 -3.087920e+08
-2.858040e+10 5.220123e+09 6.576632e+07
-1.608139e+10 -1.702240e+10 5.850732e+08
-2.543499e+10 -1.070925e+10 -1.272935e+08
-9.588701e+09 2.976682e+10 -4.164345e+05
1.022694e+10 1.780457e+10 -2.437323e+08
-3.380116e+09 3.344459e+10 1.382452e+08
-2.225788e+10 -3.123572e+08 -2.453201e+08
-1.755419e+10 2.030928e+10 5.625707e+08
2.741857e+10 -1.429539e+10 -5.118373e+08
-2.261320e+10 -1.296191e+10 9.697810e+08
-2.207192e+10 -6.868312e+08 -1.004761e+09
-1.882010e+10 -1.120370e+10 -4.853987e+07
-2.706855e+10 -2.328812e+09 6.226374e+08
1.740610e+10 -1.330212e+10 1.872739e+08
-9.811569e+09 2.566676e+10 -3.341213e+08
1.181228e+10 1.733219e+10 1.392397e+08
-6.084301e+09 2.624052e+10 -9.268977e+08
-1.428717e+10 1.761957e+10 -2.273170e+08
1.193185e+10 2.924882e+10 -3.241068e+08
-1.851739e+10 1.841608e+10 -1.056877e+09
-2.017709e+10 -2.131369e+10 -5.740234e+07
1.630398e+10 -1.646975e+10 -4.806865e+08
1.483972e+08 -2.627135e+10 -4.603736e+08
-1.297568e+07 -2.656906e+10 -1.302080e+09
2.320572e+10 1.691640e+10 4.984185e+08
-3.048121e+10 -5.943964e+09 -4.390557e+08
1.043026e+10 1.768739e+10 5.724501e+07
-2.808186e+10 -6.165935e+09 -3.391645e+08
-2.084944e+10 -1.067638e+10 -8.931734e+08
-2.605227e+10 6.780977e+09 -2.249971e+08
-1.964037e+10 9.944116e+09 6.426654e+08
2.742278e+10 8.936823e+09 1.703302e+08
-1.460457e+10 1.639856e+10 -5.598299e+07
1.735286e+10 2.331507e+10 7.267414e+08
2.277733e+10 -9.136903e+09 -4.023166e+08
1.902677e+10 2.001872e+10 4.089484e+08
-2.457732e+10 -1.916550e+10 1.174800e+09
1.030201e+10 1.769284e+10 1.599482e+09
-2.461347e+10 1.122077e+10 1.649935e+08
8.073538e+09 2.923910e+10 -4.628019e+08
-7.187781e+09 2.088278e+10 -8.245260e+08
9.691208e+09 -2.782881e+10 4.840668e+08
-9.888758e+09 -2.807459e+10 6.321421e+08
-2.669760e+10 -4.377212e+09 -1.153082e+09
-2.765543e+10 -1.341625e+10 -3.292069e+08
-3.167247e+10 -1.087492e+10 -2.011999e+09
1.246004e+10 2.533456e+10 -8.920244e+08
-2.214005e+10 -4.183334e+09 5.417503e+08
1.056965e+10 1.828054e+10 1.255349e+09
2.107978e+09 2.977580e+10 9.486232e+07
2.191518e+10 -2.302369e+10 5.089819e+08
-2.481007e+10 -9.912079e+09 5.023224e+08
-2.437077e+10 -1.152161e+10 -1.163174e+08
-1.389224e+10 -2.774346e+10 4.841013e+08
1.370603e+10 -2.708224e+10 3.295956e+08
-2.531788e+08 2.056594e+10 -7.580926e+07
-1.774213e+10 2.468598e+10 9.847713e+07
-2.162660e+10 1.709298e+09 7.341316e+08
2.574322e+10 1.185487e+10 1.317416e+09
9.133585e+09 2.024535e+10 2.177857e+09
4.639991e+09 2.242286e+10 -3.291205e+08
1.807544e+10 -1.799317e+10 6.590809e+08
-1.846917e+10 -1.915139e+10 -2.391524e+08
-2.664585e+10 -6.791879e+09 -7.209294e+08
-7.550986e+09 2.328677e+10 -3.295287e+08
5.102317e+09 2.303928e+10 -7.353569e+08
-1.509351e+10 2.060307e+10 5.752600e+08
1.999940e+10 1.888626e+10 6.650413e+08
-2.047961e+10 -8.091428e+09 2.343000e+08
-2.351629e+10 1.254018e+10 -8.171321e+08
7.952144e+09 1.962492e+10 2.793269e+08
6.278992e+09 2.245799e+10 1.048248e+09
2.156464e+10 -8.331045e+08 1.508812e+08
2.266637e+10 -3.629373e+09 -5.236781e+06
3.384883e+08 2.729856e+10 -7.575785e+08
-2.673176e+10 1.498489e+10 2.521137e+08
-1.846349e+10 2.419981e+10 -2.997085e+07
-1.901043e+09 -2.804859e+10 8.916877e+08
3.082557e+09 -2.781226e+10 4.060787e+08
2.892342e+10 -4.660412e+09 4.947560e+08
-6.999592e+09 2.624846e+10 -2.302171e+08
8.103967e+09 1.920720e+10 2.723410e+08
1.638627e+10 2.538714e+10 -6.313057e+08
2.322811e+10 -1.512979e+10 6.611148e+08
-1.002802e+10 2.343803e+10 7.264649e+08
-2.575508e+10 -8.271612e+09 1.353154e+09
-2.096198e+10 -7.932773e+09 -1.546310e+08
1.693295e+10 -1.333762e+10 -8.349002e+08
-2.520130e+10 -4.296770e+09 -4.281392e+08
-2.220267e+09 2.512558e+10 6.839939e+08
5.663414e+08 -2.508287e+10 8.568304e+08
-9.770451e+08 -2.477028e+10 4.298331e+07
7.576437e+09 1.962470e+10 -2.443424e+08
-1.644354e+10 -1.899557e+10 -5.715098e+08
2.158506e+10 -1.782400e+10 -2.450595e+08
2.677784e+10 -1.818410e+09 3.563809e+08
2.948154e+10 -1.248904e+10 -6.077455e+08
1.362808e+10 -1.724394e+10 2.281308e+08
2.809377e+10 3.412748e+09 -1.753968e+08
-1.096804e+09 3.033566e+10 1.252826e+08
2.539947e+10 -1.169501e+10 2.295038e+08
2.088570e+10 1.887012e+10 1.398986e+09
-1.365217e+10 -1.707518e+10 -4.887781e+07
5.810891e+09 1.959669e+10 -1.324667e+08
-2.604293e+10 4.542964e+08 2.950578e+08
-3.023007e+10 6.532221e+09 3.569567e+08
2.441039e+10 1.088284e+10 1.442229e+09
2.760838e+10 2.677405e+09 4.133857e+08
-2.851824e+10 2.636796e+09 -6.726384e+08
-2.459340e+10 1.758218e+10 -8.116845e+08
-4.068284e+09 2.237566e+10 1.538557e+08
2.479206e+10 -1.384791e+10 1.190994e+09
-2.190927e+10 -3.660756e+09 3.484795e+08
-1.340599e+10 1.745326e+10 -5.345740e+08
7.174876e+09 2.086441e+10 3.019987e+08
1.173813e+09 2.260434e+10 2.898118e+08
-2.436073e+10 2.955897e+09 3.797581e+08
-1.650771e+10 -1.669914e+10 -5.048219e+08
1.693611e+10 2.657548e+10 6.450827e+08
-1.133846e+10 -2.388580e+10 -2.888544e+08
1.138845e+10 -2.384203e+10 -2.989315e+08
-2.380981e+10 -7.832685e+09 -7.179823e+08
-1.165053e+10 1.801400e+10 -1.869596e+08
5.462825e+09 3.159595e+10 1.743177e+08
2.044504e+10 -1.518433e+10 -1.141773e+09
6.683823e+09 2.219730e+10 1.260116e+09
2.118814e+10 -1.290308e+10 -6.996439e+08
-1.149064e+10 -1.990611e+10 -2.315127e+08
1.146083e+10 -1.988282e+10 -2.378629e+08
1.847131e+10 1.225289e+10 -6.787853e+08
2.182976e+10 -6.948066e+08 -3.560229e+08
2.143863e+10 6.015196e+09 -7.404334e+08
-2.357493e+10 -2.357180e+10 -2.437037e+09
1.513396e+10 1.549346e+10 -4.492899e+08
1.072280e+10 2.233470e+10 7.265366e+08
-2.861426e+10 1.818724e+09 5.047985e+08
4.092207e+09 2.108588e+10 6.768754e+08
3.329548e+10 -1.960108e+09 1.022419e+09
-2.727229e+10 -2.121581e+08 5.372319e+07
-2.699261e+10 -1.411540e+10 4.281064e+07
1.529215e+10 -1.976902e+10 2.236932e+08
8.402080e+09 -2.100166e+10 3.240195e+08
-9.065549e+09 -2.442634e+10 2.248708e+08
-2.608335e+10 7.904676e+09 6.071385e+08
6.089923e+09 -2.906085e+10 1.559720e+09
-6.289928e+09 -2.942180e+10 9.296845e+08
-8.509732e+09 -2.120418e+10 8.229370e+08
3.531530e+09 2.065247e+10 2.746094e+08
7.733782e+09 -1.998401e+10 -5.740456e+07
-1.491512e+10 -1.959873e+10 -8.236111e+07
2.020487e+10 -7.613494e+09 -5.559155e+08
7.916874e+09 -2.629228e+10 -2.080061e+08
-6.263906e+09 -2.502490e+10 1.986066e+08
-8.121700e+09 2.808941e+10 -7.577901e+08
1.822803e+10 2.012466e+10 -4.701805e+08
-1.789159e+10 1.888496e+10 -3.937665e+07
-2.920910e+10 -4.491495e+09 -3.282916e+07
1.427314e+10 -2.276060e+10 -7.102501e+08
3.449216e+09 2.056015e+10 8.430153e+07
-1.444699e+10 -2.282263e+10 -6.062768e+08
1.939709e+10 9.884190e+09 -3.911435e+08
-2.122696e+10 1.628613e+10 7.135686e+08
2.902536e+10 -3.084522e+09 3.541131e+08
2.100148e+10 4.633384e+09 1.153323e+09
1.445665e+10 1.699091e+10 1.086534e+09
8.500419e+09 2.005795e+10 -8.574342e+08
-4.085316e+09 -2.889365e+10 -2.582748e+08
4.269130e+09 -2.893119e+10 -1.772332e+08
-1.964117e+10 1.056736e+10 -2.869565e+08
5.871364e+09 2.431451e+10 2.264596e+08
1.332085e+10 2.298957e+10 1.418286e+08
-1.238111e+10 3.292492e+10 -4.855527e+08
-1.672514e+10 1.317541e+10 -4.924763e+07
2.492810e+10 -2.220643e+09 -1.436050e+08
-1.525857e+10 2.112961e+10 2.213006e+08
1.577230e+10 1.663769e+10 3.542440e+08
-2.594733e+10 1.109790e+10 -1.175156e+09
1.804302e+10 -1.747611e+10 -1.548634e+09
-2.935709e+10 -9.635992e+09 -6.561439e+08
1.010250e+10 1.927583e+10 1.117750e+09
3.296965e+09 3.119692e+10 -5.625383e+08
9.992892e+09 2.812140e+10 2.947536e+08
-1.996054e+10 -9.736757e+09 -9.833576e+08
3.795846e+10 -6.489060e+08 -7.286734e+08
-8.214195e+09 -2.984673e+10 1.101447e+09
6.914871e+09 -2.905377e+10 -8.167733e+08
2.881139e+10 1.238333e+09 5.547045e+08
-2.323545e+09 -3.217594e+10 8.836361e+07
2.706436e+09 -3.089883e+10 -3.048945e+08
-2.269239e+10 -1.185467e+10 -1.513901e+09
-2.287599e+10 -1.278712e+10 2.493191e+06
1.392791e+08 2.225957e+10 4.728504e+08
-1.048849e+10 2.115423e+10 1.509191e+08
6.456362e+09 2.635325e+10 1.684655e+09
9.961377e+09 -2.364228e+10 4.979840e+08
-7.453613e+09 -2.356777e+10 4.185362e+08
-1.541150e+10 1.628060e+10 -5.463459e+08
1.876127e+10 -9.396898e+09 5.171250e+07
-9.313759e+09 -3.468350e+10 -2.930547e+08
7.390753e+09 -3.010961e+10 -3.136814e+07
2.027454e+10 -1.723387e+10 -4.297342e+08
-1.465668e+10 -2.636534e+10 -2.612706e+08
8.067772e+08 2.359813e+10 2.914171e+09
1.465166e+10 -2.637838e+10 -2.043801e+08
-2.072825e+10 2.238587e+10 -6.741936e+07
-2.150010e+10 -2.007551e+10 4.020338e+08
-2.094628e+10 7.632460e+09 -7.320749e+07
2.184329e+10 -2.236455e+09 -5.770475e+08
-1.138791e+10 2.346368e+10 7.088691e+08
-1.218478e+10 2.330941e+10 -2.263345e+08
-1.353540e+10 -1.930601e+10 -5.053034e+08
1.334724e+10 -1.923844e+10 -2.340507e+08
2.093899e+09 -2.968528e+10 2.265756e+08
5.796035e+08 2.138963e+10 -9.090096e+08
-2.847456e+09 -2.977281e+10 -3.135566e+08
9.873263e+09 -2.721627e+10 -1.917849e+08
-9.485612e+09 -2.548699e+10 -3.044572e+08
-2.195806e+10 1.537213e+10 6.247585e+08
-9.285845e+09 1.953248e+10 -7.473707e+08
2.214692e+10 1.756973e+10 -5.833074e+08
2.550300e+10 5.399448e+09 -3.834299e+08
6.562286e+09 2.859041e+10 -4.691802e+08
-2.065888e+10 5.956683e+09 6.308246e+08
1.120080e+10 1.872108e+10 4.080176e+08
3.981328e+07 2.105568e+10 2.423588e+09
3.181730e+10 2.488151e+09 2.515216e+08
1.584626e+10 2.129505e+10 -5.131549e+08
2.253113e+10 1.495318e+09 -7.022644e+08
3.105808e+10 -1.026836e+10 -4.606987e+08
-5.400661e+09 3.144556e+10 -1.698389e+09
-6.484915e+09 2.742334e+10 -3.292082e+08
-1.438023e+10 1.692835e+10 -1.123158e+07
9.255540e+09 2.875562e+10 -9.454104e+08
-1.025748e+10 -1.968586e+10 -2.473446e+08
1.023684e+10 -1.965707e+10 -2.276395e+08
-1.900559e+09 2.121501e+10 -1.417469e+09
-2.504423e+10 -1.917026e+10 2.417661e+09
2.877851e+10 1.141042e+10 -7.819679e+08
2.399217e+10 2.030705e+10 -1.162340e+09
5.966438e+09 4.590898e+10 -1.934421e+08
2.061743e+10 -8.856282e+09 1.289790e+09
1.036318e+10 -2.594275e+10 5.682002e+08
-1.238942e+10 -2.467274e+10 1.103740e+09
7.519745e+09 2.480810e+10 5.384359e+08
-1.465097e+10 2.541088e+10 1.380694e+09
1.510908e+10 2.914424e+10 -5.141251e+08
-3.574770e+08 2.533449e+10 -4.674052e+08
2.422365e+10 -1.844166e+10 6.050916e+08
-2.812753e+10 1.475655e+10 1.572830e+09
-2.948118e+10 9.349600e+09 -1.161309e+09
-2.080796e+09 2.889811e+10 -5.287511e+08
-2.632151e+10 -5.738208e+09 -1.014723e+09
1.257508e+10 -2.692024e+10 1.398314e+07
-1.254717e+10 -2.690054e+10 1.992547e+07
-2.090463e+10 2.187732e+10 -8.922360e+08
-3.066114e+10 -3.448059e+09 1.284063e+09
-2.811488e+10 -4.254143e+09 -2.706721e+08
-2.937876e+09 2.979858e+10 -3.381482e+08
-6.032244e+09 -3.092232e+10 -8.912376e+08
6.027939e+09 -3.130147e+10 8.179508e+08
-4.858700e+09 2.118314e+10 -6.246263e+07
2.368991e+10 -8.089160e+09 1.048719e+09
-4.357561e+09 2.143866e+10 1.243302e+08
-2.116153e+10 4.840046e+09 2.906036e+08
-2.253319e+10 -1.893574e+09 5.367546e+08
-4.591613e+09 2.608804e+10 5.633191e+08
-2.179013e+10 2.594250e+09 1.091888e+08
-2.164187e+10 4.976954e+08 8.948204e+07
-4.008861e+09 2.145127e+10 3.813955e+07
-2.177661e+10 -1.449920e+09 1.750167e+08
-2.149418e+10 8.610214e+08 4.588082e+08
-2.162026e+10 2.320187e+09 -6.406770e+06
-2.165896e+10 4.083984e+09 3.552413e+08
-2.260048e+10 1.956445e+10 1.299294e+09
-2.181583e+10 -9.331559e+09 1.313430e+09
1.242564e+10 -2.602718e+10 -9.561450e+08
-1.234882e+10 -2.553939e+10 -8.889052e+08
-1.572066e+10 -2.310327e+10 1.849086e+08
1.559341e+10 -2.305939e+10 1.331926e+08
-4.053227e+09 2.204386e+10 -4.197525e+07
-2.915052e+10 6.784245e+09 2.450193e+07
2.005515e+10 1.089034e+10 1.248025e+09
2.538447e+10 -1.457409e+10 2.047923e+08
2.171025e+10 3.420203e+09 -1.709906e+08
-6.952843e+09 2.803350e+10 3.736430e+08
-8.779212e+08 2.515399e+10 -1.832815e+09
-2.215586e+10 1.442157e+10 -1.893866e+09
-1.400166e+10 2.189055e+10 1.817039e+08
-2.735326e+10 -1.091273e+10 -2.410684e+08
-7.938263e+09 -2.549956e+10 -5.307399e+08
-4.521338e+09 2.088319e+10 -4.520751e+08
7.310846e+09 -2.376081e+10 -1.306362e+09
1.639621e+10 -1.373241e+10 -6.874003e+08
-2.207614e+10 6.864331e+09 -3.230464e+08
1.113458e+10 1.957427e+10 -1.354751e+09
1.795397e+10 2.553083e+10 -2.751167e+08
-1.905670e+10 1.677938e+10 -1.678459e+08
-1.335852e+10 -2.264545e+10 9.217471e+08
1.340561e+10 -2.265075e+10 9.184538e+08
7.699920e+09 1.950294e+10 4.895383e+08
-1.945526e+10 -1.133265e+10 1.283391e+09
-4.281761e+09 2.057544e+10 -6.578169e+08
-6.371448e+09 -2.419234e+10 -1.247486e+09
-5.367563e+09 -2.148470e+10 3.143644e+08
6.756437e+09 -2.430014e+10 -7.063775e+08
5.734544e+09 -2.240665e+10 2.796246e+08
2.241819e+10 8.781767e+09 8.781102e+08
-1.110733e+10 -2.651321e+10 9.381730e+08
7.534007e+09 -2.722514e+10 1.550437e+08
-3.431278e+09 2.877230e+10 -3.181707e+08
2.018920e+10 1.639013e+10 1.086507e+09
3.063570e+10 -2.411963e+09 3.909611e+08
-5.676311e+09 2.013234e+10 -2.372411e+08
2.208870e+10 -1.673561e+10 7.473032e+08
2.207343e+10 2.338665e+09 6.578052e+08
1.102659e+10 2.689709e+10 -6.940442e+08
2.082632e+10 -1.273259e+10 -2.717280e+08
2.547133e+10 -1.215698e+10 -1.268172e+09
2.908943e+10 -1.466846e+10 1.281032e+09
-1.327722e+10 -2.269820e+10 3.079779e+08
1.325778e+10 -2.269425e+10 3.167444e+08
-2.454894e+10 -2.492759e+09 1.968596e+08
5.186979e+09 -2.833079e+10 9.153800e+07
-5.851150e+09 2.056337e+10 -3.145101e+08
-5.065136e+09 -2.813155e+10 6.811209e+07
2.153297e+10 -2.103292e+10 -1.384124e+09
2.962617e+10 6.760558e+09 1.648533e+09
5.142245e+09 2.331489e+10 1.134134e+09
1.695388e+10 1.379356e+10 -9.831092e+08
-2.290747e+10 1.703629e+10 1.274787e+09
2.144421e+10 -1.348120e+10 -2.101375e+08
-1.009074e+10 -2.314869e+10 -1.475035e+09
1.062786e+10 -2.234812e+10 -1.650070e+09
3.035324e+10 1.086596e+10 1.555764e+09
-7.276067e+09 1.925142e+10 -5.511479e+08
1.028033e+10 2.259309e+10 -1.584695e+09
-2.853893e+10 -6.752508e+09 -9.276532e+08
2.524071e+10 1.832897e+10 6.081289e+08
-1.857115e+10 -1.626263e+10 1.075759e+09
1.496138e+10 2.232200e+10 6.387829e+08
2.029636e+10 8.140346e+09 -8.542245e+08
2.817599e+10 1.650891e+10 1.751807e+08
2.276679e+10 -6.012570e+09 5.623027e+08
-2.887388e+10 -9.478217e+09 6.148630e+08
-2.136569e+10 1.147678e+10 9.054340e+08
-6.999021e+09 1.952210e+10 -3.424463e+08
8.284621e+09 2.317187e+10 2.745602e+08
-2.472790e+10 -1.767009e+10 -4.976498e+07
-7.414416e+09 2.489463e+10 1.535918e+09
2.599655e+10 -3.366250e+09 3.217122e+07
1.853740e+10 2.288953e+10 3.762390e+09
-2.604618e+10 8.303352e+09 2.474868e+09
-2.413812e+10 1.881101e+10 6.800948e+08
-1.075051e+10 1.909646e+10 -9.165268e+08
1.224855e+10 1.855777e+10 -1.942433e+09
-2.861617e+10 -5.839173e+09 8.924723e+08
-7.827847e+09 2.055449e+10 -2.008989e+09
2.642893e+10 -8.446565e+09 -1.487882e+09
2.184243e+10 1.150258e+10 -1.387974e+09
1.746422e+08 3.240681e+10 -6.880327e+08
2.212714e+10 1.593855e+09 -6.305967e+07
-1.612334e+10 -1.219804e+10 1.696837e+09
7.546122e+09 2.810975e+10 -1.174158e+09
-3.462240e+09 -2.793679e+10 4.353701e+08
3.534397e+09 -2.790306e+10 4.186199e+08
-1.169674e+10 2.899841e+10 5.968253e+06
2.353778e+10 -1.303495e+10 1.366867e+09
-8.802056e+09 2.094358e+10 -1.042818e+09
1.687150e+10 -2.335567e+10 1.096297e+08
-1.691240e+10 -2.337557e+10 9.611440e+07
2.867343e+10 2.162291e+08 -3.663227e+06
2.140065e+10 -6.362566e+09 9.912826e+08
-2.058293e+10 -1.426284e+10 1.338240e+08
2.534691e+10 5.548565e+09 -7.103076e+08
3.419307e+09 -2.225783e+10 1.492213e+09
-3.475482e+09 -2.256773e+10 1.441552e+09
2.196182e+10 -1.428232e+10 -4.934552e+07
8.798149e+09 -2.003013e+10 -2.307989e+08
-9.688112e+09 1.883374e+10 4.681362e+08
-7.290833e+09 -2.076846e+10 1.069231e+07
-2.459203e+10 -1.824923e+10 -1.010959e+09
3.347713e+10 -7.934917e+09 -2.069344e+08
1.927313e+10 2.451112e+10 -1.267293e+09
2.076914e+10 -1.805594e+10 1.951245e+08
1.880970e+10 1.809449e+10 -3.432021e+08
1.385139e+10 2.775261e+10 3.371715e+08
2.537995e+10 -8.039266e+09 5.162730e+07
-2.095317e+09 3.196165e+10 9.868010e+08
1.795344e+10 -2.461537e+10 3.914088e+08
-8.960869e+09 1.896499e+10 -1.481723e+08
-6.766030e+09 2.063920e+10 -4.566372e+07
2.543011e+10 -1.686440e+10 5.700889e+08
1.720868e+10 1.437403e+10 -1.317304e+09
2.125692e+10 2.131791e+10 3.818257e+08
2.338907e+10 1.363497e+10 -6.666463e+07
4.589641e+09 3.315555e+10 2.305459e+09
1.984831e+10 -8.858388e+09 1.161406e+08
1.759298e+10 2.585284e+10 -3.365118e+08
2.090071e+10 2.599705e+10 1.112493e+09
-2.375669e+09 -2.439394e+10 -1.387284e+09
-1.042180e+10 1.864788e+10 4.161201e+07
1.884720e+09 -2.376663e+10 8.019502e+06
-2.109195e+10 5.223289e+09 -5.030410e+08
-2.601924e+10 -1.567044e+10 -3.104165e+08
1.237517e+10 1.678215e+10 -5.809120e+08
-1.479108e+10 1.587794e+10 8.498158e+08
1.989018e+10 -2.010074e+10 -1.956406e+08
-1.953727e+10 -1.383753e+10 2.559396e+08
-1.553828e+09 2.982674e+10 5.529704e+08
2.838023e+09 3.078702e+10 3.282490e+09
-2.107055e+10 2.268311e+10 -3.232194e+08
-1.109305e+10 1.792917e+10 2.962520e+08
2.721908e+10 1.399281e+10 -1.310324e+09
2.299976e+09 2.904800e+10 7.768511e+08
-2.542283e+10 5.260232e+09 3.515493e+08
-2.594085e+10 3.912890e+09 3.435814e+08
3.922565e+09 -2.093019e+10 8.507574e+08
-4.295666e+09 -2.139512e+10 8.496078e+08
2.092582e+10 -7.180356e+09 3.639437e+08
-2.460845e+10 -1.624406e+10 -2.092268e+09
2.901227e+10 -3.385063e+09 -4.286944e+07
2.393106e+10 -8.045571e+09 -8.953318e+08
-1.138897e+10 1.755505e+10 3.371361e+07
1.836966e+10 -1.133075e+10 -9.205123e+08
1.880798e+10 2.103454e+10 -2.779880e+08
-1.987675e+10 -2.403249e+10 -8.156612e+08
-1.358040e+10 1.715697e+10 -7.861555e+08
-1.390022e+10 -1.626084e+10 4.438178e+08
1.459262e+10 -1.615907e+10 -5.563602e+08
1.710430e+10 2.323336e+10 -5.996326e+08
-2.126830e+10 1.321584e+10 6.160180e+08
1.010354e+10 2.860125e+10 1.153825e+08
1.953600e+10 -2.059325e+10 -4.546593e+08
-1.198382e+10 1.711996e+10 -5.069426e+08
2.117356e+10 -3.726226e+09 9.356211e+08
-1.612596e+10 1.443539e+10 -9.530861e+08
-2.623638e+10 2.494731e+09 7.038849e+08
-2.627456e+10 3.098645e+09 -4.377048e+08
-2.242584e+09 3.126438e+10 3.905832e+08
2.059024e+10 2.185439e+10 -2.017020e+09
1.727140e+10 -1.479229e+10 6.737144e+08