# vtk DataFile Version 2.0
Electric current density generated by TTH
ASCII
DATASET UNSTRUCTURED_GRID
POINTS 15524 double
4.293317e-05 -1.051559e-20 -8.578682e-23
4.288750e-05 1.979570e-06 -8.578682e-23
3.752468e-05 2.086037e-05 -8.578682e-23
1.701244e-05 -3.941870e-05 -8.578682e-23
-3.114943e-05 2.945158e-05 2.031953e-07
-4.283021e-05 -1.804346e-06 2.031953e-07
-2.756566e-05 -3.283012e-05 2.031953e-07
-4.177230e-05 -9.631061e-06 2.031953e-07
-3.290065e-05 2.748144e-05 2.031953e-07
-3.229847e-06 4.274635e-05 2.031953e-07
-2.332952e-05 -3.596409e-05 2.031953e-07
2.039054e-06 4.281968e-05 2.031953e-07
-2.549579e-05 -3.446226e-05 2.031953e-07
1.113783e-05 4.139603e-05 2.031953e-07
1.721424e-05 -3.933099e-05 -8.578682e-23
-1.324381e-05 4.077112e-05 2.031953e-07
-5.965247e-07 4.286405e-05 2.031953e-07
4.666922e-06 4.261341e-05 2.031953e-07
-2.927947e-05 3.131125e-05 2.032066e-07
-1.843017e-05 3.870415e-05 2.031953e-07
-3.801117e-05 1.982004e-05 2.031953e-07
-3.875125e-05 -1.833094e-05 2.031953e-07
-4.015570e-05 1.500675e-05 2.031953e-07
-4.281431e-05 2.148771e-06 2.031953e-07
-4.885251e-06 -4.258893e-05 2.031953e-07
1.741558e-05 -3.924225e-05 -8.578682e-23
-1.386906e-05 -4.056269e-05 2.031953e-07
1.859201e-05 -3.793421e-05 -9.329488e-08
-4.258736e-05 -4.985629e-06 -1.883715e-07
-1.952292e-05 -3.817585e-05 -1.883715e-07
1.329826e-05 -4.051375e-05 -3.454941e-07
4.279924e-05 -2.714011e-06 -1.769122e-07
4.279934e-05 2.711572e-06 1.769927e-07
-3.108492e-05 -2.953411e-05 -1.884385e-07
-4.182870e-05 9.428463e-06 -1.884385e-07
-4.098107e-05 -1.261300e-05 -1.884385e-07
1.761646e-05 -3.915248e-05 -8.578682e-23
3.741293e-05 -2.006413e-05 3.254513e-07
3.729304e-05 -2.021867e-05 3.107283e-07
3.741293e-05 2.006413e-05 -3.254513e-07
3.729304e-05 2.021867e-05 -3.107283e-07
3.405335e-05 -2.563633e-05 3.477680e-07
-1.382048e-05 4.058705e-05 -1.924302e-07
-1.233662e-05 -4.106243e-05 -1.924148e-07
2.252166e-05 -3.626907e-05 -3.325840e-07
4.222827e-05 1.941010e-06 -1.629051e-07
4.222827e-05 -1.941010e-06 1.629051e-07
1.781688e-05 -3.906169e-05 -8.578682e-23
3.365484e-05 -2.551391e-05 -9.008186e-09
-3.806616e-05 -1.844378e-05 2.051007e-07
-2.283157e-06 4.223733e-05 2.051007e-07
4.212144e-06 4.208875e-05 2.051007e-07
-1.854126e-05 3.801877e-05 2.051007e-07
-2.837266e-05 3.137192e-05 2.051007e-07
-2.483865e-05 -3.423809e-05 2.051007e-07
-3.100583e-05 2.877227e-05 2.051007e-07
-1.312001e-05 -4.021281e-05 2.051007e-07
-5.520179e-06 -4.193725e-05 2.051007e-07
1.801684e-05 -3.896986e-05 -8.578682e-23
4.055553e-05 1.292907e-05 -3.498689e-07
2.098533e-05 -3.665114e-05 -2.764165e-08
4.222393e-05 7.530019e-06 -1.682407e-07
9.970020e-06 -4.140354e-05 -3.502272e-07
2.946764e-05 -3.074596e-05 3.502270e-07
2.946764e-05 3.074596e-05 -3.502270e-07
4.007234e-05 -1.441849e-05 3.502227e-07
2.812084e-06 -4.249444e-05 -3.502227e-07
1.843708e-05 -3.841854e-05 3.489137e-07
3.110115e-05 -2.924935e-05 -3.320579e-07
1.821632e-05 -3.887702e-05 -8.578682e-23
3.110015e-05 2.925035e-05 3.320712e-07
4.153728e-05 -1.067556e-05 1.734248e-07
1.992943e-05 -3.796684e-05 -1.861009e-07
1.995987e-05 3.795141e-05 1.852962e-07
1.692389e-05 -3.894699e-05 -3.298480e-07
1.024304e-05 -4.111113e-05 -2.765387e-07
2.955586e-05 3.035598e-05 -2.764448e-07
2.955586e-05 -3.035598e-05 2.764448e-07
5.392697e-07 -4.262257e-05 -3.475940e-07
2.180011e-05 3.642682e-05 3.247966e-07
1.841532e-05 -3.878315e-05 -8.578682e-23
-3.585739e-05 -2.303277e-05 -3.485284e-07
2.082926e-05 -3.686474e-05 2.544876e-07
3.566815e-05 -2.280563e-05 -2.481417e-07
-1.548018e-05 -3.967352e-05 -3.502311e-07
-3.688949e-05 2.127886e-05 -3.502311e-07
-4.113518e-05 -1.102366e-05 -3.502311e-07
-3.441354e-05 2.508651e-05 -3.502311e-07
-2.624974e-05 3.353469e-05 -3.502311e-07
-1.112904e-05 4.110680e-05 -3.502311e-07
-3.843169e-05 1.834748e-05 -3.502311e-07
1.861384e-05 -3.868826e-05 -8.578682e-23
-4.240740e-05 -3.903431e-06 -3.502311e-07
-3.013799e-05 -3.008863e-05 -3.502311e-07
-7.295029e-06 4.195720e-05 -3.502311e-07
-5.313686e-06 4.225386e-05 -3.502311e-07
6.433443e-06 4.209792e-05 -3.502311e-07
-4.186751e-05 -7.793331e-06 -3.502311e-07
-4.258666e-05 1.966193e-08 -3.502311e-07
-4.037989e-05 -1.353102e-05 -3.502311e-07
-4.129980e-05 1.038994e-05 -3.502311e-07
-2.745936e-06 -4.249805e-05 -3.502311e-07
1.881187e-05 -3.859236e-05 -8.578682e-23
-1.844590e-05 -3.838454e-05 -3.502311e-07
-2.190338e-05 -3.652213e-05 -3.502311e-07
-2.462216e-05 3.484715e-05 -3.397112e-07
-1.103118e-05 -4.121756e-05 -3.397112e-07
-1.497555e-05 3.995382e-05 -3.397112e-07
-3.279063e-05 -2.730109e-05 -3.397112e-07
-3.516613e-05 -2.416439e-05 -3.397112e-07
4.069598e-05 -1.298999e-05 -3.227854e-07
2.082972e-05 3.686124e-05 -2.517879e-07
-1.778973e-05 -3.831951e-05 1.011829e-07
3.741728e-05 2.105241e-05 -8.578682e-23
1.900941e-05 -3.849544e-05 -8.578682e-23
-3.130054e-05 -2.837492e-05 1.011829e-07
-3.285914e-06 -4.211962e-05 1.011829e-07
-4.211764e-05 -3.311124e-06 1.011829e-07
-4.224358e-05 5.827588e-07 1.011829e-07
-4.065824e-05 -1.147898e-05 1.011829e-07
-4.206176e-05 3.958259e-06 1.011829e-07
-2.648196e-05 3.291755e-05 1.011829e-07
-4.712057e-06 4.198400e-05 1.011829e-07
-3.987587e-05 -1.395616e-05 1.011829e-07
-1.158313e-05 4.062869e-05 1.011829e-07
1.920644e-05 -3.839752e-05 -8.578682e-23
-3.836497e-05 1.769148e-05 1.011829e-07
-1.648031e-05 3.890063e-05 1.011829e-07
-4.141973e-05 8.322587e-06 1.011829e-07
-3.446830e-05 2.442940e-05 1.011829e-07
-7.791234e-06 4.152296e-05 1.011829e-07
-2.949742e-05 -3.024502e-05 1.011829e-07
-3.378130e-05 -2.537092e-05 1.011829e-07
-1.588029e-05 -3.914940e-05 1.011829e-07
1.689588e-06 -4.222354e-05 1.291164e-07
3.282053e-05 -2.762394e-05 -1.522249e-07
1.940298e-05 -3.829858e-05 -8.578682e-23
-4.171968e-05 9.967081e-06 -1.614068e-07
-3.071526e-05 -2.994073e-05 -1.614068e-07
-4.083101e-05 -1.314165e-05 -1.614068e-07
-3.311108e-05 -2.674541e-05 -3.497189e-07
-2.259307e-06 -4.280916e-05 2.024358e-07
-3.069277e-05 -2.992796e-05 2.024358e-07
-4.252372e-05 -5.427852e-06 2.024452e-07
-1.662546e-05 -3.951358e-05 2.024358e-07
-3.915762e-05 1.744733e-05 2.024358e-07
-3.529429e-05 2.433189e-05 2.024452e-07
1.959900e-05 -3.819864e-05 -8.578682e-23
-6.841136e-06 4.231935e-05 2.024452e-07
-8.449263e-06 4.202783e-05 2.024358e-07
-3.394046e-05 -2.618727e-05 2.024452e-07
-2.952969e-05 -3.107613e-05 2.024452e-07
-1.991834e-05 -3.796036e-05 2.024358e-07
-2.730317e-05 3.304944e-05 2.024452e-07
-4.191538e-05 8.990494e-06 2.024452e-07
-4.080627e-05 -1.313684e-05 2.024452e-07
-2.602357e-05 3.406615e-05 2.024358e-07
-4.027588e-05 -1.468272e-05 2.024358e-07
1.979451e-05 -3.809769e-05 -8.578682e-23
-7.494445e-06 -4.220855e-05 2.024358e-07
-4.266319e-05 -4.441459e-06 -1.614067e-07
-1.903935e-05 -3.843667e-05 -1.614067e-07
3.277253e-05 -2.701382e-05 -3.318871e-07
1.813197e-05 3.816984e-05 -1.297957e-07
-1.407604e-06 -4.260290e-05 -3.475726e-07
4.053274e-05 -1.186149e-05 -2.170954e-10
4.287559e-05 -4.332534e-07 1.890311e-07
4.287771e-05 4.432291e-07 -1.855166e-07
1.825230e-05 3.814679e-05 1.898468e-07
1.998949e-05 -3.799575e-05 -8.578682e-23
4.243381e-05 6.239783e-06 -1.682106e-07
1.494216e-05 -3.977381e-05 -3.371246e-07
9.582785e-06 -4.180264e-05 -1.738999e-07
2.933503e-05 -3.128491e-05 1.739095e-07
2.933413e-05 3.128577e-05 -1.738928e-07
4.141895e-05 9.279722e-06 3.222815e-07
2.002131e-06 -4.240050e-05 -3.231164e-07
-4.246129e-05 6.026213e-06 -1.741822e-07
1.498861e-05 3.999124e-05 -3.272244e-07
4.171290e-05 9.026306e-06 -3.370041e-07
2.018396e-05 -3.789280e-05 -8.578682e-23
2.211598e-05 -3.624218e-05 3.269039e-07
2.112552e-05 3.706892e-05 -3.402394e-07
3.445190e-05 2.555295e-05 1.611269e-07
-4.236201e-05 4.576862e-06 -3.493130e-07
4.196761e-05 -7.715800e-06 3.389944e-07
9.190817e-06 -4.189044e-05 -1.740983e-07
2.903975e-05 -3.155905e-05 1.740977e-07
2.903975e-05 3.155905e-05 -1.740977e-07
3.930111e-05 1.716695e-05 -1.740740e-07
3.930111e-05 -1.716695e-05 1.740740e-07
2.037789e-05 -3.778887e-05 -8.578682e-23
1.359876e-05 -4.067930e-05 -1.645787e-07
3.945046e-05 -1.682091e-05 1.740691e-07
3.945046e-05 1.682091e-05 -1.740691e-07
5.666641e-06 -4.251083e-05 -1.740681e-07
2.630776e-05 3.387010e-05 -1.740681e-07
2.630776e-05 -3.387010e-05 1.740681e-07
5.292853e-06 -4.255899e-05 -1.740681e-07
2.600911e-05 -3.409997e-05 1.740681e-07
2.600911e-05 3.409997e-05 -1.740681e-07
4.071540e-05 1.347359e-05 -1.740681e-07
2.057129e-05 -3.768393e-05 -8.578682e-23
2.307585e-05 -3.614951e-05 1.740681e-07
2.307585e-05 3.614951e-05 -1.740681e-07
2.440916e-05 -3.526294e-05 1.740681e-07
2.440916e-05 3.526294e-05 -1.740681e-07
3.300278e-06 -4.275991e-05 -1.736590e-07
2.471810e-05 -3.504708e-05 1.740681e-07
2.471810e-05 3.504708e-05 -1.740681e-07
3.700517e-06 -4.272690e-05 -1.740681e-07
4.018408e-05 1.498403e-05 -1.740681e-07
4.019336e-05 -1.495977e-05 1.736738e-07
2.076414e-05 -3.757801e-05 -8.578682e-23
4.005086e-05 1.533658e-05 -1.740680e-07
4.005086e-05 -1.533658e-05 1.740680e-07
2.755374e-05 -3.286447e-05 1.740676e-07
2.755374e-05 3.286447e-05 -1.740676e-07
7.249541e-06 -4.226968e-05 -1.740676e-07
2.063449e-05 -3.719494e-05 -3.469900e-07
2.784147e-05 -3.262108e-05 1.740656e-07
2.784147e-05 3.262108e-05 -1.740656e-07
7.620706e-06 -4.220435e-05 -1.740655e-07
2.734403e-05 3.241295e-05 3.024708e-07
3.730890e-05 2.124389e-05 -8.578682e-23
2.095646e-05 -3.747110e-05 -8.578682e-23
2.734403e-05 -3.241295e-05 -3.024708e-07
7.295811e-06 -4.177400e-05 3.024708e-07
3.544314e-05 2.307803e-05 -1.985032e-07
3.863297e-05 -1.862200e-05 1.739983e-07
3.863297e-05 1.862200e-05 -1.739983e-07
-3.335602e-05 -2.593985e-05 -1.235458e-07
-2.901217e-05 -3.071760e-05 -1.162979e-07
-4.128581e-05 8.986566e-06 -1.162979e-07
-4.212473e-05 3.283844e-06 -1.162979e-07
-4.046487e-05 -1.216507e-05 -1.201765e-07
2.114822e-05 -3.736321e-05 -8.578682e-23
-1.223439e-05 4.044251e-05 -1.162979e-07
-8.456874e-06 4.139756e-05 -1.162979e-07
-3.488074e-05 2.384802e-05 -1.201765e-07
-3.864817e-05 1.707617e-05 -1.162979e-07
-3.082202e-05 -2.890324e-05 -1.201765e-07
-1.710380e-05 3.863595e-05 -1.162979e-07
[...]
POINT_DATA 15524
VECTORS 10.000GHz_fone_imag double
-1.004645e-05 1.290529e-04 2.734198e-02
2.398834e-04 -1.257891e-04 2.722119e-02
2.787243e-04 2.107991e-04 2.728530e-02
4.571817e-05 1.484991e-04 2.740009e-02
1.210040e-02 -1.134120e-02 2.221662e-02
1.663208e-02 6.935719e-04 2.216932e-02
1.065068e-02 1.278928e-02 2.220929e-02
1.619540e-02 3.735240e-03 2.228193e-02
1.288241e-02 -1.062847e-02 2.224003e-02
1.307643e-03 -1.648928e-02 2.214158e-02
9.048585e-03 1.407710e-02 2.217353e-02
-7.180942e-04 -1.661874e-02 2.222238e-02
9.805675e-03 1.337381e-02 2.221992e-02
-4.405675e-03 -1.603075e-02 2.220738e-02
-8.187155e-05 3.331759e-04 2.735305e-02
5.124324e-03 -1.584487e-02 2.216004e-02
2.901780e-04 -1.664037e-02 2.225177e-02
-1.822636e-03 -1.640502e-02 2.222254e-02
1.133072e-02 -1.208127e-02 2.219780e-02
7.243767e-03 -1.498343e-02 2.211985e-02
1.486574e-02 -7.688810e-03 2.216613e-02
1.495148e-02 7.059309e-03 2.221795e-02
1.556715e-02 -5.790446e-03 2.216271e-02
1.664886e-02 -7.056337e-04 2.209113e-02
1.826450e-03 1.643809e-02 2.213756e-02
-3.493461e-04 4.311638e-04 2.743062e-02
5.360845e-03 1.563225e-02 2.220796e-02
3.370712e-03 -6.675015e-03 -2.807927e-02
-1.480772e-02 -1.760427e-03 2.293123e-02
-6.786256e-03 -1.335093e-02 2.292873e-02
8.495273e-03 -2.635326e-02 4.310092e-03
1.386114e-02 -8.923027e-04 2.351538e-02
-1.393906e-02 -8.881006e-04 2.343919e-02
-1.081550e-02 -1.044812e-02 2.288619e-02
-1.455095e-02 3.263238e-03 2.295075e-02
-1.434051e-02 -4.540416e-03 2.288787e-02
2.450253e-04 -1.287426e-04 2.743107e-02
-2.300663e-02 1.251475e-02 -1.100182e-02
-2.206000e-02 1.203531e-02 -1.334914e-02
2.300960e-02 1.251898e-02 -1.100179e-02
2.206550e-02 1.203784e-02 -1.334693e-02
-2.226950e-02 1.690139e-02 2.990722e-03
-5.055505e-03 1.495121e-02 2.284646e-02
-4.575092e-03 -1.500710e-02 2.292452e-02
1.397201e-02 -2.268201e-02 8.377734e-03
1.311189e-02 6.403661e-04 -2.597124e-02
-1.309973e-02 6.530334e-04 -2.597963e-02
-3.401472e-04 7.438136e-04 2.743083e-02
4.228460e-04 -5.365020e-04 -2.908887e-02
1.518456e-02 7.042349e-03 -2.340406e-02
7.149182e-04 -1.673099e-02 -2.342586e-02
-1.929798e-03 -1.663969e-02 -2.339447e-02
7.195949e-03 -1.509934e-02 -2.339902e-02
1.136780e-02 -1.233665e-02 -2.343668e-02
9.937539e-03 1.345694e-02 -2.341237e-02
1.216699e-02 -1.148279e-02 -2.341146e-02
5.010117e-03 1.595011e-02 -2.344523e-02
2.005985e-03 1.658697e-02 -2.342844e-02
-8.087338e-05 -2.077975e-04 2.735841e-02
2.694629e-02 8.683803e-03 -1.666532e-03
9.744221e-04 -1.915555e-03 -2.922704e-02
1.346570e-02 2.465805e-03 2.392932e-02
6.696684e-03 -2.725021e-02 3.444026e-05
-1.950227e-02 2.017168e-02 2.234621e-05
1.950139e-02 2.016982e-02 2.259602e-05
-2.641963e-02 9.365349e-03 7.183512e-05
1.760570e-03 -2.813251e-02 -4.521354e-04
-1.218975e-02 2.522158e-02 1.569580e-03
1.919167e-02 -1.828873e-02 8.433599e-03
-6.321886e-05 -5.937962e-06 2.720450e-02
-1.918141e-02 -1.831967e-02 8.376339e-03
-1.305658e-02 3.518722e-03 2.352758e-02
6.794777e-03 -1.305865e-02 2.294547e-02
-6.773091e-03 -1.306001e-02 2.297442e-02
1.085414e-02 -2.469230e-02 -9.941148e-03
5.391025e-03 -2.192352e-02 -1.797756e-02
1.567984e-02 1.619209e-02 -1.800043e-02
-1.568246e-02 1.619412e-02 -1.799852e-02
2.838390e-04 -2.771843e-02 2.884517e-03
-1.319447e-02 -2.251064e-02 -1.137797e-02
-2.820021e-05 2.871551e-04 2.740252e-02
-2.362777e-02 -1.527791e-02 1.980138e-03
-1.015840e-02 1.804508e-02 -1.998521e-02
1.680144e-02 -1.085614e-02 -2.060496e-02
-1.008412e-02 -2.608654e-02 -5.454376e-04
-2.439130e-02 1.408505e-02 -6.330989e-04
-2.711965e-02 -7.138489e-03 -4.964579e-04
-2.256594e-02 1.660816e-02 -5.083112e-04
-1.718930e-02 2.211338e-02 -5.475801e-04
-7.210728e-03 2.708329e-02 -5.087802e-04
-2.518651e-02 1.210564e-02 -5.123263e-04
-7.224932e-05 1.549939e-04 2.720142e-02
-2.789213e-02 -2.658439e-03 -5.393332e-04
-1.989802e-02 -1.973709e-02 -5.483463e-04
-4.707571e-03 2.754252e-02 -5.331763e-04
-3.617767e-03 2.775601e-02 -5.142914e-04
4.105268e-03 2.772472e-02 -5.062987e-04
-2.752534e-02 -5.253348e-03 -5.082204e-04
-2.803177e-02 -1.072208e-04 -5.009115e-04
-2.654860e-02 -8.821948e-03 -5.346495e-04
-2.719632e-02 6.726408e-03 -5.415200e-04
-1.849814e-03 -2.807668e-02 -5.691298e-04
-6.359942e-05 5.913527e-04 2.735995e-02
-1.222155e-02 -2.521831e-02 -5.426048e-04
-1.446673e-02 -2.391116e-02 -6.048854e-04
-1.578111e-02 2.249493e-02 6.424537e-03
-7.016950e-03 -2.659489e-02 6.383713e-03
-9.745789e-03 2.571053e-02 6.390022e-03
-2.104194e-02 -1.765599e-02 6.436403e-03
-2.259344e-02 -1.564201e-02 6.434533e-03
2.472426e-02 -7.930287e-03 1.041473e-02
1.012255e-02 1.781674e-02 -2.022606e-02
3.596984e-03 7.635863e-03 -2.777205e-02
1.326275e-05 2.634754e-04 2.729068e-02
-3.233641e-04 3.002815e-04 2.738609e-02
6.365692e-03 5.537527e-03 -2.775673e-02
5.837403e-04 8.278901e-03 -2.778645e-02
8.383634e-03 7.233345e-04 -2.776923e-02
8.429571e-03 -6.785328e-05 -2.778482e-02
8.123526e-03 2.237186e-03 -2.778065e-02
8.337975e-03 -8.383934e-04 -2.776720e-02
5.262803e-03 -6.607166e-03 -2.778422e-02
9.768245e-04 -8.309033e-03 -2.777480e-02
7.885924e-03 2.689999e-03 -2.780460e-02
2.245231e-03 -8.095126e-03 -2.776505e-02
-3.270440e-04 3.897787e-04 2.717154e-02
7.512027e-03 -3.521677e-03 -2.782493e-02
3.189616e-03 -7.781978e-03 -2.777323e-02
8.265706e-03 -1.564391e-03 -2.777395e-02
6.804300e-03 -4.908836e-03 -2.775993e-02
1.484546e-03 -8.185544e-03 -2.781971e-02
5.927309e-03 6.008089e-03 -2.777823e-02
6.804970e-03 4.949693e-03 -2.774338e-02
3.050700e-03 7.733171e-03 -2.778890e-02
-3.640800e-04 1.066586e-02 -2.688126e-02
9.359310e-03 -8.068359e-03 2.451925e-02
-2.096300e-04 -3.255694e-04 2.743681e-02
-1.279450e-02 2.951594e-03 2.425157e-02
-9.445633e-03 -9.018263e-03 2.432153e-02
-1.248046e-02 -3.848332e-03 2.431345e-02
-2.198156e-02 -1.778278e-02 -2.577589e-03
9.659570e-04 1.655516e-02 2.216872e-02
1.179397e-02 1.169470e-02 2.209491e-02
1.621180e-02 1.932320e-03 2.232774e-02
6.305960e-03 1.509341e-02 2.226846e-02
1.496694e-02 -6.544939e-03 2.232647e-02
1.350791e-02 -9.246042e-03 2.226201e-02
1.226944e-05 -3.685965e-04 2.722992e-02
2.768397e-03 -1.629687e-02 2.222954e-02
3.333514e-03 -1.598900e-02 2.231813e-02
1.288575e-02 1.002787e-02 2.227696e-02
1.118182e-02 1.184539e-02 2.233928e-02
7.545831e-03 1.454660e-02 2.230311e-02
1.043058e-02 -1.250960e-02 2.229107e-02
1.587792e-02 -3.477819e-03 2.234454e-02
1.573870e-02 5.261681e-03 2.211515e-02
1.014641e-02 -1.308528e-02 2.216339e-02
1.530983e-02 5.698677e-03 2.233216e-02
4.682421e-04 -4.335944e-04 2.738962e-02
2.687352e-03 1.611470e-02 2.231858e-02
-1.306498e-02 -1.445235e-03 2.423884e-02
-5.898446e-03 -1.169838e-02 2.427914e-02
2.060228e-02 -1.706451e-02 -9.377330e-03
4.768076e-03 9.866038e-03 -2.697855e-02
-7.629448e-04 -2.758724e-02 2.984292e-03
-3.182734e-04 1.576635e-04 -2.899598e-02
-1.530272e-02 1.589540e-04 2.310801e-02
1.513318e-02 1.065510e-04 2.321801e-02
-6.888600e-03 -1.426859e-02 -2.446006e-02
1.315081e-04 8.458956e-05 2.721950e-02
1.349665e-02 1.901972e-03 2.385663e-02
9.765005e-03 -2.520977e-02 -8.066188e-03
2.959356e-03 -1.339696e-02 2.373493e-02
-9.283946e-03 1.008951e-02 2.370990e-02
9.304918e-03 1.008345e-02 2.372892e-02
-2.536105e-02 -5.710421e-03 -1.161895e-02
1.226580e-03 -2.577541e-02 -1.142699e-02
-1.398054e-02 2.054262e-03 2.375222e-02
9.035895e-03 2.473800e-02 9.289688e-03
2.640190e-02 5.753763e-03 7.295085e-03
5.262805e-05 -1.318495e-04 2.731392e-02
-1.386682e-02 2.267066e-02 -1.054031e-02
1.354301e-02 2.370847e-02 6.407048e-03
-1.044505e-02 -8.007303e-03 2.414738e-02
-2.799988e-02 2.937149e-03 1.236641e-03
-2.675100e-02 4.929431e-03 6.645349e-03
2.967655e-03 -1.329581e-02 2.376324e-02
-9.262287e-03 9.963678e-03 2.373998e-02
9.260993e-03 9.990387e-03 2.375677e-02
1.255620e-02 5.453037e-03 2.368713e-02
-1.254246e-02 5.430273e-03 2.367612e-02
4.295223e-05 7.645698e-06 2.722715e-02
4.335253e-03 -1.253930e-02 2.376617e-02
-1.252220e-02 5.330764e-03 2.370747e-02
1.254696e-02 5.323684e-03 2.371762e-02
1.773812e-03 -1.357613e-02 2.369275e-02
8.372986e-03 1.083171e-02 2.368422e-02
-8.350298e-03 1.082395e-02 2.367316e-02
1.654857e-03 -1.351962e-02 2.371527e-02
-8.247560e-03 1.082698e-02 2.370458e-02
8.242468e-03 1.084662e-02 2.371443e-02
1.330548e-02 4.534610e-03 2.358042e-02
-2.403937e-05 -3.663427e-05 2.718070e-02
-7.683578e-03 1.193113e-02 2.349303e-02
7.360289e-03 1.164239e-02 2.365716e-02
-7.969304e-03 1.121737e-02 2.363425e-02
7.971105e-03 1.124597e-02 2.364429e-02
1.093217e-03 -1.371567e-02 2.358499e-02
-7.725642e-03 1.120367e-02 2.370372e-02
7.753447e-03 1.120811e-02 2.372181e-02
1.122987e-03 -1.368743e-02 2.360472e-02
1.287062e-02 4.969068e-03 2.361744e-02
-1.288827e-02 4.863064e-03 2.368235e-02
2.426418e-05 -7.475114e-05 2.721805e-02
1.276828e-02 4.768428e-03 2.371259e-02
-1.277052e-02 4.736721e-03 2.371323e-02
-8.977176e-03 1.042797e-02 2.365389e-02
8.964403e-03 1.045279e-02 2.367454e-02
2.477497e-03 -1.354237e-02 2.368061e-02
1.366417e-02 -2.445955e-02 -4.291051e-03
-8.738712e-03 1.046016e-02 2.371322e-02
8.764108e-03 1.046029e-02 2.373668e-02
2.299930e-03 -1.344764e-02 2.374187e-02
-1.633326e-02 -1.896190e-02 -1.418278e-02
2.423124e-04 -1.303872e-04 2.738994e-02
1.626511e-04 -1.655367e-04 2.728541e-02
1.633181e-02 -1.894648e-02 -1.418624e-02
-4.559394e-03 2.460397e-02 -1.418226e-02
1.333930e-02 8.570734e-03 -2.386806e-02
-1.231551e-02 6.143326e-03 2.361174e-02
1.234293e-02 6.134794e-03 2.362458e-02
-8.245105e-03 -6.341234e-03 -2.724510e-02
-6.848432e-03 -7.058079e-03 -2.729548e-02
-9.698341e-03 1.962244e-03 -2.737980e-02
-9.845935e-03 8.262255e-04 -2.727141e-02
-9.771241e-03 -2.816574e-03 -2.721432e-02
-7.597063e-05 2.186007e-04 2.730600e-02
-2.797981e-03 9.468904e-03 -2.729773e-02
-1.877411e-03 9.670333e-03 -2.732924e-02
-8.228200e-03 5.753137e-03 -2.732318e-02
-8.974259e-03 4.067729e-03 -2.732084e-02
-7.502262e-03 -6.867320e-03 -2.722415e-02
-3.932997e-03 9.070376e-03 -2.729756e-02
-1.037266e-03 9.802855e-03 -2.731952e-02
-6.211047e-03 7.571854e-03 -2.731059e-02
-9.283400e-03 -3.307408e-03 -2.732038e-02
-9.873865e-03 2.253303e-04 -2.727916e-02
-1.015063e-04 2.224693e-05 2.740726e-02
-9.850682e-03 -6.770302e-04 -2.730944e-02
-4.048884e-03 -8.950726e-03 -2.731589e-02
-8.222334e-04 -9.830452e-03 -2.731434e-02
-3.916649e-03 -9.298921e-03 -2.735425e-02
-2.333703e-02 -9.021798e-03 -1.425979e-02
1.446376e-02 -2.038823e-02 -1.423773e-02
-1.446226e-02 -2.039240e-02 -1.424173e-02
2.178909e-02 -1.546058e-02 8.249445e-03
-7.327534e-03 -1.727601e-02 -2.186878e-02
-2.228764e-02 -1.106125e-02 -1.427689e-02
4.240474e-05 3.911852e-04 2.736296e-02
2.229726e-02 -1.106405e-02 -1.427288e-02
-3.491005e-03 -1.155599e-02 -2.654772e-02
-3.873900e-03 1.140988e-02 -2.653468e-02
1.772650e-02 -5.060112e-03 -2.220028e-02
2.318281e-02 -8.935370e-03 -1.417715e-02
-1.666138e-02 1.097418e-02 -2.083467e-02
-1.761974e-03 -9.707184e-03 -2.732425e-02
-8.288706e-03 5.435481e-03 -2.731266e-02
2.052058e-03 9.637296e-03 -2.724125e-02
-9.773308e-03 -1.294150e-03 -2.734773e-02
-1.826769e-04 1.249680e-04 2.727759e-02
-4.707983e-03 -8.927796e-03 -2.733607e-02
-9.355447e-03 3.204804e-03 -2.729372e-02
-4.709293e-03 8.653406e-03 -2.726637e-02
8.444103e-03 -1.633748e-02 -2.254030e-02
-8.325637e-03 -1.630068e-02 -2.254370e-02
-1.912036e-03 -1.295307e-02 2.394318e-02
-5.746948e-03 1.180943e-02 2.392538e-02
-1.663254e-02 -1.818138e-02 -1.452004e-02
1.662304e-02 -1.818371e-02 -1.452091e-02
-5.211560e-03 2.408138e-02 -1.452908e-02
-8.761884e-05 3.122167e-04 2.733804e-02
3.274050e-03 7.755632e-03 -2.746917e-02
2.595112e-02 -5.839605e-03 8.131156e-03
-2.440939e-02 1.354078e-02 1.506967e-03
2.442662e-02 1.355526e-02 1.505597e-03
1.234923e-02 5.981894e-03 2.364662e-02
-1.234209e-02 5.964693e-03 2.362775e-02
7.724722e-03 1.407721e-02 -2.404945e-02
-1.353363e-02 2.369480e-02 6.455294e-03
-1.362261e-02 2.402353e-02 -6.256802e-03
6.711701e-05 2.374434e-02 -1.598092e-02
-1.582445e-04 1.403512e-04 2.711612e-02
-8.788788e-03 2.510978e-02 -1.014501e-02
-1.214898e-02 -2.267944e-02 -1.242929e-02
1.790444e-03 2.392197e-05 -2.894371e-02
-1.999461e-03 -1.606645e-04 -2.884239e-02
-1.362586e-02 -2.449133e-03 2.365668e-02
1.366559e-02 2.403112e-02 -6.265702e-03
-1.328596e-02 2.348005e-02 7.275692e-03
-1.224161e-02 -3.938139e-03 2.395875e-02
1.219723e-02 -2.271310e-02 -1.229220e-02
-6.057671e-03 -1.352702e-02 2.310964e-02
1.096940e-04 1.347504e-05 2.739643e-02
-2.388990e-02 1.402737e-02 4.149797e-03
-1.234284e-02 2.362546e-02 8.449844e-03
2.810524e-04 1.543229e-02 2.282007e-02
-1.989443e-02 1.244785e-03 -2.080572e-02
1.993018e-02 1.237354e-03 -2.085060e-02
1.093977e-02 1.473677e-02 -2.217965e-02
-1.094073e-02 1.473514e-02 -2.218211e-02
2.029222e-03 -1.826590e-02 -2.219713e-02
-1.697291e-02 6.978515e-03 -2.217749e-02
1.698221e-02 6.981259e-03 -2.217777e-02
-2.719390e-04 6.150801e-05 2.725194e-02
-1.230848e-02 1.368816e-02 -2.217154e-02
1.230601e-02 1.368503e-02 -2.216872e-02
3.737829e-03 -1.802381e-02 -2.216837e-02
1.582598e-02 3.780910e-03 -2.368545e-02
1.545060e-02 6.058866e-03 -2.364730e-02
1.633397e-02 7.451243e-04 -2.380945e-02
1.530320e-02 -6.392016e-03 -2.367130e-02
3.660409e-03 -1.619012e-02 -2.364962e-02
5.013213e-03 -1.557394e-02 -2.380678e-02
-3.725941e-03 -1.585474e-02 -2.382811e-02
1.564252e-04 -2.705591e-05 2.720740e-02
1.618694e-02 -9.549472e-04 -2.393048e-02
1.358525e-02 8.784653e-03 -2.379028e-02
1.113640e-02 1.230588e-02 -2.364129e-02
1.428211e-02 -7.762013e-03 -2.371174e-02
-7.701597e-03 1.402410e-02 -2.413120e-02
-2.564453e-02 3.968199e-03 9.819574e-03
8.692964e-03 -1.072252e-03 -2.750090e-02
-8.684055e-03 -1.078199e-03 -2.747852e-02
1.752932e-02 -2.165116e-02 2.443623e-03
-1.754547e-02 -2.164446e-02 2.451169e-03
3.285103e-06 3.854484e-04 2.744441e-02
-8.665531e-05 2.589464e-04 2.726627e-02
-4.256343e-03 2.753586e-02 2.452279e-03
2.530721e-02 -1.166624e-02 2.440225e-03
-2.530513e-02 -1.166847e-02 2.438540e-03
-1.746404e-02 -1.339369e-02 -1.873804e-02
2.259571e-02 1.622526e-02 3.642531e-03
1.329030e-02 2.339956e-02 7.191114e-03
-2.229509e-02 -1.472990e-02 7.632818e-03
-1.107889e-02 -7.677224e-03 2.375307e-02
-1.279596e-02 2.463481e-02 -6.175989e-03
2.016343e-02 -6.774692e-03 -1.940328e-02
-2.104111e-04 1.500369e-05 2.738949e-02
-1.634824e-02 -7.982048e-03 -2.232003e-02
1.635036e-02 -7.982464e-03 -2.232042e-02
1.172883e-02 2.493388e-02 -6.692535e-03
-2.065233e-02 9.344808e-03 -1.799965e-02
2.065400e-02 9.344733e-03 -1.799428e-02
3.286598e-03 -2.241983e-02 -1.799041e-02
1.413283e-02 1.771062e-02 -1.798878e-02
-1.413731e-02 1.771877e-02 -1.799981e-02
1.357100e-02 2.135730e-04 2.365771e-02
-1.342813e-02 2.016923e-04 2.364610e-02
-2.188350e-05 -1.883286e-04 2.716186e-02
5.008833e-03 8.059646e-05 -2.877595e-02
-5.010684e-03 7.096676e-05 -2.878052e-02
-1.700170e-03 2.680190e-02 7.140219e-03
-7.415073e-04 1.470073e-02 2.309144e-02
2.532393e-02 1.158717e-02 -4.531768e-03
-2.531779e-02 1.159279e-02 -4.537872e-03
7.458500e-03 -2.117799e-02 -1.778605e-02
5.230768e-03 1.195726e-02 -2.588289e-02
1.845366e-02 -1.350372e-02 -1.692915e-02
-1.374538e-02 -2.434910e-03 2.361921e-02
-8.560208e-05 -2.817140e-04 2.725234e-02
4.207981e-03 -2.750725e-02 -4.622903e-03
-1.745615e-02 2.168517e-02 -4.516848e-03
1.748894e-02 2.163933e-02 -4.623428e-03
2.642902e-02 9.300007e-03 -4.048964e-03
1.552459e-02 2.330917e-02 -4.040473e-03
-1.551833e-02 2.332667e-02 -4.073639e-03
1.670327e-02 2.247086e-02 -4.056777e-03
-1.669611e-02 2.247115e-02 -4.063990e-03
3.099973e-03 -2.784497e-02 -3.960344e-03
-2.588408e-02 1.065277e-02 -4.058941e-03
4.049751e-04 -1.663850e-04 2.729434e-02
2.589387e-02 1.066313e-02 -4.052053e-03
-1.871106e-02 2.083163e-02 -4.043941e-03
1.871425e-02 2.082697e-02 -4.038649e-03
5.677858e-03 -2.742371e-02 -4.035105e-03
1.466886e-02 6.519252e-05 2.314449e-02
-1.455352e-02 -8.669460e-06 2.323817e-02
-9.170506e-03 2.604986e-02 4.528374e-03
1.290488e-02 -1.572519e-03 -2.598719e-02
-5.193512e-03 -6.430153e-03 -2.776381e-02
-7.090194e-03 -4.048724e-03 -2.768983e-02
-8.508714e-05 2.419591e-05 2.738156e-02
2.524549e-03 7.791361e-03 -2.774452e-02
2.232478e-04 8.274987e-03 -2.777315e-02
-7.399376e-03 -3.427727e-03 -2.772797e-02
-2.816095e-04 8.112244e-03 -2.773889e-02
2.761725e-05 8.173969e-03 -2.774169e-02
2.076288e-03 7.974999e-03 -2.775474e-02
2.386067e-03 7.991214e-03 -2.773455e-02
-2.282944e-04 8.272444e-03 -2.770399e-02
-5.361145e-03 -6.157661e-03 -2.780974e-02
-7.038935e-03 -4.261258e-03 -2.771882e-02
3.850372e-05 -9.931192e-05 2.737011e-02
-7.704534e-03 2.939147e-03 -2.776961e-02
-5.911088e-03 5.822711e-03 -2.769902e-02
-6.227058e-03 5.381866e-03 -2.776726e-02
-7.271905e-03 -3.804755e-03 -2.781048e-02
-5.807063e-03 5.564038e-03 -2.772201e-02
-4.832073e-03 -6.436888e-03 -2.771928e-02
-5.698959e-03 5.945120e-03 -2.777915e-02
5.511927e-04 8.179727e-03 -2.780236e-02
-7.586195e-03 -3.376478e-03 -2.769114e-02
-6.375674e-03 5.126693e-03 -2.771606e-02
7.756181e-05 -1.464345e-04 2.733885e-02
-7.652540e-03 -3.144896e-03 -2.779829e-02
-7.228846e-03 -4.070594e-03 -2.771607e-02
-5.082451e-03 -6.543922e-03 -2.770532e-02
-4.593795e-03 -6.815935e-03 -2.776634e-02
1.471985e-02 8.060235e-03 -2.351983e-02
1.539807e-02 6.672167e-03 -2.352462e-02
1.042216e-02 1.309051e-02 -2.355246e-02
9.228887e-03 1.375912e-02 -2.363219e-02
1.082734e-02 1.253654e-02 -2.363956e-02
1.178651e-02 -1.194126e-02 -2.351310e-02
1.707079e-04 -3.373489e-06 2.739922e-02
-5.256010e-03 -1.572892e-02 -2.362138e-02
8.971561e-05 -1.658687e-02 -2.362869e-02
1.550908e-02 -5.955249e-03 -2.364328e-02
1.435927e-02 8.361925e-03 -2.360741e-02
-4.955520e-03 -1.605558e-02 -2.351357e-02
1.264253e-02 -1.077049e-02 -2.363237e-02
-4.341833e-03 -1.607411e-02 -2.357373e-02
-1.031625e-03 -1.652648e-02 -2.363015e-02
-3.231399e-04 -1.679528e-02 -2.351924e-02
1.310817e-02 -1.045316e-02 -2.354627e-02
-1.306356e-04 1.503588e-04 2.743173e-02
6.066699e-03 -1.246416e-02 2.374818e-02
1.075881e-02 -6.763451e-03 2.418840e-02
4.066601e-05 1.009072e-02 -2.729148e-02
3.005163e-03 1.171630e-02 -2.625515e-02
9.848639e-03 6.940957e-03 -2.626738e-02
1.192391e-02 -2.011933e-03 -2.623399e-02
9.184260e-03 7.897646e-03 -2.629804e-02
4.362872e-03 -1.127524e-02 -2.625350e-02
6.835235e-03 -9.972539e-03 -2.626466e-02
-5.295155e-03 1.371571e-02 2.307382e-02
-1.336174e-04 -1.833034e-04 2.742038e-02
-1.099932e-04 -2.036566e-04 2.749104e-02
1.103407e-02 6.112218e-03 -2.597383e-02
-1.106150e-02 6.137709e-03 -2.595455e-02
-4.595928e-03 -3.731299e-03 -2.838604e-02
-2.268817e-02 1.557940e-02 5.365829e-03
8.398858e-03 6.345874e-03 -2.693747e-02
1.651744e-02 -1.156807e-02 -2.056263e-02
-1.393822e-02 -2.853337e-03 2.353813e-02
-2.532788e-02 -1.159356e-03 -1.299893e-02
2.534511e-02 -1.179010e-03 -1.299816e-02
5.708690e-03 -1.125682e-02 2.388577e-02
2.858834e-04 1.550667e-05 2.728041e-02
-4.231793e-03 -1.279916e-02 2.378550e-02
3.809518e-03 1.289763e-02 2.362837e-02
1.138005e-02 7.375503e-03 2.366068e-02
1.189740e-02 6.251134e-03 2.363043e-02
1.068377e-02 -8.194709e-03 2.366035e-02
6.342716e-03 -1.187110e-02 2.362773e-02
1.258681e-02 -5.040980e-03 2.369468e-02
4.431039e-03 -1.270061e-02 2.369330e-02
3.178692e-03 -1.307757e-02 2.367895e-02
1.024520e-02 -8.839985e-03 2.379473e-02
4.609414e-05 -1.001369e-04 2.732648e-02
1.357741e-02 -9.675976e-04 2.357577e-02
5.562292e-03 -1.226286e-02 2.369144e-02
-2.998039e-03 -1.325181e-02 2.358961e-02
9.077162e-03 -1.023907e-02 2.356315e-02
1.176826e-02 -6.485911e-03 2.373268e-02
1.239585e-02 5.121917e-03 2.367118e-02
1.315696e-02 2.784075e-03 2.363994e-02
-1.430621e-05 -1.348570e-02 2.381302e-02
-8.545464e-04 -1.346570e-02 2.380324e-02
-3.721890e-03 -1.283955e-02 2.368652e-02
-6.281725e-05 -1.537495e-05 2.721775e-02
1.688702e-03 1.344629e-02 2.362218e-02
8.819632e-04 -1.352228e-02 2.362981e-02
1.167654e-02 6.620712e-03 2.364712e-02
-1.662746e-03 -1.327317e-02 2.369505e-02
9.651092e-03 -9.454318e-03 2.361262e-02
7.544590e-03 1.121190e-02 2.380190e-02
4.529805e-03 1.259384e-02 2.369023e-02
8.227868e-03 1.071547e-02 2.361506e-02
1.341689e-02 3.072026e-04 2.369417e-02
1.221307e-02 5.612290e-03 2.373809e-02
1.743081e-04 -2.695717e-04 2.743090e-02
8.833762e-03 1.019133e-02 2.378266e-02