# vtk DataFile Version 2.0
Electric current density generated by TTH
ASCII
DATASET UNSTRUCTURED_GRID
POINTS 2054 double
-2.076842e-05 -7.794518e-06 -4.226570e-22
1.310944e-05 -1.566639e-05 -1.725376e-06
1.313595e-05 1.562183e-05 -1.724998e-06
-6.306533e-07 1.895121e-05 8.608218e-07
-2.010757e-05 7.514563e-06 -1.400208e-06
1.873883e-05 1.137541e-05 9.134736e-07
1.873883e-05 -1.137541e-05 9.134736e-07
9.878876e-06 -1.730950e-05 1.643143e-06
9.862032e-06 1.732431e-05 1.644590e-06
4.133194e-06 -1.880960e-05 -1.241109e-06
-1.800597e-05 -5.647885e-06 6.792652e-07
-2.039781e-05 -8.718441e-06 -4.226570e-22
-2.069075e-05 -6.183730e-07 1.708476e-06
-1.802635e-05 -1.093676e-05 -1.607551e-06
-1.090231e-05 1.909056e-05 -8.037402e-07
-1.345578e-05 1.547203e-05 1.724977e-06
-1.084252e-05 -1.910846e-05 8.298295e-07
-1.470238e-05 -1.167606e-05 3.831205e-07
2.547255e-06 2.181457e-05 -8.433705e-07
9.888352e-06 -1.621933e-05 -9.177595e-07
-8.041834e-06 2.041630e-05 8.777022e-07
8.276150e-06 2.034888e-05 -8.348759e-07
-1.998612e-05 -9.624806e-06 -4.226570e-22
7.830607e-06 -1.958070e-05 1.606062e-06
9.271542e-06 -1.984825e-05 9.360913e-07
9.275120e-06 1.985005e-05 9.311981e-07
-1.474876e-05 1.157541e-05 -2.423246e-07
-8.446244e-06 1.870328e-05 -1.724415e-06
-3.072665e-06 -1.879930e-05 -9.969104e-07
-2.462171e-06 2.185237e-05 -7.915861e-07
-3.583258e-06 -2.163752e-05 -8.957654e-07
-1.481709e-05 -1.622887e-05 -8.202599e-07
-2.044720e-05 4.982649e-06 -1.622268e-06
-1.953418e-05 -1.051179e-05 -4.226570e-22
-1.907480e-05 8.819113e-06 -1.633064e-06
-1.390724e-05 -1.692503e-05 9.377289e-07
1.806169e-05 7.154867e-06 -1.384465e-06
1.806169e-05 -7.154867e-06 -1.384465e-06
-1.947228e-05 -8.349151e-06 -1.563869e-06
1.815230e-05 1.238083e-05 -8.257760e-07
1.815230e-05 -1.238083e-05 -8.257760e-07
-1.279527e-05 1.779791e-05 9.156355e-07
5.370028e-07 1.881009e-05 -5.382467e-07
1.417763e-05 1.677190e-05 8.458927e-07
-1.904290e-05 -1.137760e-05 -4.226570e-22
1.417763e-05 -1.677190e-05 8.458927e-07
1.943143e-05 -5.820028e-06 1.716936e-06
1.943143e-05 5.820028e-06 1.716936e-06
-9.311933e-07 1.971374e-05 1.567524e-06
3.840280e-06 2.061007e-05 -1.649310e-06
8.420420e-06 1.904222e-05 -1.686885e-06
-1.773915e-05 1.144009e-05 1.598186e-06
5.066406e-06 -2.028017e-05 -1.666957e-06
-1.710144e-05 -7.867194e-06 5.576341e-07
4.156723e-06 1.886881e-05 -1.298916e-06
-1.851327e-05 -1.222050e-05 -4.226570e-22
-1.179914e-05 1.529762e-05 -1.297255e-06
-3.249670e-06 -2.027493e-05 -1.723935e-06
-1.401018e-05 -1.245630e-05 2.285079e-07
-1.731715e-05 -1.100154e-05 1.724620e-06
-1.691652e-05 -1.157213e-05 1.725196e-06
-1.645489e-07 -1.897658e-05 -8.873658e-07
1.972470e-05 7.880566e-07 1.569687e-06
1.972470e-05 -7.880566e-07 1.569687e-06
-1.633565e-05 9.430469e-06 6.587026e-07
2.042710e-05 -8.049955e-06 -8.552732e-07
-1.794635e-05 -1.303879e-05 -4.226570e-22
2.042710e-05 8.049955e-06 -8.552732e-07
-1.868517e-05 4.945840e-06 -1.305371e-06
-1.150798e-05 1.751412e-05 -1.651819e-06
8.466847e-06 -1.671178e-05 -9.398417e-08
-1.310799e-05 1.759646e-05 -8.793114e-07
1.907253e-05 4.688458e-06 -1.519999e-06
1.907253e-05 -4.688458e-06 -1.519999e-06
-1.183796e-05 1.848844e-05 8.595903e-07
9.896396e-06 1.617838e-05 -8.668631e-07
8.293586e-07 -2.110266e-05 1.593737e-06
-1.734330e-05 -1.383082e-05 -4.226570e-22
2.366270e-06 2.028652e-05 -1.725308e-06
2.215315e-06 -2.187533e-05 -7.981954e-07
1.088678e-05 -1.910094e-05 8.012320e-07
1.088678e-05 1.910094e-05 8.012320e-07
-1.475888e-05 1.623217e-05 8.849371e-07
1.301561e-05 -1.422506e-05 1.262631e-06
1.301561e-05 1.422506e-05 1.262631e-06
-5.471098e-06 1.847200e-05 -1.247680e-06
-1.037821e-05 1.931596e-05 9.035369e-07
-7.145391e-06 2.077212e-05 -8.362767e-07
-1.670532e-05 -1.459500e-05 -4.226570e-22
1.174155e-05 1.709300e-05 -1.702762e-06
-2.036974e-05 -8.259092e-06 -8.110871e-07
-1.004630e-05 1.840058e-05 -1.649407e-06
-7.299571e-06 -1.779636e-05 1.218352e-06
3.289983e-06 -1.894818e-05 1.214777e-06
-1.925487e-05 -8.335011e-06 1.644085e-06
-9.357537e-06 1.980998e-05 -9.331074e-07
-1.716128e-05 1.180996e-05 -1.684386e-06
-2.078966e-05 -7.074562e-06 -8.476087e-07
-2.057530e-05 3.090382e-06 -1.690008e-06
-1.603370e-05 -1.532978e-05 -4.226570e-22
1.555466e-05 1.555466e-05 7.779540e-07
1.555466e-05 -1.555466e-05 7.779540e-07
-2.192829e-05 -1.361046e-06 8.294636e-07
-9.269033e-07 1.972141e-05 -1.570938e-06
3.057155e-06 -2.004187e-05 1.715834e-06
6.910942e-06 -1.965188e-05 -1.684532e-06
-1.693226e-05 1.402300e-05 8.021645e-07
-6.713966e-06 1.770018e-05 -8.046873e-07
1.960949e-05 -9.991532e-06 7.565268e-07
1.960949e-05 9.991532e-06 7.565268e-07
-1.532978e-05 -1.603370e-05 -4.226570e-22
-1.850501e-05 9.991507e-06 1.627778e-06
-7.612386e-06 -2.058226e-05 -8.745612e-07
-2.113580e-05 6.033333e-06 8.117591e-07
-1.227409e-05 1.701464e-05 -1.644624e-06
-1.025095e-05 1.830528e-05 1.644520e-06
9.071358e-06 1.741546e-05 -1.517868e-06
-1.900883e-05 1.243636e-06 9.979198e-07
-1.829847e-05 -4.796070e-06 7.771495e-07
1.619586e-05 9.608385e-06 5.785728e-07
1.619586e-05 -9.608385e-06 5.785728e-07
-1.459500e-05 -1.670532e-05 -4.226570e-22
1.205229e-05 1.456405e-05 7.521717e-07
1.205229e-05 -1.456405e-05 7.521717e-07
1.686513e-05 1.412708e-05 -7.728758e-07
1.686513e-05 -1.412708e-05 -7.728758e-07
-1.337899e-05 1.598649e-05 -1.681225e-06
5.755876e-06 1.926626e-05 -1.689844e-06
8.192377e-06 -2.042331e-05 -7.628375e-07
-2.186511e-05 2.463606e-06 7.662443e-07
1.942071e-05 2.925781e-06 -1.519741e-06
1.942071e-05 -2.925781e-06 -1.519741e-06
-1.383082e-05 -1.734330e-05 -4.226570e-22
-3.154934e-06 2.032014e-05 -1.722350e-06
-7.426956e-06 1.891777e-05 1.720429e-06
-1.801630e-05 9.169325e-06 -1.708595e-06
-1.854685e-05 -9.990464e-06 1.614533e-06
1.330737e-05 1.318368e-05 4.326867e-08
1.330737e-05 -1.318368e-05 4.326867e-08
7.338997e-06 -1.758501e-05 1.005690e-06
-1.678949e-05 1.050097e-05 -1.596764e-06
-1.806638e-05 1.252204e-05 8.086617e-07
1.455456e-05 -1.186437e-05 3.955672e-07
-1.303879e-05 -1.794635e-05 -4.226570e-22
1.455456e-05 1.186437e-05 3.955672e-07
6.361095e-06 2.104448e-05 -8.027019e-07
-2.079794e-05 -3.999989e-06 1.567411e-06
-5.295614e-06 -2.136299e-05 7.538142e-07
1.664679e-05 1.112322e-05 -1.669573e-06
1.664679e-05 -1.112322e-05 -1.669573e-06
-2.501628e-06 -2.072811e-05 1.673425e-06
-1.025012e-05 1.575068e-05 -4.532857e-07
-1.631697e-05 1.233311e-05 -1.725624e-06
-1.150085e-05 1.568377e-05 1.400162e-06
-1.222050e-05 -1.851327e-05 -4.226570e-22
1.647252e-05 -1.263183e-05 1.699172e-06
1.647252e-05 1.263183e-05 1.699172e-06
1.318129e-05 1.523083e-05 1.696694e-06
1.318129e-05 -1.523083e-05 1.696694e-06
1.973868e-05 -7.688356e-06 -1.565533e-06
1.973868e-05 7.688356e-06 -1.565533e-06
-2.029414e-05 -5.628472e-06 -1.616878e-06
3.568119e-06 -2.169715e-05 7.955616e-07
1.543870e-05 -1.412713e-05 1.660537e-06
1.543870e-05 1.412713e-05 1.660537e-06
-1.137760e-05 -1.904290e-05 -4.226570e-22
-8.715863e-06 -1.659920e-05 -2.392667e-07
9.965528e-06 1.962109e-05 -7.594874e-07
-1.524389e-05 -1.215347e-05 1.432891e-06
-2.045943e-05 8.130859e-06 -7.406522e-07
-2.108154e-05 6.330494e-06 -7.497960e-07
-1.790998e-05 -8.959297e-06 -1.670835e-06
-2.200374e-05 4.556480e-07 7.560738e-07
9.134079e-06 1.668197e-05 -9.533652e-07
9.044516e-07 2.192860e-05 -8.705338e-07
-1.235604e-05 1.414973e-05 4.268275e-07
-1.051179e-05 -1.953418e-05 -4.226570e-22
-2.197400e-05 6.261454e-07 -8.063723e-07
-3.771010e-06 -2.156927e-05 9.521759e-07
-1.910226e-05 4.262004e-06 -1.481203e-06
1.528275e-05 1.219611e-05 -1.469519e-06
1.528275e-05 -1.219611e-05 -1.469519e-06
5.679717e-06 -1.814729e-05 9.479472e-07
1.071405e-05 1.603381e-05 1.265409e-06
1.085024e-05 -1.600529e-05 1.312038e-06
-1.941971e-06 -1.867750e-05 3.980159e-07
1.691720e-05 1.085495e-05 1.688296e-06
-9.624806e-06 -1.998612e-05 -4.226570e-22
1.691720e-05 -1.085495e-05 1.688296e-06
9.883061e-06 -1.597774e-05 4.347082e-07
9.883061e-06 1.597774e-05 4.347082e-07
2.174069e-06 -2.075081e-05 -1.676920e-06
-7.266795e-06 -2.076285e-05 7.776103e-07
9.260945e-06 1.679126e-05 1.155679e-06
2.412169e-06 1.894537e-05 -1.063483e-06
-2.169396e-05 3.772340e-06 -7.329974e-07
-1.860767e-05 -2.189380e-06 -1.227615e-07
8.496919e-06 1.671365e-05 -2.474860e-07
-8.718441e-06 -2.039781e-05 -4.226570e-22
-7.330814e-07 -2.004137e-05 1.678027e-06
-1.442848e-05 -1.394189e-05 -1.680174e-06
-1.941577e-05 1.027912e-05 -8.323634e-07
-1.268082e-05 1.693951e-05 1.576018e-06
2.001386e-05 -5.034526e-06 -1.716206e-06
2.001386e-05 5.034526e-06 -1.716206e-06
-1.708545e-05 -9.229566e-06 1.378317e-06
6.775321e-06 1.855856e-05 1.576991e-06
-1.919290e-05 -2.305098e-06 1.307240e-06
-8.276262e-06 -1.734526e-05 1.201436e-06
-7.794518e-06 -2.076842e-05 -4.226570e-22
-1.082205e-05 1.666424e-05 -1.622589e-06
-1.111591e-05 1.787625e-05 1.620457e-06
1.771548e-05 6.085788e-06 -4.152416e-10
1.771548e-05 -6.085788e-06 -4.152416e-10
1.441378e-05 1.655267e-05 -8.679268e-07
1.441378e-05 -1.655267e-05 -8.679268e-07
5.149518e-06 2.139698e-05 7.572028e-07
3.704097e-06 -1.841403e-05 -4.173480e-07
9.337656e-06 -1.772570e-05 -1.673105e-06
1.166696e-05 1.718969e-05 1.696116e-06
-6.854898e-06 -2.109721e-05 -4.226570e-22
1.166696e-05 -1.718969e-05 1.696116e-06
-1.990707e-06 -2.186361e-05 -8.587663e-07
-9.803189e-06 -1.841125e-05 -1.678340e-06
-1.512258e-05 -1.217381e-05 -1.374352e-06
1.842609e-05 7.893932e-06 -1.675854e-06
1.842609e-05 -7.893932e-06 -1.675854e-06
-1.919008e-05 -3.281034e-06 -1.414282e-06
-2.177169e-05 -2.908053e-06 -8.393179e-07
1.186931e-06 2.109155e-05 -1.591243e-06
-1.248618e-05 1.524120e-05 1.551930e-06
-5.901473e-06 -2.138351e-05 -4.226570e-22
-9.967538e-06 -1.799421e-05 1.721913e-06
-1.820732e-05 -8.136198e-06 1.647060e-06
5.421857e-06 1.910240e-05 1.617833e-06
1.944274e-05 -3.056995e-06 1.541463e-06
1.944274e-05 3.056995e-06 1.541463e-06
-2.154253e-05 -4.499024e-06 -7.584358e-07
-2.164283e-07 -2.197415e-05 8.207904e-07
-3.978503e-06 1.960591e-05 1.665440e-06
-4.844785e-07 1.895591e-05 -8.615190e-07
-1.482941e-05 1.487844e-05 -1.635845e-06
-4.936163e-06 -2.162674e-05 -4.226570e-22
[...]
POINT_DATA 2054
VECTORS 10.000GHz_fone_imag double
-1.057290e+10 2.932807e+10 2.881830e+08
-3.046059e+10 -2.487284e+10 -1.148839e+09
3.154277e+10 -2.444153e+10 9.051608e+06
5.197383e+10 1.870934e+09 2.671901e+08
1.103320e+10 2.211922e+10 1.521891e+09
9.407193e+09 -1.981143e+10 -7.842456e+08
-9.404419e+09 -1.981580e+10 7.954677e+08
-2.910788e+10 -1.695895e+10 -8.507136e+08
3.955550e+10 -2.004945e+10 -9.520634e+08
-5.130566e+10 -1.241498e+10 6.951461e+08
-1.317316e+10 4.741679e+10 -3.598416e+09
-1.223838e+10 2.670745e+10 -2.168226e+09
-3.413391e+09 4.079915e+10 -6.840207e+08
-9.884003e+09 2.202585e+10 9.015699e+08
2.640619e+10 1.562485e+10 -1.422841e+08
2.686018e+10 1.762086e+10 1.285243e+09
-2.110276e+10 1.275521e+10 7.602031e+08
-1.772388e+10 2.767913e+10 1.016742e+09
2.323803e+10 -3.548801e+09 2.912343e+09
-4.775078e+10 -2.777371e+10 2.712161e+09
2.285880e+10 9.381124e+09 1.675439e+09
2.044961e+10 -6.760939e+09 -2.424400e+08
-1.275907e+10 2.694600e+10 -2.215398e+09
-3.319672e+10 -1.438475e+10 -1.200605e+09
-2.734311e+10 -1.186586e+10 2.518910e+08
2.811474e+10 -1.081675e+10 -6.638360e+07
2.606168e+10 3.246684e+10 6.796456e+09
3.875835e+10 1.897524e+10 1.184780e+09
-4.122029e+10 7.086601e+09 2.299270e+08
2.310899e+10 1.483603e+09 2.056135e+09
-2.920092e+10 5.361358e+09 -5.292487e+08
-2.266724e+10 1.969546e+10 1.049771e+09
1.011807e+10 3.742061e+10 -8.648910e+08
-1.110601e+10 2.107874e+10 9.320448e+08
9.587666e+09 2.273971e+10 1.543093e+08
-1.658628e+10 1.856297e+10 -2.863859e+09
1.730988e+10 -4.550905e+10 1.014668e+09
-1.720363e+10 -4.552894e+10 -1.066659e+09
-1.257902e+10 2.572905e+10 1.325662e+09
1.561006e+10 -2.111244e+10 -1.008089e+09
-1.559631e+10 -2.104402e+10 9.632797e+08
1.842019e+10 1.089981e+10 -3.009593e+08
4.306452e+10 -4.895066e+09 2.368251e+09
1.597628e+10 -1.595773e+10 1.023857e+08
-1.683124e+10 2.807881e+10 6.434485e+08
-2.162016e+10 -1.831605e+10 4.663852e+08
-1.322064e+10 -4.298344e+10 9.564675e+08
1.342268e+10 -4.284224e+10 -8.388221e+08
3.229723e+10 -2.819588e+07 2.440091e+09
2.474119e+10 -3.146626e+09 1.608935e+08
3.711537e+10 -1.564274e+10 -3.920741e+07
1.342565e+10 2.212217e+10 1.376654e+09
-2.940723e+10 -5.803785e+09 -3.458914e+09
-2.051792e+10 4.713663e+10 -8.732329e+08
4.831967e+10 -1.048522e+10 1.715933e+08
-1.750953e+10 2.526452e+10 -7.569219e+08
3.680322e+10 3.189265e+10 -2.333967e+09
-3.135771e+10 3.446961e+09 -5.357511e+08
-2.800333e+10 2.516077e+10 6.400983e+08
-1.794464e+10 2.970094e+10 3.282947e+09
-2.055468e+10 2.595695e+10 -3.561726e+09
-4.021475e+10 5.207402e+09 -1.140681e+09
9.971930e+08 -4.471869e+10 -6.091683e+08
9.662140e+08 -3.427175e+10 -3.434924e+09
1.870752e+10 3.201710e+10 4.645031e+09
-1.149325e+10 -2.909666e+10 2.360017e+08
-1.668603e+10 2.360643e+10 -1.457686e+09
1.214769e+10 -3.019858e+10 3.116359e+08
1.142317e+10 4.516149e+10 4.946509e+08
2.105011e+10 1.876418e+10 1.963401e+09
-3.715688e+10 -1.691382e+10 3.623986e+09
2.163629e+10 1.703802e+10 6.091019e+08
7.827310e+09 -3.334618e+10 9.914854e+08
-8.552255e+09 -3.273875e+10 -1.123064e+09
1.779249e+10 1.209941e+10 1.813219e+09
4.424640e+10 -2.876750e+10 1.128560e+09
-3.630204e+10 -2.388411e+09 -9.011056e+08
-1.528338e+10 1.458423e+10 -9.315305e+08
2.887643e+10 -5.155842e+09 -5.501253e+08
-3.185309e+10 -2.318723e+09 -1.803954e+09
-2.405249e+10 -1.268167e+10 -6.980948e+08
1.965766e+10 -1.243077e+10 -3.338852e+08
2.370080e+10 2.254661e+10 -2.201883e+08
-3.511372e+10 -3.250240e+10 -1.934718e+09
2.747970e+10 -2.319943e+10 -7.097482e+07
3.557800e+10 9.182335e+09 -3.721458e+09
1.838785e+10 9.879509e+09 -7.693564e+08
2.213522e+10 7.284083e+09 3.064127e+09
-1.177372e+10 1.652470e+10 3.341918e+08
3.079295e+10 -2.069384e+10 5.904874e+07
-1.231019e+10 2.836726e+10 8.206077e+08
2.587805e+10 1.226984e+10 -2.122954e+09
-3.086068e+10 1.138681e+10 1.068586e+09
-4.491482e+10 -7.824898e+09 1.143520e+09
-1.090874e+10 3.266996e+10 1.495299e+09
2.285816e+10 1.187749e+10 1.432879e+09
1.615214e+10 2.335488e+10 -1.872113e+08
-8.397024e+09 2.291899e+10 -1.117947e+08
3.989359e+09 3.156023e+10 3.772968e+09
-2.015505e+10 2.128129e+10 7.186728e+08
2.057224e+10 -1.483873e+10 -4.420208e+08
-1.975804e+10 -1.731326e+10 1.283223e+09
-2.414249e+09 3.056823e+10 4.432589e+08
2.801866e+10 6.235558e+08 -1.321660e+09
-3.047569e+10 -4.276018e+09 6.468535e+08
-2.241928e+10 -7.013341e+09 2.489994e+09
1.371436e+10 1.689239e+10 1.574255e+09
4.012876e+10 1.209587e+10 2.728509e+09
-1.443272e+10 -2.938265e+10 1.826166e+08
1.465268e+10 -2.989909e+10 -9.407107e+07
-2.042906e+10 1.852570e+10 1.802964e+09
1.052408e+10 2.188934e+10 -2.655378e+09
-2.404191e+10 9.431517e+09 1.331983e+08
5.535229e+09 2.351917e+10 -2.634459e+08
2.370362e+10 1.638798e+10 -1.314435e+09
2.526684e+10 1.582134e+10 -4.091051e+09
2.977179e+10 -1.627409e+10 3.906289e+08
4.446577e+09 3.579206e+10 8.775841e+08
-1.119076e+10 3.176881e+10 -3.048234e+08
2.300687e+10 -3.134909e+10 5.849123e+08
-2.300383e+10 -3.137419e+10 -5.716883e+08
-1.814781e+10 1.208802e+10 -2.367884e+09
3.748151e+10 -2.686155e+10 3.493382e+08
-3.665705e+10 -3.017755e+10 1.999059e+08
1.918546e+10 -2.105790e+10 6.066433e+07
-1.766866e+10 -2.172103e+10 9.503576e+08
2.074347e+10 1.812036e+10 4.340540e+09
4.334263e+10 -1.209961e+10 -2.628115e+08
-2.937421e+10 -1.117787e+10 -1.748321e+09
3.681524e+09 3.026936e+10 2.907693e+07
4.524663e+09 -2.754333e+10 -1.330986e+09
-9.971590e+09 -3.444770e+10 8.471862e+08
-1.431448e+10 1.471004e+10 2.361488e+08
3.755480e+10 3.433827e+09 2.493103e+08
4.474869e+10 1.581070e+10 -6.922744e+06
1.918652e+10 3.285938e+10 5.546068e+08
-1.481955e+10 2.624169e+10 -1.272334e+09
3.027685e+10 -2.849328e+10 -2.354052e+09
-2.559266e+10 -2.471483e+10 -4.492329e+08
-3.667859e+10 -1.319906e+10 -3.856686e+09
2.558967e+10 4.073493e+10 1.447850e+08
1.566210e+10 2.224490e+10 -1.255259e+09
-2.553547e+10 -3.470609e+10 2.102137e+09
-1.850295e+10 1.059939e+10 1.061765e+08
2.406759e+10 -3.335134e+10 -1.890475e+09
2.882308e+10 -8.398245e+09 9.330299e+08
-5.485317e+09 3.539963e+10 7.479751e+07
-2.343238e+10 7.681948e+09 -1.876662e+09
1.577401e+10 -2.338198e+10 -1.778320e+09
-1.570604e+10 -2.330678e+10 1.814242e+09
-3.397885e+10 5.095853e+09 1.975466e+08
3.233595e+10 2.083102e+10 -1.374649e+09
2.415481e+10 3.310772e+10 4.191281e+08
3.465879e+10 2.317148e+10 -4.027121e+09
-1.636485e+10 1.323115e+10 8.618825e+08
-1.985257e+10 -2.356159e+10 -5.953117e+08
2.060447e+10 -2.387039e+10 4.255498e+08
2.652609e+10 -2.545272e+10 -2.556939e+09
-2.288485e+10 -2.182828e+10 -5.406630e+08
-1.179635e+10 -3.178467e+10 2.637305e+08
1.205097e+10 -3.260592e+10 -2.666496e+08
-9.559329e+09 3.098632e+10 6.694077e+08
-2.531483e+10 -4.241800e+09 8.625008e+08
-1.713807e+10 -1.762120e+10 -6.621784e+07
2.335578e+10 -2.665813e+10 9.801537e+07
-1.875799e+10 8.711753e+09 2.493308e+08
-3.344820e+10 1.524934e+10 3.030785e+09
2.494500e+10 -1.228017e+10 3.185080e+08
-1.896249e+10 3.267611e+10 4.607729e+09
6.037138e+09 2.284428e+10 -3.967278e+08
9.791514e+09 3.032777e+10 -1.020639e+09
-1.802953e+10 3.905787e+10 1.531059e+09
6.813594e+08 2.909044e+10 -6.979023e+08
4.670822e+10 -2.532507e+10 4.122417e+08
3.074932e+10 -7.514505e+08 9.915855e+08
3.505221e+10 2.892442e+10 -2.660613e+09
-1.985944e+10 1.291310e+10 -1.932232e+09
-1.069824e+09 2.613475e+10 8.360306e+08
-2.854903e+10 5.382093e+09 9.822309e+08
1.236940e+10 4.459782e+10 1.165978e+09
2.600426e+10 -3.566832e+10 1.802087e+09
-2.591144e+10 -3.619804e+10 -1.647035e+09
-2.968459e+10 -1.257285e+10 -9.488119e+08
4.055699e+10 -2.782390e+10 -3.247903e+08
-3.044239e+10 -2.161271e+10 6.058492e+08
-3.455368e+10 3.743543e+09 3.166965e+08
1.777428e+10 -2.635458e+10 -1.224642e+09
-2.539202e+10 1.234974e+10 9.508191e+08
-1.777113e+10 -2.638004e+10 1.220635e+09
-4.326154e+10 -2.582691e+10 -3.090909e+08
3.946387e+10 -2.410985e+10 4.387334e+09
-2.313166e+10 -2.485497e+09 1.189278e+09
-2.272050e+10 8.554222e+09 1.746808e+09
2.803650e+10 -1.289929e+10 1.399621e+09
3.865580e+10 -1.956796e+09 -9.260148e+08
4.358524e+09 2.440020e+10 -3.127656e+09
-5.317716e+09 3.505114e+10 -9.525482e+08
5.082544e+10 -2.641969e+10 8.247288e+08
-2.670202e+10 1.167075e+10 -6.278405e+08
-3.183743e+10 -1.710074e+09 4.043632e+09
-3.223135e+10 2.887028e+10 -1.250887e+09
1.361880e+10 2.774890e+10 5.457331e+08
2.128716e+10 1.441176e+10 -1.033214e+09
-6.426166e+09 -2.428769e+10 -3.252337e+09
6.352436e+09 -2.450629e+10 3.338576e+09
-1.515627e+10 3.448286e+10 -2.291754e+09
3.373430e+10 -1.264755e+10 6.109751e+08
-4.972372e+09 4.833419e+10 -5.730941e+08
-4.066243e+10 2.100053e+10 -9.537736e+08
-1.936399e+10 7.657260e+09 9.312679e+07
2.530813e+10 1.641727e+10 -3.357629e+08
2.648846e+10 1.502222e+10 3.070551e+09
1.647128e+10 -4.692999e+10 -8.468133e+06
-1.652265e+10 -4.676004e+10 1.196041e+07
2.357565e+10 -2.270543e+10 -1.102411e+09
-2.457794e+10 -2.164162e+10 -3.269002e+07
2.465363e+10 -7.179980e+09 1.747946e+08
-4.187647e+10 -7.423583e+09 1.359136e+09
-3.778334e+10 -2.069887e+10 5.565731e+08
2.828094e+10 -2.022875e+10 8.745224e+08
-2.721094e+10 8.930786e+09 7.546005e+08
-2.519139e+10 -1.357719e+10 -1.371102e+09
-2.326122e+10 1.773073e+09 2.346139e+09
-2.366755e+10 1.053845e+10 -7.903889e+07
-1.882669e+10 2.798319e+10 -2.904850e+09
1.195952e+10 -3.287968e+10 1.265634e+09
-1.234062e+10 -3.316300e+10 -1.429305e+09
-6.061133e+09 4.797096e+10 -2.661268e+08
-4.132630e+09 2.563853e+10 -5.978898e+07
3.066380e+10 -2.001385e+09 -3.457140e+08
3.840905e+10 2.936023e+10 -1.555079e+09
-2.353960e+10 4.730771e+09 -3.820307e+08
-2.953895e+10 1.009595e+10 1.388029e+08
-1.467150e+10 2.996027e+10 6.422313e+08
3.647876e+10 -1.052195e+10 -1.130118e+09
-7.004894e+09 -3.089512e+10 -8.492467e+08
1.024340e+10 -3.436129e+10 1.210357e+09
-5.866973e+09 3.358816e+10 -7.066230e+07
-2.027026e+10 -2.435621e+09 2.938420e+09
4.468547e+10 1.269127e+10 2.863607e+08
4.130138e+10 3.697799e+09 -1.025628e+09
2.110940e+10 1.915547e+10 -3.034920e+09
-2.299819e+10 7.076741e+09 -1.312806e+09
-2.278415e+10 1.536623e+10 5.727793e+08
1.334390e+09 -3.994975e+10 8.188436e+08
-9.014710e+08 -4.101850e+10 2.767917e+09
3.479507e+10 -3.144235e+09 1.207035e+09
-2.624738e+10 5.360863e+09 -2.147707e+09
-3.819752e+10 -1.693270e+10 -2.154495e+09
2.114891e+09 -2.267765e+10 -1.216901e+09
-3.292627e+09 -2.942627e+10 2.736523e+09
-1.971703e+10 -1.610918e+10 -2.712251e+08
3.780675e+10 -3.200208e+10 6.219359e+07
-2.722726e+10 3.792233e+09 4.145079e+09
-3.062697e+10 -2.513498e+10 4.856547e+08
-3.459384e+10 2.420107e+10 -1.634686e+09
-2.511391e+10 1.665038e+09 -3.413309e+08
2.015361e+09 4.461876e+10 -3.262032e+09
3.125455e+10 9.807542e+09 -4.686169e+08
3.960991e+10 7.174810e+09 5.550936e+07
3.077027e+09 -2.440795e+10 -4.854231e+08
2.960814e+09 -2.472280e+10 -2.749373e+09
1.701975e+10 4.162260e+10 -3.348081e+08
2.664870e+09 3.799238e+10 2.985341e+08
-2.879945e+10 4.622298e+09 -2.007087e+09
-2.767997e+10 1.751545e+10 1.012211e+09
-1.076975e+10 2.341173e+10 -1.470521e+09
-1.046930e+10 3.755422e+10 9.834364e+08
-5.505344e+09 3.488589e+10 -7.741750e+08
3.453468e+10 -1.772664e+10 1.090223e+08
9.057339e+09 5.251349e+10 1.013960e+09
3.507104e+09 3.807089e+10 1.050063e+09
1.171327e+10 -3.166594e+10 7.879214e+08
-1.175280e+10 -3.176764e+10 -8.377990e+08
-3.519144e+10 -1.472699e+09 1.938956e+09
-2.434889e+10 2.270625e+09 2.908003e+09
2.349793e+10 -7.666371e+09 1.214956e+08
6.240627e+09 -3.548196e+10 1.015412e+09
-5.024408e+09 -3.164844e+10 -7.550882e+08
2.765565e+10 3.589128e+09 3.877762e+09
2.881176e+10 1.429135e+10 1.656337e+08
-2.691346e+10 -1.724013e+10 -8.040413e+08
-2.325493e+10 9.826131e+09 -1.397728e+09
-1.912996e+10 -3.515714e+09 2.815337e+08
7.986386e+09 2.239681e+10 1.955952e+09
2.764875e+10 -7.672148e+09 -4.307486e+08
-2.565056e+10 3.426412e+08 1.592621e+09
-3.462588e+10 2.044174e+10 -4.230407e+08
1.266584e+10 3.327786e+10 -1.506744e+09
1.049334e+10 -2.976189e+10 5.724703e+08
-1.040977e+10 -2.942531e+10 -5.685427e+08
2.587792e+10 4.425320e+10 -1.991914e+09
-4.029668e+09 -2.296035e+10 -2.073931e+09
4.049921e+09 -2.350281e+10 1.890228e+09
3.822192e+10 2.561375e+09 -1.375033e+09
3.147450e+10 -5.837429e+09 -2.711560e+08
2.057438e+10 -2.319722e+10 4.076111e+09
-2.173257e+10 -3.096884e+09 -1.651812e+09
-1.714757e+10 -2.364197e+10 1.273332e+09
-9.473653e+09 -2.112932e+10 5.896615e+08
1.026041e+10 -2.253896e+10 -1.574469e+09
1.751417e+10 1.552643e+10 -1.703353e+08
2.448159e+10 -2.063807e+10 9.300465e+08
-2.752476e+10 1.285724e+10 -3.277204e+08
-1.086743e+10 4.030351e+10 -9.554524e+08
-3.353203e+10 -1.695584e+10 -1.230364e+09
2.699570e+10 -1.572828e+09 4.915499e+08
-2.421327e+10 2.573506e+10 -4.619870e+09
-1.634932e+10 7.394860e+07 1.573125e+08
4.470144e+10 8.253509e+09 2.618052e+09
2.019384e+09 -2.079587e+10 -1.896091e+09
-3.789633e+09 -2.258829e+10 1.477099e+09
6.694465e+09 2.680838e+10 -3.413650e+09
-2.346056e+10 -1.707282e+09 1.592632e+09
-4.743139e+10 9.278592e+09 -2.188928e+09
3.618722e+10 1.253568e+09 1.946319e+08
-1.273621e+10 4.540206e+10 1.989347e+09
-1.303337e+10 -4.092016e+10 -1.055885e+09
1.326518e+10 -4.044956e+10 1.230605e+09
-2.547000e+10 -4.444413e+08 -1.671104e+09
-4.968449e+10 1.360131e+10 8.572316e+08
2.458076e+09 -3.851102e+10 6.595281e+08
-2.351911e+09 -4.073773e+10 -7.120903e+08
-2.614843e+10 -7.865046e+09 -2.393785e+08
5.987973e+09 2.707589e+10 -2.611026e+09
2.221135e+10 5.780678e+08 -1.573936e+08
-2.607933e+10 2.496191e+10 -1.773969e+08
-3.311507e+10 -8.340526e+08 8.906036e+08
3.498199e+10 -2.565933e+10 -3.616306e+08
-4.418038e+10 -3.078489e+10 -1.330391e+09
-3.196050e+10 -3.660582e+09 2.727377e+07
-2.225786e+10 3.266518e+10 8.755138e+08
8.461156e+09 3.672027e+10 -1.779899e+09
-7.177766e+09 4.312679e+10 1.922539e+09
1.919577e+10 -1.187359e+10 -3.499548e+08
1.636232e+10 3.739377e+10 -1.186644e+09
-4.543381e+10 -1.030169e+10 -1.402210e+09
1.060986e+10 3.426143e+10 -4.964075e+09
7.592631e+09 -6.043224e+10 2.034126e+09
-6.754823e+09 -5.081510e+10 1.915027e+09
-7.892544e+08 3.933362e+10 -1.225338e+09
-2.433525e+10 -5.469973e+09 -3.770118e+08
-2.476815e+10 -7.580312e+09 -3.323053e+09
-3.340713e+10 4.271043e+10 -1.726372e+09
-4.845034e+10 -9.101892e+09 -6.636340e+08
5.277226e+10 1.674879e+10 -1.362539e+09
-2.585457e+10 -1.750009e+10 -1.492214e+09
-7.773687e+09 -4.604099e+10 -8.697921e+08
6.910668e+09 -4.803724e+10 -1.590764e+09
1.975019e+10 -4.989031e+09 1.160895e+09
-3.621657e+09 2.583543e+10 -4.031226e+08
2.039932e+10 4.673044e+10 1.056574e+08
-3.108718e+10 -6.829354e+09 4.237192e+08
3.341252e+10 1.654854e+10 8.576626e+07
-1.248721e+10 -2.779283e+10 7.697439e+07
1.240835e+10 -2.879583e+10 9.520419e+08
-2.123476e+09 2.996618e+10 -5.222503e+08
2.331378e+10 8.774399e+09 3.488188e+08
-2.326741e+10 2.401510e+10 2.110007e+08
1.675698e+10 4.206694e+10 -3.896298e+07
1.638689e+10 1.314171e+10 -1.714799e+08
3.806115e+10 -2.806150e+10 2.629927e+09
-2.477797e+10 1.750055e+10 -5.156774e+09
-2.065831e+10 -5.805946e+09 -1.246244e+08
-2.433813e+10 -3.494093e+09 -1.057885e+09
7.580092e+09 2.447647e+10 6.470849e+08
3.681634e+10 1.866297e+09 -4.677065e+08
-2.520009e+10 9.742616e+09 1.767037e+09
-4.208717e+10 -1.648720e+09 1.681344e+07
-3.030550e+10 -4.126297e+10 -6.146932e+08
3.032684e+10 -4.129365e+10 5.948672e+08
3.381130e+10 -7.811686e+09 -1.066941e+09
2.773619e+10 -4.262549e+09 9.893367e+08
3.132292e+10 -8.506851e+08 -1.817080e+09
-2.583375e+10 -8.112664e+09 -1.686163e+08
-2.447045e+10 -1.804099e+10 -7.511589e+07
2.934033e+10 -2.203963e+10 1.428373e+09
-1.874748e+10 -3.931926e+10 -1.653977e+09
1.866148e+10 -3.853016e+10 1.658178e+09
-2.587449e+10 2.312686e+10 4.606657e+09
-9.697827e+09 -4.788988e+10 -2.009810e+09
8.976114e+09 -4.732959e+10 -2.521745e+08
3.467041e+10 1.461126e+10 1.081679e+09
2.443823e+10 -2.695264e+10 1.196427e+09
-2.260861e+10 -2.759689e+10 1.027727e+07
-2.102028e+10 -8.128548e+09 8.079513e+08
-2.905854e+10 -2.489977e+09 -2.838030e+08
3.083890e+10 2.834587e+10 -1.678387e+09
3.350190e+10 -1.621908e+10 3.229953e+08
1.245669e+10 3.819539e+10 5.542157e+09
2.504577e+09 -2.359482e+10 -2.154514e+09
-3.749840e+09 -2.605686e+10 2.626307e+09
1.607294e+10 3.700733e+10 3.815052e+09
9.833521e+09 4.453936e+10 -6.672606e+08
2.141356e+10 1.637951e+08 -6.188125e+08
1.556004e+10 2.231232e+10 3.990275e+08
-1.945923e+10 -8.243270e+09 5.846106e+08
2.317874e+10 -9.028503e+09 -9.470123e+08
-1.464939e+09 5.044143e+10 5.161308e+08
1.746576e+10 2.893693e+10 1.862477e+09
5.214999e+10 2.633363e+10 8.906926e+08
1.281183e+10 -4.953095e+10 -1.139662e+09
-1.270669e+10 -4.906387e+10 1.166512e+09
1.443211e+10 -2.571719e+10 1.166422e+09
-1.409938e+10 -2.545208e+10 -1.054870e+09
-2.380447e+10 4.144034e+09 -1.748510e+09
4.117030e+10 -7.823057e+09 -1.659554e+09
-2.683026e+10 -1.271070e+10 -1.590373e+09
-1.093518e+10 -3.414047e+10 4.613317e+06
1.103745e+10 -3.469734e+10 6.627104e+07
-3.846856e+10 9.297215e+09 4.234308e+08
-3.328313e+10 2.308339e+10 -3.928772e+09
1.486243e+09 2.871506e+10 -1.897297e+09
-1.979999e+10 -1.437772e+10 -2.235311e+09
2.307328e+10 -1.515005e+10 -8.418425e+08
-1.684491e+10 1.407838e+10 -2.648306e+08
4.156156e+10 2.001005e+10 -1.481653e+09
1.070826e+10 -2.984598e+10 8.506755e+08
-2.361334e+10 -1.334671e+10 9.663760e+07
-1.063153e+10 -2.940068e+10 -8.238399e+08
8.735877e+09 3.778518e+10 2.766530e+09
-2.033707e+10 1.159336e+08 3.146426e+09
-3.204871e+10 3.871157e+09 -3.214662e+08
1.826979e+10 -4.037832e+10 3.158475e+08
-1.834821e+10 -4.061959e+10 -4.038884e+08
-3.214485e+10 -4.074204e+10 -2.225873e+09
3.152787e+10 -4.016988e+10 2.436970e+09
3.654345e+10 -1.078397e+10 -1.150170e+09
4.473965e+10 1.412748e+10 2.776358e+08
-2.332181e+10 -1.386387e+10 -3.644504e+08
-3.102519e+10 7.816683e+09 1.158222e+08
3.699855e+10 7.200387e+09 2.489504e+08
1.910175e+10 4.029218e+10 2.176021e+09
-2.457221e+10 1.677188e+10 -8.354583e+07
1.769753e+10 -1.735236e+10 -3.931887e+07
-1.771831e+10 -1.874801e+10 1.143800e+09
1.240875e+10 -1.862881e+10 2.703063e+09
-1.225906e+10 -1.823949e+10 -2.731924e+09
-3.739617e+10 1.301564e+09 2.396854e+09
-2.567072e+10 2.598921e+10 -7.726732e+08
-1.982042e+10 -1.539077e+10 -1.067627e+09
-2.415458e+10 2.308347e+10 -2.480379e+09
-3.488712e+10 1.171943e+10 -1.816204e+09
2.640101e+10 3.020227e+10 -4.114489e+08
2.826523e+10 -1.831443e+10 -1.003353e+09
1.275777e+10 -3.326386e+10 -2.272358e+08
-1.303527e+10 -3.363631e+10 3.740827e+08
-3.542738e+10 -1.669307e+10 9.085285e+08
3.065333e+10 1.293914e+10 5.472095e+08
-3.260967e+10 1.375792e+10 5.412831e+08
-2.628181e+10 1.806199e+10 -6.810426e+08
-1.793796e+10 -1.010772e+10 -4.601723e+08
-3.311272e+10 -8.472660e+09 1.584348e+09
-1.725682e+10 -4.505463e+10 5.874126e+08
1.722259e+10 -4.502012e+10 -5.991571e+08
-3.674100e+10 7.787657e+09 4.841662e+08
2.730165e+10 2.348784e+10 9.114402e+08
-2.624665e+10 7.906381e+09 -8.861053e+08
-3.830393e+10 1.288676e+10 -4.437026e+08
-1.549680e+10 -4.036247e+10 1.924131e+09
1.507973e+10 -3.997083e+10 -1.925405e+09
1.099484e+10 -2.856521e+10 -2.481923e+09
-1.765932e+10 -1.460114e+10 7.219842e+08
-1.060064e+10 -2.987711e+10 2.030978e+09
3.632883e+10 -3.968905e+10 -1.021897e+09
-2.736121e+10 -3.105773e+10 2.463721e+08
5.125519e+10 -1.447397e+10 1.879081e+08
2.563181e+10 -5.876029e+09 1.852789e+09
-4.344777e+10 8.629058e+09 1.010453e+09
-2.070487e+10 3.864212e+10 -5.290619e+08
3.405472e+10 3.127193e+08 -2.554597e+09
-1.938669e+10 -2.237726e+10 2.068766e+08
1.800900e+10 -2.123672e+10 9.620863e+07
-1.637636e+10 -1.398632e+10 -6.198282e+08
2.054746e+10 -1.086077e+10 -6.689634e+08
2.543590e+10 3.083464e+10 2.317898e+08
-1.654488e+10 2.354303e+10 3.751334e+06
-3.627339e+10 -1.086749e+10 -8.648448e+08
-3.129487e+10 4.006767e+10 9.820031e+08
-1.971507e+10 1.139367e+10 -2.812856e+09
3.271794e+10 1.752971e+10 6.520124e+08
2.048809e+09 2.318856e+10 2.352418e+09
7.030021e+09 2.698906e+10 -2.991806e+09
-4.504005e+10 3.126159e+10 -1.575044e+09
-1.706121e+10 -1.519442e+10 -9.327622e+08
-4.143671e+10 -7.404858e+09 2.222008e+09
2.333268e+10 2.496339e+10 7.444692e+08
2.493511e+10 1.078286e+10 -1.708352e+09
3.302104e+10 1.501025e+10 -1.180547e+09
2.831932e+10 -7.715478e+09 -8.773451e+08
3.202101e+10 2.713453e+10 -3.824720e+08
-2.924538e+10 -2.323710e+10 1.249460e+08