# vtk DataFile Version 2.0
Electric current density generated by TTH
ASCII
DATASET UNSTRUCTURED_GRID
POINTS 12920 double
3.647971e-05 2.022791e-05 -1.056027e-22
1.907141e-05 -3.632597e-05 3.488124e-07
3.356729e-05 -2.426237e-05 -4.090484e-07
1.631939e-05 -3.771241e-05 3.872980e-07
3.087787e-05 -2.696616e-05 -3.225708e-07
2.713122e-05 -3.055159e-05 8.903469e-08
-2.564523e-06 4.099632e-05 3.793253e-07
2.683357e-05 3.100519e-05 3.304108e-07
4.008145e-05 8.539013e-06 3.092115e-07
3.385899e-05 -2.286528e-05 -7.305107e-08
-2.356906e-05 -3.357416e-05 -3.436553e-07
-1.365869e-05 -3.868029e-05 -3.436553e-07
2.968173e-05 2.869710e-05 -4.311319e-07
4.036552e-05 -6.933674e-06 -2.836545e-07
3.231330e-05 -2.548016e-05 -4.108961e-07
3.443082e-05 -2.317305e-05 -3.700500e-07
2.789055e-05 2.999377e-05 2.844607e-07
-3.977159e-05 1.243021e-05 -1.892549e-07
1.101626e-05 3.936658e-05 -1.545771e-07
3.279953e-05 -2.444841e-05 2.170198e-07
-4.014302e-05 -9.284813e-06 4.239272e-07
4.131011e-05 -5.436478e-06 1.943074e-07
3.929523e-05 -1.388944e-05 1.698161e-07
3.531735e-05 -2.139308e-05 -4.310401e-07
3.909103e-05 -1.238588e-05 3.319980e-07
-3.041901e-05 -2.751950e-05 -3.428626e-07
-3.873157e-05 -1.350943e-05 -3.428626e-07
5.231904e-06 -4.068497e-05 -3.428626e-07
-3.616654e-05 -1.935513e-05 -3.428626e-07
-3.246813e-05 -2.506910e-05 -3.428626e-07
-1.807414e-05 -3.682343e-05 -3.428626e-07
-5.495873e-06 -4.065015e-05 -3.428626e-07
1.188746e-05 -3.925975e-05 -3.428626e-07
3.882012e-05 -1.271803e-05 8.390827e-09
3.825439e-05 1.551633e-05 4.311558e-07
-3.536904e-05 2.202065e-05 1.990369e-07
-4.026055e-05 -1.069554e-05 2.117061e-07
7.951582e-07 -4.146489e-05 -3.864907e-07
-2.677699e-06 -4.138598e-05 -3.864907e-07
-2.737089e-05 -3.115772e-05 -3.864907e-07
2.409012e-06 -4.140248e-05 -3.864907e-07
-8.199017e-07 -4.146440e-05 -3.864907e-07
3.806725e-05 1.599215e-05 -4.310700e-07
-3.541613e-06 4.092398e-05 -3.795906e-07
4.091197e-05 -5.199175e-06 -4.292584e-07
3.975270e-05 -1.113003e-05 4.311558e-07
4.069676e-05 -8.965028e-06 -1.814860e-07
3.008228e-05 -2.861274e-05 -3.613255e-07
4.097670e-05 6.529517e-06 -3.752865e-07
2.330564e-05 -3.455179e-05 1.712775e-07
-1.238081e-06 4.141399e-05 -4.038166e-07
-4.067842e-05 4.415918e-06 2.310875e-07
4.135952e-05 3.531370e-06 -3.655684e-07
-2.219082e-05 -3.528017e-05 -1.672343e-07
-1.187200e-05 -3.995220e-05 -1.672343e-07
1.810894e-05 -3.725190e-05 -4.081852e-07
4.050641e-05 7.961475e-06 -4.311558e-07
2.232759e-06 4.135498e-05 -4.098682e-07
2.777042e-05 -3.019349e-05 -3.447429e-07
-4.109745e-05 -6.899796e-06 -1.812274e-07
-3.867488e-05 1.402414e-05 4.069826e-07
-1.898015e-05 -3.625833e-05 2.436468e-07
-8.516679e-06 -4.002969e-05 2.435982e-07
-2.437587e-05 -3.287445e-05 2.436468e-07
8.882052e-06 -3.995024e-05 2.436468e-07
-2.803155e-05 -2.981843e-05 2.435400e-07
-2.733654e-05 -3.045693e-05 2.436197e-07
4.088805e-05 -5.676227e-06 -4.311540e-07
3.301434e-07 -4.092429e-05 2.435400e-07
-2.206449e-06 -4.086615e-05 2.436197e-07
-3.452953e-05 -2.196864e-05 2.435982e-07
-1.263515e-06 -4.090611e-05 2.435400e-07
1.287301e-05 -3.884836e-05 2.435982e-07
3.785211e-05 -1.536111e-05 -5.552546e-09
-4.143567e-05 -1.119480e-06 3.964898e-07
-3.887199e-05 1.498369e-05 -2.065940e-07
2.032995e-05 -3.638478e-05 -1.662060e-07
4.137247e-05 4.858379e-06 -2.121639e-07
3.938168e-05 -1.368198e-05 1.355800e-07
4.082194e-05 -6.988696e-06 4.096596e-07
3.126515e-05 -2.754016e-05 -1.969012e-07
2.137252e-05 3.545822e-05 4.141435e-07
1.354465e-05 3.869388e-05 3.231866e-07
3.836778e-05 -1.425362e-05 2.496052e-07
-3.868835e-05 1.493702e-05 3.868827e-07
2.056677e-05 3.567956e-05 4.197274e-07
-4.145028e-05 1.718393e-06 3.795863e-07
-4.088836e-05 9.583021e-07 -2.002829e-07
-1.153656e-08 4.144262e-05 3.998830e-07
3.844198e-05 -1.592319e-05 2.799674e-07
-6.120752e-06 -4.069231e-05 4.106628e-07
1.133656e-05 -3.955768e-05 4.106628e-07
4.104964e-05 -7.129378e-06 -1.985170e-07
3.858829e-05 1.572972e-05 -1.845041e-07
3.283475e-05 2.536958e-05 -3.752084e-07
3.804500e-05 -1.533261e-05 -3.416610e-07
-1.624826e-05 3.836736e-05 1.947850e-07
3.893220e-05 1.481890e-05 -2.115024e-07
1.064299e-05 3.944375e-05 5.970976e-08
1.923250e-06 -4.087989e-05 2.427922e-07
3.744461e-05 -1.813943e-05 2.827046e-07
-3.778056e-06 -4.075035e-05 2.427922e-07
-3.684531e-05 -1.781286e-05 2.429752e-07
3.513472e-06 -4.077401e-05 2.427922e-07
-1.466892e-05 -3.820601e-05 2.430000e-07
-2.959260e-05 -2.826931e-05 2.430000e-07
-3.725353e-05 -1.694224e-05 2.427922e-07
-2.614336e-05 -3.148634e-05 2.427922e-07
4.131021e-05 3.966685e-06 -3.715067e-07
2.384696e-05 -3.345786e-05 -3.846186e-07
-4.095043e-05 -5.734828e-07 -2.810563e-07
3.634765e-05 2.046427e-05 -1.056027e-22
3.626807e-05 -1.995694e-05 4.155694e-07
-3.910848e-05 -1.299074e-05 -4.251376e-07
-4.924387e-06 -4.087652e-05 -4.170630e-07
-3.657835e-05 -1.889878e-05 -4.170630e-07
4.658960e-06 -4.090762e-05 -4.170630e-07
-3.147615e-05 2.728089e-05 -2.181957e-07
-3.800967e-05 1.703412e-05 2.202200e-07
-1.945505e-05 3.684435e-05 1.960954e-07
-2.609140e-05 3.248398e-05 -1.969161e-07
-1.050117e-05 4.031991e-05 -1.969161e-07
-1.451553e-05 3.905500e-05 1.963428e-07
4.084809e-05 -8.190864e-06 -2.040679e-07
-2.164863e-05 3.559928e-05 1.968642e-07
-1.322119e-05 3.951164e-05 -1.969161e-07
-9.167493e-06 4.064420e-05 1.963424e-07
-1.822486e-05 3.746764e-05 -1.969154e-07
-5.346122e-06 4.132086e-05 1.963405e-07
2.668556e-05 3.139844e-05 4.246107e-07
3.501016e-05 -2.259336e-05 -1.921302e-07
2.067868e-05 -3.616326e-05 2.099366e-07
-4.090439e-05 2.545026e-06 3.116701e-07
-3.400468e-05 2.406076e-05 -2.131493e-07
3.987989e-05 -9.629087e-06 -3.472954e-07
4.010339e-05 -1.135249e-05 -1.661495e-07
4.063858e-05 9.255669e-06 1.661431e-07
-2.287382e-05 -3.484178e-05 -1.661377e-07
-1.264782e-05 -3.971390e-05 -1.661377e-07
-3.987474e-05 1.213121e-05 1.661375e-07
2.700653e-05 3.154420e-05 3.552268e-07
4.139196e-05 1.578387e-06 4.075732e-07
2.086021e-05 3.590607e-05 3.551809e-07
1.644072e-05 3.812918e-05 3.573373e-07
-4.165280e-05 1.487633e-06 -1.659366e-07
3.155411e-05 2.716300e-05 -2.464132e-07
-3.638986e-05 1.948772e-05 4.311513e-07
-4.024562e-05 7.687692e-06 -3.015988e-07
-5.943814e-06 4.101807e-05 -3.983019e-07
-3.222710e-05 2.640884e-05 1.959018e-07
3.820414e-05 1.663486e-05 1.896151e-07
2.520738e-05 3.230075e-05 -3.008452e-07
2.462431e-05 3.362397e-05 1.726965e-07
4.089418e-05 7.988211e-06 1.927404e-07
-4.015151e-05 -1.111553e-05 2.031257e-07
-3.574560e-06 4.151022e-05 -1.990989e-07
3.305608e-05 2.527653e-05 -2.760768e-07
9.290876e-06 4.013161e-05 -4.220028e-07
3.540216e-05 2.075714e-05 -3.563304e-07
3.621434e-05 -1.890678e-05 -4.606643e-08
3.871854e-05 1.540269e-05 -1.873053e-07
4.146869e-05 -4.186251e-06 -1.656971e-07
3.063829e-05 -2.823757e-05 -1.946707e-07
4.139568e-05 -2.706328e-06 3.805672e-07
4.139167e-05 -1.575756e-06 4.077080e-07
2.349357e-05 3.412029e-05 -4.060647e-07
2.377078e-05 3.423644e-05 1.654988e-07
3.446916e-05 2.333479e-05 -2.605472e-07
-4.031874e-05 1.054182e-05 1.780167e-07
-3.172174e-05 2.610151e-05 -3.811687e-07
-4.807885e-06 4.079751e-05 -3.811326e-07
5.233658e-06 4.070363e-05 -3.563682e-07
-4.089934e-05 -3.379489e-06 3.563714e-07
4.098922e-05 9.883239e-07 3.276330e-07
-2.770244e-05 -3.090505e-05 -3.695062e-07
-2.846029e-05 -3.020859e-05 -3.695062e-07
-1.236240e-06 -4.148516e-05 -3.695062e-07
-3.736211e-05 -1.807263e-05 -3.695062e-07
3.578949e-05 2.123489e-05 -2.731527e-07
-3.779878e-05 -1.714059e-05 -3.695062e-07
-2.264591e-06 -4.144175e-05 -3.695062e-07
2.138581e-05 -3.480787e-05 4.562193e-08
2.796655e-05 -3.002691e-05 -3.527168e-07
1.735357e-05 3.787441e-05 -2.049375e-07
3.947709e-05 -1.050584e-05 -2.716401e-08
1.750937e-05 3.713123e-05 3.653595e-07
-4.017000e-05 1.027127e-05 -3.913428e-07
4.046937e-05 -5.713326e-06 1.311289e-07
2.087288e-05 -3.515245e-05 1.634047e-07
3.696112e-05 1.910542e-05 -2.826567e-07
-2.652238e-05 3.213584e-05 1.926743e-07
-3.673772e-05 1.965930e-05 -1.926743e-07
-7.612274e-06 4.070174e-05 4.123165e-07
4.098706e-05 -9.970551e-07 3.259560e-07
1.575133e-05 -3.857436e-05 1.941828e-07
-1.756525e-05 3.713382e-05 3.805270e-07
-1.261034e-05 3.909524e-05 3.805264e-07
1.722436e-05 3.740548e-05 4.192261e-07
-6.183490e-06 4.060893e-05 3.796302e-07
-1.517213e-05 3.817587e-05 3.813796e-07
3.770893e-05 1.710332e-05 -4.126515e-07
-8.129800e-06 4.026627e-05 3.805751e-07
2.343270e-05 -3.346825e-05 7.035275e-08
3.841908e-05 -1.389127e-05 5.132044e-08
3.286035e-05 2.470074e-05 3.950745e-07
-1.528738e-05 3.874988e-05 2.127433e-07
-8.352106e-06 4.081218e-05 2.098798e-07
-6.123840e-06 4.121333e-05 1.952685e-07
-7.272969e-07 4.166610e-05 1.816201e-07
2.274443e-05 -3.465590e-05 3.955948e-07
2.266091e-05 -3.497834e-05 1.706774e-07
3.825408e-05 -1.440963e-05 1.522125e-07
3.066213e-05 2.822202e-05 1.801620e-07
-2.612897e-05 -3.210743e-05 -4.157113e-07
4.024024e-06 -4.119924e-05 -4.158424e-07
-3.707570e-05 -1.841269e-05 -4.156278e-07
-2.864933e-05 -2.988020e-05 -4.157113e-07
-4.291357e-06 -4.117226e-05 -4.158424e-07
1.776453e-05 3.681070e-05 1.383456e-07
4.071773e-05 -8.300616e-06 -3.330720e-07
4.121938e-05 3.714162e-06 -4.181826e-07
3.807635e-08 4.110531e-05 3.935637e-07
3.621405e-05 2.069977e-05 -1.056027e-22
3.893951e-05 -1.245512e-05 1.646946e-07
-3.997266e-05 8.698125e-06 -2.156821e-07
-7.476125e-06 4.044776e-05 4.047634e-07
-3.782064e-05 -1.548201e-05 -1.182334e-07
-3.495598e-05 -2.117736e-05 -1.306972e-07
-3.171374e-05 -2.577465e-05 -1.182334e-07
-7.626257e-06 -4.015272e-05 -1.306972e-07
-1.001412e-05 -3.962084e-05 -1.182334e-07
-3.362316e-05 -2.322879e-05 -1.182334e-07
-2.031233e-05 -3.546129e-05 -1.182334e-07
-1.604011e-05 -3.758734e-05 -1.182334e-07
3.939123e-05 1.339529e-05 2.831862e-07
9.741959e-06 -3.969229e-05 -1.300405e-07
7.349929e-06 -4.020040e-05 -1.182334e-07
-4.085026e-05 -1.639022e-06 -1.651401e-07
-3.331139e-05 2.502930e-05 -1.934844e-07
-2.013537e-05 3.647902e-05 1.925919e-07
-1.397725e-05 3.925288e-05 -1.925919e-07
-9.726491e-06 4.051602e-05 -1.925886e-07
-2.546496e-05 3.298012e-05 -1.925885e-07
[...]
POINT_DATA 12920
VECTORS 10.000GHz_fone_imag double
4.869591e+10 -8.317079e+10 9.121807e+08
-8.782995e+10 -4.702720e+10 -2.412695e+09
-5.787266e+10 -7.955344e+10 -1.891720e+09
-9.183286e+10 -3.938037e+10 -3.553485e+08
-6.498082e+10 -7.509852e+10 -2.937048e+09
-7.779980e+10 -6.837787e+10 -6.229146e+08
1.006487e+11 5.480345e+09 3.967726e+08
7.725471e+10 -6.601816e+10 7.284266e+08
2.219282e+10 -9.904181e+10 -1.839393e+09
-5.632613e+10 -8.360599e+10 -3.559338e+08
-8.101139e+10 5.964472e+10 1.070170e+09
-9.359282e+10 3.545572e+10 2.268929e+09
6.904295e+10 -7.181136e+10 -1.522696e+09
-1.970406e+10 -9.898288e+10 -7.150742e+08
-6.092367e+10 -7.713560e+10 -2.822387e+09
-5.421197e+10 -8.054521e+10 -1.184262e+09
7.445141e+10 -7.054006e+10 3.757546e+08
3.006513e+10 9.501023e+10 9.016296e+08
9.623830e+10 -2.727265e+10 -2.068457e+08
-5.895027e+10 -8.125644e+10 -1.135468e+09
-2.206455e+10 9.734001e+10 -9.357339e+08
-1.369242e+10 -9.458110e+10 -5.671350e+08
-3.232439e+10 -9.199339e+10 -2.875937e+08
-4.988027e+10 -8.524709e+10 -9.189594e+08
-3.002606e+10 -9.538553e+10 -5.820681e+08
-6.861680e+10 7.176977e+10 -1.937748e+09
-3.109870e+10 9.603315e+10 1.108038e+09
-9.908551e+10 -9.950149e+09 1.937471e+09
-4.433246e+10 8.908193e+10 2.080921e+09
-6.286479e+10 7.891620e+10 -9.520204e+08
-8.946238e+10 4.614280e+10 7.809118e+08
-9.932397e+10 1.068265e+10 -1.800003e+09
-9.423854e+10 -3.142607e+10 -1.946144e+09
-3.000816e+10 -9.726871e+10 -1.609724e+08
3.708324e+10 -9.153803e+10 -9.571466e+08
4.958559e+10 8.218921e+10 -4.374755e+08
-2.550865e+10 9.414992e+10 3.352009e+08
-9.843480e+10 -3.829157e+09 1.927993e+09
-9.793467e+10 6.891039e+09 -1.574587e+09
-7.445323e+10 6.364057e+10 1.929077e+09
-9.840289e+10 -6.886774e+09 1.582528e+09
-9.696055e+10 1.163037e+09 1.514987e+09
3.808979e+10 -9.008716e+10 -6.463234e+08
1.006450e+11 9.706277e+09 5.950789e+08
-1.256940e+10 -9.882011e+10 -1.709869e+07
-2.790162e+10 -9.473320e+10 -7.202072e+07
-2.141837e+10 -9.348639e+10 1.407715e+09
-6.737094e+10 -7.144261e+10 7.533419e+08
1.465697e+10 -9.650636e+10 -5.546631e+08
-7.928304e+10 -5.478316e+10 4.621426e+08
9.911155e+10 3.666257e+09 5.165016e+07
1.197939e+10 1.013417e+11 -2.159512e+09
8.740069e+09 -9.686659e+10 -2.254965e+06
-8.054335e+10 5.086265e+10 8.398084e+07
-9.128404e+10 2.730420e+10 9.054300e+07
-8.826928e+10 -4.441220e+10 -1.508796e+09
1.801167e+10 -9.720279e+10 -3.372145e+08
9.907683e+10 -4.125439e+09 -2.053209e+09
-7.300349e+10 -6.879167e+10 -6.705464e+08
-1.551718e+10 9.633288e+10 -5.644384e+08
3.341436e+10 9.503243e+10 2.112200e+09
-8.882223e+10 4.682802e+10 -4.893896e+08
-9.876014e+10 2.139868e+10 -2.905988e+08
-8.088244e+10 5.989369e+10 -2.886734e+08
-1.004412e+11 -2.198064e+10 -1.043804e+08
-7.409552e+10 7.021230e+10 -7.352137e+07
-7.616919e+10 6.799325e+10 7.267761e+06
-1.393665e+10 -9.796198e+10 1.456877e+08
-1.007310e+11 -1.944657e+08 8.175223e+08
-1.002021e+11 6.313380e+09 -1.751406e+08
-5.455015e+10 8.506275e+10 2.665728e+08
-1.023646e+11 2.841872e+09 -6.196218e+07
-9.550882e+10 -3.168258e+10 3.349821e+08
-3.700501e+10 -9.261777e+10 -2.012741e+07
-1.635853e+09 9.839553e+10 -4.009819e+08
3.585727e+10 9.063133e+10 8.067092e+08
-8.556030e+10 -4.635126e+10 9.969448e+08
1.195265e+10 -9.730306e+10 1.522166e+08
-3.138972e+10 -9.140756e+10 1.843230e+08
-1.644613e+10 -9.661362e+10 9.602650e+08
-6.498625e+10 -7.006007e+10 1.049147e+09
8.403446e+10 -5.184072e+10 -1.032005e+09
9.422754e+10 -3.226008e+10 -1.454307e+09
-3.627999e+10 -9.565963e+10 1.621613e+09
3.518036e+10 9.203492e+10 -1.719750e+09
8.579231e+10 -5.085482e+10 1.192157e+09
3.980116e+09 9.667098e+10 2.426234e+08
9.889200e+08 1.010629e+11 -6.092183e+08
9.702965e+10 -3.915024e+08 -1.505688e+09
-3.758907e+10 -9.117837e+10 8.748897e+08
-9.525128e+10 1.457534e+10 -1.433241e+09
-9.280883e+10 -2.613378e+10 -1.502706e+09
-1.514299e+10 -9.643646e+10 6.535423e+08
3.289076e+10 -8.892558e+10 3.800699e+08
5.905563e+10 -7.662724e+10 -3.760659e+08
-3.752138e+10 -9.279012e+10 5.221510e+08
8.952702e+10 3.763339e+10 2.649212e+08
3.500368e+10 -9.187700e+10 -3.953775e+08
9.743927e+10 -2.652202e+10 -6.227386e+07
-1.004735e+11 -4.338148e+09 4.562675e+08
-4.207804e+10 -8.812675e+10 2.096350e+09
-9.987585e+10 9.663104e+09 -6.957417e+08
-4.445471e+10 9.080343e+10 4.979504e+08
-9.990498e+10 -8.316738e+09 5.672446e+08
-9.383910e+10 3.556400e+10 -1.928303e+07
-6.919442e+10 7.275012e+10 2.117107e+08
-4.105896e+10 9.132519e+10 -2.158370e+08
-7.736104e+10 6.446641e+10 5.915689e+08
9.366372e+09 -9.731395e+10 -1.890961e+09
-7.992980e+10 -5.925722e+10 -8.059652e+07
-1.835620e+09 1.013637e+11 -5.079700e+08
4.426669e+10 -8.509889e+10 -5.484116e+08
-4.804002e+10 -8.731951e+10 -9.102783e+08
-3.169034e+10 9.588914e+10 -2.279316e+09
-9.838175e+10 1.204654e+10 9.981630e+08
-4.620085e+10 8.899942e+10 -4.680551e+08
-1.006823e+11 -1.167854e+10 -5.696594e+08
6.228688e+10 7.034506e+10 -7.694834e+08
4.097456e+10 8.843455e+10 1.313830e+09
8.531703e+10 4.315893e+10 -1.767152e+09
7.358832e+10 6.194211e+10 -1.735483e+09
9.287867e+10 2.622069e+10 -1.418406e+09
9.076666e+10 3.115295e+10 -1.274328e+09
-1.841279e+10 -9.647786e+10 -1.559186e+09
8.030288e+10 5.195465e+10 1.671708e+09
9.122075e+10 2.780540e+10 1.106461e+09
9.266128e+10 2.346250e+10 9.975600e+08
8.729238e+10 3.929126e+10 8.097251e+08
9.549915e+10 1.010921e+10 -3.447598e+08
7.457013e+10 -6.458548e+10 2.206112e+09
-5.488907e+10 -8.022329e+10 -5.013089e+08
-8.350980e+10 -4.858593e+10 -8.478880e+08
7.050674e+09 1.037900e+11 2.589213e+09
5.674833e+10 7.905677e+10 -2.436977e+09
-2.397757e+10 -1.003595e+11 -2.654746e+09
-2.566024e+10 -9.110270e+10 1.396678e+07
2.134981e+10 -9.328287e+10 -3.283775e+08
-8.070598e+10 5.300580e+10 3.531137e+08
-9.213256e+10 2.928874e+10 4.678649e+08
2.860879e+10 9.272158e+10 1.224402e+09
7.456999e+10 -6.296444e+10 6.413417e+08
1.787931e+09 -9.935351e+10 -1.341125e+09
8.370938e+10 -4.711430e+10 2.650300e+08
8.981503e+10 -3.864585e+10 -1.752583e+09
3.360433e+09 9.454793e+10 -8.998743e+08
6.400209e+10 -7.566357e+10 1.766493e+08
4.461378e+10 8.824061e+10 -3.956461e+08
1.712513e+10 1.002674e+11 4.360166e+08
9.604663e+10 1.518890e+10 9.851282e+08
6.061674e+10 7.442672e+10 -3.399342e+08
3.815885e+10 -8.808257e+10 5.297053e+08
7.738917e+10 -6.324393e+10 -1.017195e+09
7.670148e+10 -5.791861e+10 6.457631e+07
2.049830e+10 -9.589040e+10 8.367421e+08
-2.675629e+10 9.316298e+10 1.230270e+09
9.610884e+10 9.467890e+09 8.361369e+08
6.113326e+10 -7.881883e+10 4.595855e+08
1.008840e+11 -2.233813e+10 -2.556455e+08
5.106691e+10 -8.665754e+10 -1.151140e+09
-4.795058e+10 -9.042425e+10 -2.207065e+09
3.665385e+10 -8.884212e+10 -4.486032e+08
-1.061472e+10 -9.780448e+10 -9.728384e+08
-6.267848e+10 -7.162926e+10 -3.575195e+08
-6.439744e+09 -9.711205e+10 -9.542209e+08
-1.630177e+09 -9.851128e+10 1.394205e+09
8.049396e+10 -5.801233e+10 1.653831e+09
7.804061e+10 -5.412698e+10 1.030356e+08
5.448189e+10 -8.040056e+10 1.360104e+08
2.501600e+10 9.229371e+10 -1.475286e+09
6.318929e+10 7.794316e+10 1.614395e+08
1.007106e+11 1.111916e+10 5.679289e+08
1.009603e+11 -1.210868e+10 9.916964e+08
-8.438096e+09 1.017529e+11 9.734497e+08
4.040233e+09 -9.853382e+10 9.168079e+08
-7.154152e+10 6.598873e+10 -1.645685e+09
-7.123995e+10 6.690019e+10 8.160771e+08
-9.722420e+10 4.941727e+09 -2.188864e+09
-4.267364e+10 8.904959e+10 -1.081008e+09
5.017589e+10 -8.372930e+10 4.798649e+07
-4.210066e+10 9.132906e+10 1.826350e+09
-9.937977e+10 4.351217e+09 1.243146e+09
-8.685094e+10 -5.259824e+10 2.641618e+09
-7.272085e+10 -6.665132e+10 -1.316588e+09
8.905026e+10 -3.923821e+10 1.393992e+08
-2.495109e+10 -1.006868e+11 7.990349e+08
9.141399e+10 -4.299558e+10 5.670507e+08
2.357962e+10 9.436906e+10 -7.030444e+08
-1.313016e+10 -9.943815e+10 -1.151792e+09
-8.607115e+10 -5.039434e+10 2.327536e+09
4.316842e+10 -8.542345e+10 1.015954e+09
7.385672e+10 6.196382e+10 7.884037e+08
4.504519e+10 8.486564e+10 -1.085922e+09
9.821439e+10 1.781158e+10 2.243546e+09
-4.347158e+09 -9.853819e+10 -1.157148e+09
-8.910144e+10 -3.847355e+10 1.793927e+09
9.418264e+10 4.374654e+10 -3.278038e+08
9.977700e+10 3.172314e+10 -1.968120e+08
9.007078e+10 -4.092722e+10 2.392702e+08
9.830742e+10 1.441128e+10 -6.661616e+08
9.110729e+10 3.689536e+10 1.903447e+08
4.019397e+10 -8.867157e+10 -1.122408e+09
9.807675e+10 1.851920e+10 2.148716e+08
-8.408018e+10 -5.609380e+10 8.700283e+08
-3.254031e+10 -9.430790e+10 -1.094507e+09
6.042537e+10 -7.760302e+10 7.654235e+07
8.839243e+10 3.417309e+10 -4.182397e+08
9.367000e+10 1.903236e+10 6.540007e+08
9.472094e+10 1.358901e+10 -7.836279e+08
9.569858e+10 7.723667e+07 -5.077538e+08
-8.156180e+10 -5.470828e+10 1.769027e+09
-8.057700e+10 -5.154752e+10 -1.538140e+09
-3.739108e+10 -9.439229e+10 2.597884e+08
6.458677e+10 -7.107153e+10 -1.944523e+09
-7.787693e+10 6.084976e+10 1.716601e+09
-9.760599e+10 -9.020765e+09 2.005239e+09
-4.497200e+10 8.864816e+10 2.523360e+09
-6.819963e+10 6.878678e+10 -2.027532e+09
-9.988969e+10 1.031730e+10 -3.160290e+09
9.060675e+10 -4.555504e+10 -1.256949e+08
-1.958693e+10 -9.638397e+10 -1.354412e+09
8.874589e+09 -9.950603e+10 -3.990629e+07
1.002446e+11 -1.083968e+09 -1.110712e+08
4.814657e+10 -8.416428e+10 4.339808e+08
-3.053820e+10 -9.681616e+10 -9.578347e+08
2.182102e+10 9.848513e+10 -1.549093e+09
9.939874e+10 1.738591e+10 1.679408e+09
-4.054951e+10 9.429977e+10 2.893027e+09
-5.380067e+10 8.593702e+10 2.227452e+09
-6.344838e+10 8.092826e+10 -2.426782e+09
-9.973435e+10 2.028704e+10 -2.676003e+09
-1.002402e+11 2.362245e+10 3.288479e+09
-5.714820e+10 8.565288e+10 -3.286960e+09
-8.930770e+10 4.898417e+10 2.550010e+09
-9.350362e+10 3.814104e+10 3.397891e+09
3.030758e+10 -9.172799e+10 -1.443653e+07
-9.777093e+10 -2.315312e+10 -6.245956e+08
-9.890190e+10 -1.976190e+10 3.282257e+09
-2.703373e+09 1.019085e+11 2.863191e+08
5.909185e+10 7.668474e+10 -5.837433e+08
8.630607e+10 4.696293e+10 -5.110919e+08
9.124460e+10 3.123971e+10 5.847181e+08
9.290850e+10 2.359792e+10 -6.212233e+08
7.866101e+10 6.064784e+10 -1.548445e+09
8.581185e+10 4.267697e+10 2.408540e+08
-2.320972e+10 -9.932730e+10 2.344698e+08
2.633090e+10 -9.352275e+10 -7.770193e+07
6.781042e+10 -6.946963e+10 -4.986330e+08
-7.396575e+10 -7.447017e+10 1.277652e+09
-3.181251e+10 9.300808e+10 -1.609685e+09
-9.812837e+10 -1.105073e+10 -2.006808e+09
-4.550354e+10 8.724956e+10 -2.065602e+09
-9.759276e+10 1.200860e+10 2.014787e+09
-7.997067e+10 -6.112100e+10 1.522938e+08
7.076043e+10 -6.450804e+10 -1.276420e+08
-6.568690e+10 -7.404424e+10 8.038020e+08
-1.811974e+10 -1.015163e+11 1.407701e+09
2.385234e+10 -9.604811e+10 -8.506364e+08
4.146854e+10 -9.129956e+10 2.676880e+08
9.648711e+10 -2.545563e+10 -1.326963e+09
8.610154e+10 -5.070938e+10 -8.285292e+08
8.947458e+10 -4.787865e+10 -1.074863e+09
9.671268e+10 -1.961359e+10 -4.194067e+08
-4.952629e+10 -8.197849e+10 -1.028373e+08
9.721056e+10 1.417114e+10 -1.081590e+09
-1.319709e+10 9.954239e+10 -1.622527e+09
-3.023165e+10 -9.144569e+10 1.997314e+09
8.130139e+10 6.270512e+10 1.583208e+09
-8.867926e+09 -9.730373e+10 1.657483e+09
9.880994e+10 -1.756295e+10 -1.532894e+09
6.026076e+10 -8.002669e+10 -9.961182e+08
-4.387902e+10 -8.414831e+10 -8.051428e+08
-7.365327e+10 6.548001e+10 2.665346e+06
-9.787491e+10 2.602218e+09 1.010438e+08
-9.722055e+10 7.183645e+09 4.369816e+08
-8.068298e+10 -5.021304e+10 1.959906e+09
-5.926359e+10 -7.994327e+10 -1.426202e+09
9.736711e+10 -4.176695e+10 1.782570e+08
-6.990530e+10 -7.034827e+10 1.318808e+08
-3.592136e+09 -9.795988e+10 -1.280994e+09
8.578487e+10 5.152836e+10 4.556136e+08
8.793100e+10 3.879214e+10 6.321756e+08
8.555388e+10 4.685532e+10 -1.482363e+09
-9.816513e+10 -7.785145e+09 -2.050071e+09
-9.790858e+10 -1.957473e+09 -1.229006e+09
-7.646237e+10 6.267386e+10 -1.217204e+09
-5.251352e+10 8.343567e+10 -1.789923e+09
-9.882084e+10 1.014237e+10 1.293911e+09
-9.861583e+10 -3.956742e+09 -2.082643e+09
-9.654180e+10 2.002836e+10 1.796951e+09
1.258547e+10 -9.593892e+10 1.935410e+09
-9.456798e+10 -2.101967e+10 1.314506e+09
8.984652e+10 -3.872300e+10 1.364505e+09
-5.840095e+09 -9.838433e+10 -8.674276e+08
6.211595e+10 7.282424e+10 7.217440e+07
5.600671e+10 7.840134e+10 -9.665679e+08
3.902100e+10 8.766589e+10 -1.120832e+09
-1.600218e+09 -9.833644e+10 -1.351198e+09
-1.688688e+10 9.368453e+10 -6.762550e+08
-7.265399e+10 -6.515518e+10 -7.147896e+08
5.031670e+10 -8.100213e+10 -6.429361e+08
8.390223e+09 -9.723907e+10 4.346212e+08
-2.264296e+10 9.483431e+10 5.706315e+08
-4.691976e+10 8.712999e+10 -2.062140e+09
-6.652827e+10 7.437756e+10 2.380391e+09
-8.977239e+10 4.213881e+10 -4.345973e+08
-9.604955e+10 -2.845696e+10 2.386529e+09
-3.426734e+10 9.301904e+10 -4.527753e+08
-6.062345e+10 7.922693e+10 2.223302e+09
-9.619380e+10 2.949063e+10 -1.515270e+09
-9.925978e+10 1.404320e+10 2.390482e+09
-9.811071e+10 -1.436105e+10 -4.343021e+08
3.364480e+09 -9.790328e+10 1.143725e+09
-8.478273e+10 5.431336e+10 -1.537629e+09
-9.039151e+10 -4.400783e+10 -1.121452e+09
-2.361132e+10 -1.001677e+11 1.512059e+09
-6.884959e+10 -6.770361e+10 -9.082894e+07
-4.645198e+10 -9.011221e+10 -4.888071e+08
5.779647e+10 -8.174200e+10 1.320234e+08
3.646373e+10 9.028895e+10 -1.684010e+09
7.933032e+10 -5.557633e+10 -9.737872e+08
9.942573e+10 1.633990e+10 1.412113e+09
-9.123199e+10 -3.604666e+10 -7.784061e+08
-5.526691e+10 -8.154210e+10 -8.932164e+08
-9.022768e+10 -4.578692e+10 -6.375161e+08
1.370349e+09 -9.835994e+10 1.268108e+09
-1.042876e+10 9.550760e+10 2.228038e+08
-6.169742e+10 7.705968e+10 1.764501e+09
9.574257e+10 -1.512368e+10 -3.203893e+08
9.545034e+10 -2.505434e+10 -1.548343e+09
-8.621436e+10 -5.392627e+10 -3.783180e+08
-3.272231e+10 -8.768399e+10 -1.338759e+09
-2.161176e+10 -9.838994e+10 2.631793e+09
-7.317389e+09 9.821428e+10 8.081895e+08
4.784783e+10 -8.344614e+10 -5.211276e+08
-5.950676e+10 -7.987984e+10 -6.553341e+08
9.725983e+10 -1.237990e+10 3.682114e+08
-4.504805e+10 -9.183034e+10 -1.731859e+09
4.134955e+10 -9.360608e+10 9.576604e+08
-7.957774e+10 -5.949395e+10 4.861394e+08
7.644831e+10 5.969894e+10 -1.616355e+09
4.854035e+10 -8.513277e+10 -8.533463e+08
2.142375e+10 -9.505078e+10 -1.162459e+09
-1.150347e+10 9.777355e+10 -2.332145e+08
9.616370e+10 -2.753951e+10 -7.357411e+08
7.144230e+10 -6.962075e+10 9.800054e+08
-6.447761e+10 -7.569040e+10 -1.127266e+09
8.381566e+10 5.766548e+10 2.512830e+07
-8.859231e+10 -3.880989e+10 8.356536e+08
9.628491e+10 1.128888e+10 -1.875329e+09
6.276544e+10 7.495341e+10 8.950508e+08
9.027290e+10 -3.422975e+10 9.618090e+08
2.925283e+10 9.513772e+10 9.693550e+08
9.498621e+10 2.464834e+10 9.899749e+08
-4.224692e+09 9.727926e+10 -1.767917e+09
9.924029e+10 -1.573067e+10 1.145409e+08
8.854636e+10 -4.014156e+10 -1.101658e+08
-6.662472e+10 -7.052648e+10 1.368614e+08
3.153357e+10 9.069460e+10 1.457601e+08
8.239391e+10 4.992724e+10 -1.281291e+09
1.249665e+10 -9.709286e+10 1.575409e+09
3.558206e+10 9.151064e+10 -8.680043e+08
3.282071e+10 9.542820e+10 -1.411627e+09
8.945836e+10 4.407059e+10 1.057892e+09
9.488410e+10 3.223679e+10 1.287336e+09
-9.609212e+10 -2.462773e+10 1.040617e+09
-6.347894e+10 7.622003e+10 9.900181e+08
-5.178395e+10 8.551577e+10 -9.542424e+08
-7.145425e+10 -6.740454e+10 -1.167561e+08
-9.311810e+10 3.957761e+10 -1.032765e+09
-3.833804e+10 9.334792e+10 -1.029675e+09
-9.774561e+10 1.731036e+10 9.931662e+08
-5.677243e+10 8.029678e+10 9.357990e+08
-9.953757e+10 -1.841379e+10 -1.075496e+09
-9.565093e+10 2.568686e+10 -1.234245e+09
-8.536312e+10 5.039174e+10 -1.357094e+09
8.119917e+10 -6.107397e+10 1.752624e+09
-9.526206e+10 -3.602750e+10 -7.838254e+08
2.159639e+10 -9.624440e+10 -1.368970e+09
-7.454627e+10 -6.159026e+10 5.621199e+08
-5.891384e+10 -7.542124e+10 1.187121e+09
-3.445766e+10 -9.472301e+10 -8.554769e+08
9.180205e+10 3.908515e+10 -1.522306e+09
8.595923e+10 4.570220e+10 1.415446e+09
9.265821e+10 -3.855790e+10 -2.487293e+08
7.657389e+10 6.023870e+10 1.506386e+09
2.330192e+10 9.796071e+10 5.941408e+08
9.029187e+10 -4.151959e+10 -6.103699e+08
2.772404e+10 -9.663229e+10 1.128540e+09
7.224785e+10 -6.838656e+10 -2.358750e+09
-8.096082e+10 -5.946847e+10 2.489099e+08
-2.216735e+10 -9.804249e+10 -9.396640e+08
8.393301e+10 -5.887013e+10 -3.658887e+07
8.922019e+10 -3.681439e+10 -2.129448e+08
9.811566e+10 -1.779613e+10 -9.158993e+08
2.497297e+10 9.295895e+10 3.041588e+06
9.818985e+10 -1.055245e+08 -2.230563e+09
5.157402e+10 8.884943e+10 1.014029e+09
9.196016e+10 -3.117518e+10 -1.943368e+09
8.114179e+10 -5.244924e+10 2.154547e+09
-1.728904e+10 -9.611377e+10 4.828810e+08
-8.348641e+10 -5.531191e+10 -2.980269e+09
4.734945e+10 8.608809e+10 -1.196867e+09
-9.058372e+10 -4.522099e+10 1.251558e+09
-5.789494e+10 -8.385998e+10 3.543735e+08
-9.639379e+09 9.597475e+10 9.339905e+08
1.335711e+10 9.589356e+10 2.307460e+08
7.877564e+10 -6.567642e+10 -1.388837e+09
-6.920999e+10 -7.147913e+10 4.090855e+08
8.947328e+10 -5.078954e+10 3.175304e+08
9.238017e+10 -4.282412e+10 -7.853559e+08
7.049234e+10 -6.307634e+10 3.266868e+08
-8.630905e+10 -5.004821e+10 1.177686e+09
-2.082149e+09 1.004595e+11 7.179185e+08
6.835298e+10 7.384775e+10 -1.943885e+09
8.561828e+10 -4.044092e+10 -1.341846e+08
2.584976e+10 -9.489200e+10 -7.460325e+08
-6.258942e+09 -1.001230e+11 9.553251e+08
8.928921e+10 -3.564356e+10 5.997093e+08
1.796951e+10 -9.784861e+10 5.604492e+08
-5.524669e+09 1.021410e+11 3.249870e+09
7.029194e+10 6.986951e+10 -4.942199e+08
6.991782e+10 6.994330e+10 1.005259e+09
7.296733e+10 -6.766992e+10 -6.233137e+08
9.848715e+10 1.182108e+10 1.444671e+09
-7.848798e+10 -6.383366e+10 3.042538e+08
2.809823e+10 -9.563648e+10 6.740285e+08
-5.005666e+10 -8.794882e+10 -1.095949e+09
-1.339276e+10 9.969546e+10 -1.622539e+09
7.643885e+10 -6.671701e+10 -2.182263e+09
8.274965e+10 -5.802407e+10 2.110090e+08
8.636722e+10 -5.041877e+10 -8.409268e+08
6.708890e+09 -1.011165e+11 3.484700e+09
2.470259e+10 -9.862199e+10 7.718024e+08
-1.818192e+10 -9.901233e+10 -8.138961e+07
8.266803e+10 -5.151322e+10 -5.846264e+08
-6.436784e+09 -9.682604e+10 5.535848e+08
9.600929e+10 1.559175e+10 -5.565550e+07
2.665025e+10 9.503480e+10 -1.191212e+08
-1.925251e+10 -9.573866e+10 -7.298460e+08
1.683567e+10 9.315292e+10 1.404146e+09
2.287942e+10 -9.954674e+10 -2.063884e+09
-7.885431e+10 -5.622855e+10 -1.119773e+08
-8.528832e+10 -4.374131e+10 -8.009077e+08
7.329717e+10 -6.838339e+10 -2.463492e+09
5.125930e+10 -8.267681e+10 -2.866533e+08
6.447701e+10 -7.853303e+10 -7.478967e+08
-2.656543e+10 9.572204e+10 -1.015942e+09
1.477082e+10 -9.583467e+10 8.554582e+08
-8.755473e+10 4.805955e+10 -7.039442e+08
-9.874783e+10 -2.235554e+10 -2.558701e+09
-4.073919e+10 8.946664e+10 -2.655801e+09
-9.483144e+10 3.797977e+10 -3.234530e+08
-9.957909e+10 2.087863e+10 -2.927511e+09
-5.438526e+10 8.596981e+10 2.934587e+09
3.326479e+10 -9.570084e+10 -3.474077e+07
-2.802584e+10 9.474905e+10 5.406229e+08
7.512025e+10 -6.609070e+10 -1.631099e+09
4.164449e+10 8.961534e+10 1.066497e+09
-2.665532e+10 9.684206e+10 1.928543e+09
7.691175e+10 -6.062817e+10 -1.306534e+09
8.983385e+10 4.071599e+10 -5.114226e+07
-9.512228e+10 2.799992e+10 -1.069835e+09
-8.407709e+10 5.256416e+10 -1.061104e+09
-8.538886e+10 -4.989686e+10 1.855684e+09
-6.018447e+10 -7.698376e+10 -1.468624e+08
9.626892e+10 -3.424026e+10 -2.790269e+09
8.526896e+10 -5.549554e+10 1.298485e+09
7.807938e+10 -6.002612e+10 1.850013e+09
7.687379e+10 -6.820498e+10 -3.941911e+07
-5.466438e+10 -8.173445e+10 -3.096697e+09
9.818908e+10 1.904776e+09 9.972052e+08
8.791801e+10 -4.143141e+10 -1.537052e+08
-2.762342e+10 -9.323759e+10 -1.066399e+09
-3.114616e+09 -9.589331e+10 8.915282e+08
3.096191e+10 -9.166282e+10 -1.316671e+09
1.182120e+10 1.000921e+11 3.798609e+08
4.365600e+10 9.009775e+10 2.570723e+08
9.514989e+10 -3.111130e+10 2.450144e+08
8.193873e+10 -5.720486e+10 -1.073550e+09
2.826141e+10 9.396665e+10 -1.280521e+08
9.313481e+10 -2.410631e+10 -1.621090e+08
7.831119e+10 5.556508e+10 -1.206667e+09
-2.897122e+10 -8.993253e+10 -2.215459e+07
-5.149536e+09 -9.628737e+10 1.349044e+08
2.884275e+09 -9.642031e+10 -1.162504e+09
6.064424e+10 -7.198201e+10 9.240213e+08
7.045137e+10 -6.695505e+10 5.242723e+08
4.141438e+10 -8.886872e+10 7.361692e+08
-2.803893e+10 9.468911e+10 1.902854e+09
8.598808e+10 -5.328667e+10 -1.083982e+09
-3.984267e+10 -8.777830e+10 -4.656513e+08