# vtk DataFile Version 2.0
Electric current density generated by TTH
ASCII
DATASET UNSTRUCTURED_GRID
POINTS 19084 double
4.111424e-05 1.460320e-05 -7.446345e-23
-1.831406e-05 -3.960087e-05 -7.446345e-23
-2.878127e-05 3.271509e-05 1.776230e-07
-1.260988e-05 -4.170886e-05 1.776230e-07
3.197911e-05 2.880819e-05 1.056169e-07
4.336670e-05 1.533583e-06 -2.965067e-07
4.336670e-05 -1.533583e-06 -2.965067e-07
-4.153395e-05 1.137949e-05 -1.541958e-07
-4.231226e-05 8.015916e-06 -1.546153e-07
-4.046075e-05 1.474752e-05 -1.541958e-07
-3.170537e-05 2.914329e-05 -1.541958e-07
-1.403715e-05 4.071265e-05 -1.541958e-07
-1.814061e-05 -3.968063e-05 -7.446345e-23
-4.256399e-05 -6.547368e-06 -1.541958e-07
-2.209294e-05 3.696570e-05 -1.541958e-07
-5.801453e-06 -4.267206e-05 -1.541958e-07
-3.899827e-05 -1.826736e-05 -1.541958e-07
3.160932e-06 -4.294870e-05 -1.546153e-07
1.944300e-05 3.843365e-05 -1.657136e-07
1.443530e-05 4.060963e-05 -2.014729e-07
-4.329061e-05 5.023836e-06 1.662943e-07
-3.875326e-05 1.993742e-05 1.662943e-07
-3.832519e-05 -2.074838e-05 1.662943e-07
-1.796682e-05 -3.975962e-05 -7.446345e-23
-1.976767e-05 -3.884012e-05 1.662943e-07
-4.274070e-05 -5.281832e-06 -1.562216e-07
-2.318058e-05 3.629498e-05 -1.562216e-07
1.332582e-05 -4.095226e-05 -1.562216e-07
-3.844021e-05 -1.941688e-05 -1.562216e-07
-1.714474e-06 4.303168e-05 -1.562216e-07
-2.983296e-05 -3.105897e-05 -1.562216e-07
-2.804788e-05 -3.267999e-05 -1.562216e-07
-3.282704e-05 -2.787563e-05 -1.562216e-07
-3.255695e-05 2.819060e-05 -1.562216e-07
-1.779268e-05 -3.983785e-05 -7.446345e-23
-4.204344e-05 9.328126e-06 -1.562216e-07
5.617923e-06 -4.269782e-05 -1.562216e-07
-3.500626e-05 -2.508439e-05 -1.562216e-07
1.101290e-05 -4.163389e-05 -1.562216e-07
-4.533017e-06 -4.282659e-05 -1.562216e-07
-9.022328e-06 -4.241785e-05 -3.013600e-07
3.660754e-05 -2.278422e-05 -2.219114e-07
1.940434e-05 -3.847755e-05 -1.951400e-07
1.941573e-05 3.841243e-05 1.027716e-07
-2.323946e-05 -3.629227e-05 1.972129e-07
-1.761820e-05 -3.991532e-05 -7.446345e-23
-7.286777e-06 -4.247473e-05 1.971989e-07
-3.029503e-05 -3.064981e-05 1.971989e-07
-3.995192e-05 1.615685e-05 1.971989e-07
-3.244694e-05 -2.836188e-05 1.971989e-07
-2.735494e-05 3.330026e-05 1.971989e-07
-4.193429e-05 9.935583e-06 1.971989e-07
-3.046428e-06 -4.298743e-05 1.971989e-07
-1.545518e-05 4.022857e-05 1.971989e-07
-2.130269e-05 -3.746192e-05 1.971989e-07
-1.099203e-06 4.308124e-05 1.972129e-07
-1.744338e-05 -3.999203e-05 -7.446345e-23
-1.879988e-05 3.877840e-05 1.971989e-07
-4.305539e-05 1.853076e-06 1.971989e-07
-3.963799e-05 -1.691241e-05 1.971989e-07
-3.588003e-05 -2.387098e-05 1.971989e-07
-1.725871e-05 -3.948846e-05 1.972129e-07
-4.151062e-05 -1.157880e-05 1.971989e-07
-1.598189e-05 -4.002224e-05 1.971989e-07
-1.754514e-05 3.936201e-05 1.971989e-07
-4.244247e-05 7.472481e-06 1.972129e-07
1.042312e-05 -4.181577e-05 1.971989e-07
-1.726823e-05 -4.006797e-05 -7.446345e-23
-3.662800e-05 -2.270663e-05 1.972129e-07
-3.941256e-05 1.743132e-05 1.972129e-07
-3.423716e-05 2.617285e-05 1.972129e-07
-4.084573e-05 -1.374146e-05 1.972129e-07
-2.080912e-05 3.773832e-05 1.971989e-07
2.606229e-06 -4.301638e-05 1.972129e-07
-4.284115e-05 -4.672876e-06 1.971989e-07
-4.309331e-05 -4.091702e-07 1.972129e-07
-1.385943e-05 -4.080584e-05 1.971989e-07
-1.664677e-06 -4.306308e-05 1.971984e-07
-1.709275e-05 -4.014314e-05 -7.446345e-23
-2.759616e-05 -3.310065e-05 1.972129e-07
1.391997e-05 -4.078522e-05 1.971989e-07
3.815304e-05 -1.992172e-05 1.041787e-07
4.282871e-05 -4.450787e-06 -1.448775e-07
4.282871e-05 4.450787e-06 -1.448775e-07
-4.230297e-05 7.977790e-06 1.230978e-07
3.124109e-06 -4.293514e-05 1.230978e-07
-4.186386e-05 -1.210463e-05 1.699342e-07
-1.577822e-05 -4.062208e-05 1.699342e-07
-3.253862e-05 -2.898868e-05 1.699342e-07
-1.691694e-05 -4.021754e-05 -7.446345e-23
-4.341740e-05 3.746346e-06 1.699342e-07
-2.797864e-05 3.341109e-05 1.699342e-07
-4.355418e-05 1.462569e-06 1.699342e-07
-6.962531e-06 -4.301893e-05 1.699342e-07
-1.524366e-05 4.082568e-05 1.699342e-07
1.014021e-05 -4.238256e-05 1.699342e-07
-4.336448e-05 -4.315923e-06 1.699342e-07
-1.736525e-05 3.996941e-05 1.699342e-07
-2.140207e-05 3.796125e-05 1.699342e-07
-4.055265e-05 1.595581e-05 1.699342e-07
-1.674081e-05 -4.029118e-05 -7.446345e-23
-4.230796e-05 1.044711e-05 1.699342e-07
-3.991937e-05 -1.747997e-05 1.699342e-07
-3.605295e-05 -2.448040e-05 1.699342e-07
-1.938031e-05 3.903215e-05 1.699342e-07
-3.092627e-05 -3.070295e-05 1.699342e-07
-3.491033e-06 -4.343867e-05 1.699342e-07
-1.362457e-05 -4.139416e-05 1.699342e-07
-2.189851e-05 -3.767706e-05 1.699342e-07
1.446504e-05 -4.110800e-05 1.699342e-07
3.356709e-06 -4.315225e-05 3.008155e-07
4.104995e-05 1.478295e-05 -7.446345e-23
-1.656436e-05 -4.036404e-05 -7.446345e-23
-4.249227e-05 8.233533e-06 3.008155e-07
-1.986645e-05 -3.826312e-05 -2.164412e-07
-3.817098e-05 2.004921e-05 -2.192873e-07
-3.807890e-05 -2.021732e-05 -2.164412e-07
-2.958074e-05 -3.201353e-05 1.558179e-07
-2.902226e-05 -3.252068e-05 1.558179e-07
-3.376437e-05 -2.756544e-05 1.558179e-07
-3.330061e-06 4.346029e-05 1.558179e-07
1.195939e-05 -4.191491e-05 1.558179e-07
-3.423638e-05 -2.697697e-05 1.558179e-07
-1.638759e-05 -4.043613e-05 -7.446345e-23
-2.577412e-06 4.351142e-05 1.558179e-07
1.268300e-05 -4.170165e-05 1.558179e-07
1.903427e-05 3.920133e-05 1.709162e-07
1.955208e-05 -3.869879e-05 -3.024410e-07
1.597581e-05 4.019853e-05 -2.958849e-07
4.101860e-05 -1.346899e-05 2.625608e-07
-3.894348e-05 1.907747e-05 -3.015587e-07
-4.296966e-05 5.844017e-06 -3.015587e-07
-2.479478e-05 -3.557756e-05 -3.015587e-07
-1.519717e-05 -4.039734e-05 -2.551424e-07
-1.621050e-05 -4.050745e-05 -7.446345e-23
-4.179000e-05 1.079329e-05 -2.551424e-07
-4.299226e-05 -3.816341e-06 -2.551424e-07
9.594884e-06 -4.208132e-05 -2.551424e-07
-1.960583e-05 3.845140e-05 -2.551424e-07
-2.159680e-05 3.736947e-05 -2.551424e-07
-3.095258e-05 -3.008050e-05 -2.551424e-07
-4.314999e-05 9.884747e-07 -2.551424e-07
-3.544704e-05 -2.462531e-05 -2.551424e-07
-4.255873e-05 -7.187021e-06 -2.551424e-07
-3.191895e-05 -2.905305e-05 -2.551424e-07
-1.603311e-05 -4.057799e-05 -7.446345e-23
-2.806195e-05 3.279369e-05 -2.551424e-07
-4.303865e-05 3.251693e-06 -2.551424e-07
-1.466560e-05 4.059334e-05 -2.551424e-07
-3.741953e-05 2.150995e-05 -2.551424e-07
-1.677580e-05 3.976772e-05 -2.551424e-07
-3.935014e-05 -1.773316e-05 -2.551424e-07
-4.033046e-05 1.537378e-05 -2.551424e-07
-4.133268e-05 -1.243016e-05 -2.551424e-07
-3.916180e-06 -4.298328e-05 -2.551424e-07
-2.208546e-05 -3.708277e-05 -2.551424e-07
-1.585541e-05 -4.064775e-05 -7.446345e-23
-6.441100e-06 -4.267799e-05 -2.551424e-07
-1.305611e-05 -4.113924e-05 -2.551424e-07
6.254302e-06 -4.270577e-05 -2.551424e-07
1.475984e-05 -4.055917e-05 -2.551424e-07
-4.300361e-05 5.203560e-06 3.038765e-07
-3.799196e-05 -2.080861e-05 3.038765e-07
-3.861498e-05 1.962831e-05 3.038765e-07
-1.945916e-05 -3.870050e-05 3.038765e-07
3.560532e-05 -2.484153e-05 2.909711e-07
1.786343e-05 3.951395e-05 -3.016896e-07
-1.567741e-05 -4.071674e-05 -7.446345e-23
7.773887e-06 4.287665e-05 -1.743541e-07
1.613846e-05 -4.048123e-05 1.686533e-07
4.208632e-05 9.213457e-06 1.818794e-07
4.208632e-05 -9.213457e-06 1.818794e-07
2.883841e-07 -4.331653e-05 3.038827e-07
-2.590727e-05 -3.471626e-05 3.038827e-07
4.745235e-06 4.313474e-05 2.962405e-07
1.825111e-05 3.956989e-05 1.737226e-07
3.518468e-05 -2.490636e-05 -2.111208e-07
3.666082e-05 2.322246e-05 -2.957683e-07
-1.549910e-05 -4.078495e-05 -7.446345e-23
1.941596e-05 -3.841278e-05 1.039114e-07
3.527526e-05 -2.477916e-05 -2.118629e-07
1.621090e-05 4.044197e-05 1.821860e-07
-3.616801e-06 4.342495e-05 1.748912e-07
-1.350332e-05 4.143028e-05 1.748912e-07
-1.131038e-05 4.208186e-05 1.748912e-07
-1.020184e-05 4.236426e-05 1.748912e-07
-7.964439e-06 4.284128e-05 1.748912e-07
-4.755453e-06 4.331505e-05 1.748912e-07
-9.086272e-06 4.261746e-05 1.748912e-07
-1.532050e-05 -4.085237e-05 -7.446345e-23
-1.241113e-05 4.177047e-05 1.748912e-07
-4.182528e-05 1.222512e-05 1.748912e-07
-3.440453e-05 -2.674203e-05 1.748912e-07
3.698015e-05 -2.307765e-05 1.514562e-07
-3.488298e-05 -2.547437e-05 2.738109e-07
-4.933019e-06 -4.291190e-05 2.738109e-07
5.249006e-06 -4.287440e-05 2.738109e-07
1.140191e-05 4.186356e-05 2.976599e-07
-2.954106e-05 3.178137e-05 -2.972512e-07
-3.551778e-05 2.492422e-05 -2.972512e-07
-1.514160e-05 -4.091901e-05 -7.446345e-23
-4.223565e-05 -9.943824e-06 -2.972512e-07
1.913426e-05 3.887719e-05 3.039919e-07
1.580103e-05 4.019021e-05 -2.688983e-07
4.186167e-05 -1.213811e-05 1.587235e-07
3.499199e-05 2.569809e-05 2.910027e-07
3.922754e-05 1.896793e-05 1.785164e-07
-5.586823e-06 -4.298110e-05 -3.035968e-07
-4.141275e-05 1.278951e-05 -3.035968e-07
-4.080837e-05 1.460355e-05 -3.035968e-07
-2.927218e-05 -3.196446e-05 -3.035968e-07
-1.496242e-05 -4.098487e-05 -7.446345e-23
-3.208162e-05 2.914372e-05 -3.035968e-07
-5.383056e-06 4.300709e-05 -3.035968e-07
-2.755877e-06 4.325497e-05 -3.035968e-07
-3.392394e-05 -2.697690e-05 -3.035968e-07
4.629564e-06 -4.309471e-05 -3.035968e-07
1.242663e-05 -4.152308e-05 -3.035968e-07
3.063809e-05 -3.047665e-05 2.827050e-07
4.220517e-05 -9.861511e-06 3.036334e-07
4.339434e-05 7.074643e-07 -2.950085e-07
4.339434e-05 -7.074643e-07 -2.950085e-07
4.098487e-05 1.496242e-05 -7.446345e-23
-1.478295e-05 -4.104995e-05 -7.446345e-23
4.304914e-05 -2.062816e-06 2.009956e-07
4.304914e-05 2.062816e-06 2.009956e-07
-2.322696e-05 3.624390e-05 1.211301e-07
-2.862487e-05 3.215165e-05 1.211301e-07
8.743822e-06 -4.215041e-05 1.211301e-07
-4.168092e-05 -1.076162e-05 1.211301e-07
-1.221372e-05 -4.127877e-05 1.211301e-07
-3.469892e-05 2.547738e-05 1.211301e-07
1.338351e-05 -4.091446e-05 1.211095e-07
-4.273090e-05 -5.213552e-06 1.211095e-07
-1.460320e-05 -4.111424e-05 -7.446345e-23
-3.277016e-05 -2.791465e-05 1.211095e-07
-2.798558e-05 -3.270961e-05 1.211095e-07
-1.802623e-05 3.909176e-05 1.211095e-07
-3.969868e-05 1.664711e-05 1.211095e-07
-3.614193e-05 -2.338530e-05 1.211095e-07
-1.647243e-06 4.301625e-05 1.211095e-07
-2.494757e-06 -4.297543e-05 1.211095e-07
[...]
POINT_DATA 19084
VECTORS 10.000GHz_fone_imag double
5.251479e+10 -1.492978e+11 7.335397e+08
-1.453112e+11 6.362727e+10 -2.523050e+08
1.175732e+11 1.046647e+11 1.072901e+09
-1.517815e+11 4.493564e+10 1.778990e+09
1.113038e+11 -1.210322e+11 1.031728e+08
5.745403e+09 -1.568631e+11 -2.625012e+09
-5.745821e+09 -1.568635e+11 2.625031e+09
4.337807e+10 1.548565e+11 -2.939432e+09
2.768308e+10 1.607974e+11 1.559657e+08
5.468658e+10 1.515994e+11 2.469041e+09
1.082527e+11 1.191321e+11 3.093891e+09
1.527278e+11 5.187101e+10 -3.016966e+09
-1.412357e+11 6.854003e+10 -6.458046e+08
-2.359925e+10 1.592455e+11 -3.071165e+09
1.374847e+11 8.322819e+10 2.958527e+09
-1.603787e+11 2.136531e+10 2.608901e+09
-6.903615e+10 1.458361e+11 3.300072e+09
-1.637376e+11 -9.514295e+09 -6.980894e+08
1.421266e+11 -7.480998e+10 -4.243689e+09
1.502342e+11 -5.603211e+10 -2.688107e+09
2.024791e+10 1.582901e+11 -8.452888e+08
7.174194e+10 1.428777e+11 5.457785e+08
-7.626750e+10 1.381929e+11 2.094877e+08
-1.452043e+11 6.162901e+10 2.030637e+08
-1.425456e+11 7.017666e+10 4.494541e+08
-1.807783e+10 1.599499e+11 -6.882745e+08
1.357619e+11 8.920795e+10 -1.409316e+08
-1.541259e+11 -5.275731e+10 -5.743877e+08
-7.083292e+10 1.441441e+11 -3.151247e+09
1.628843e+11 4.004746e+09 5.847519e+08
-1.156242e+11 1.147749e+11 -5.609504e+07
-1.252291e+11 1.041721e+11 -6.269104e+08
-1.072786e+11 1.227564e+11 1.948275e+08
1.053507e+11 1.189104e+11 -3.972677e+09
-1.428524e+11 6.526222e+10 8.128087e+08
3.781837e+10 1.579606e+11 9.797295e+08
-1.573001e+11 -1.935809e+10 -3.828676e+09
-9.671792e+10 1.322968e+11 3.094989e+09
-1.579360e+11 -3.921240e+10 5.901623e+08
-1.574727e+11 1.796263e+10 -3.889684e+09
-1.535842e+11 3.352281e+10 -3.527573e+09
-8.474403e+10 -1.362233e+11 -1.385643e+09
-1.440081e+11 -7.333669e+10 2.021756e+08
1.448020e+11 -6.898637e+10 -2.940971e+09
-1.360798e+11 8.695663e+10 1.414648e+09
-1.458303e+11 6.388561e+10 6.972943e+08
-1.580513e+11 2.735017e+10 -1.087235e+09
-1.138749e+11 1.126400e+11 6.520468e+08
6.023591e+10 1.486663e+11 -1.173368e+09
-1.054103e+11 1.203828e+11 -5.743244e+08
1.245650e+11 1.022378e+11 -1.022004e+09
3.697105e+10 1.565192e+11 1.152044e+09
-1.609775e+11 1.137214e+10 1.033409e+09
1.499065e+11 5.755043e+10 1.003401e+09
-1.401663e+11 7.953804e+10 1.256814e+09
1.613993e+11 4.243356e+09 1.380495e+09
-1.409728e+11 6.360114e+10 2.529023e+08
1.446989e+11 7.012652e+10 -1.088112e+09
6.780223e+09 1.607922e+11 -1.013023e+09
-6.269856e+10 1.475856e+11 -1.106265e+09
-8.885568e+10 1.337830e+11 -1.130842e+09
-1.475170e+11 6.440995e+10 1.306408e+09
-4.294869e+10 1.544591e+11 -1.100478e+09
-1.494300e+11 5.968255e+10 -9.417719e+08
1.469906e+11 6.568819e+10 1.065806e+09
2.814589e+10 1.589118e+11 -1.415721e+09
-1.561233e+11 -3.904180e+10 1.172668e+09
-1.479546e+11 6.147438e+10 -5.432567e+08
-8.551896e+10 1.373390e+11 1.587039e+09
6.542513e+10 1.478723e+11 1.559351e+09
9.826509e+10 1.280021e+11 1.297634e+09
-5.159249e+10 1.527828e+11 -1.101098e+09
1.408753e+11 7.757012e+10 -1.129857e+09
-1.614068e+11 -9.714154e+09 1.507077e+09
-1.755317e+10 1.606633e+11 1.125572e+09
-1.426274e+09 1.613925e+11 -1.372010e+09
-1.517830e+11 5.181854e+10 -1.101444e+09
-1.603472e+11 5.636440e+09 -9.558662e+08
-1.454505e+11 6.439059e+10 1.602379e+09
-1.239349e+11 1.034860e+11 -1.379272e+09
-1.526601e+11 -5.208940e+10 -1.167214e+09
-7.733396e+10 -1.406746e+11 1.156122e+07
-1.851449e+10 -1.600506e+11 5.966901e+08
1.851470e+10 -1.600500e+11 -5.968690e+08
2.759521e+10 1.582771e+11 7.013398e+08
-1.613994e+11 -9.654343e+09 -6.850180e+07
-4.224288e+10 1.522503e+11 -2.152800e+09
-1.465987e+11 5.881163e+10 -2.104446e+09
-1.025200e+11 1.186335e+11 -1.314249e+09
-1.498624e+11 5.847022e+10 2.324546e+09
1.592980e+10 1.562115e+11 -9.249387e+08
1.216216e+11 9.966612e+10 -1.900982e+09
7.286756e+09 1.573811e+11 -1.782474e+09
-1.538357e+11 2.753720e+10 -9.733946e+08
1.468417e+11 5.672946e+10 1.978840e+09
-1.524866e+11 -3.821237e+10 1.897022e+09
-1.758886e+10 1.560777e+11 1.800105e+09
1.441732e+11 6.454894e+10 2.111296e+09
1.379999e+11 7.577211e+10 -1.996460e+09
5.948443e+10 1.461210e+11 -2.037000e+09
-1.486514e+11 6.586783e+10 -2.698789e+09
3.594862e+10 1.532390e+11 1.906501e+09
-6.032498e+10 1.442070e+11 -1.002844e+09
-8.709710e+10 1.315813e+11 -2.027851e+09
1.424939e+11 6.845707e+10 -1.999609e+09
-1.120862e+11 1.096255e+11 1.179522e+09
-1.573962e+11 1.033373e+10 1.372862e+09
-1.478440e+11 5.136400e+10 -8.817487e+08
-1.370311e+11 7.744326e+10 5.187105e+08
-1.490112e+11 -5.027530e+10 -1.906352e+09
-1.606335e+11 -1.323631e+10 -1.134376e+09
5.363780e+10 -1.469611e+11 4.459183e+08
-1.464601e+11 5.812586e+10 -1.585234e+09
3.115877e+10 1.567677e+11 9.618439e+08
-1.443649e+11 7.684185e+10 -3.690759e+09
7.761473e+10 1.443474e+11 -3.823841e+09
-7.392026e+10 1.425127e+11 -2.865586e+09
-1.193738e+11 1.079040e+11 -8.964666e+08
-1.175529e+11 1.067323e+11 -9.667714e+05
-9.989844e+10 1.252558e+11 8.784304e+08
1.600595e+11 1.079624e+10 1.497762e+08
-1.540076e+11 -4.503266e+10 4.495513e+08
-1.005187e+11 1.255343e+11 2.767708e+08
-1.468396e+11 6.241662e+10 2.055083e+09
1.602898e+11 1.122784e+10 -8.271695e+08
-1.543252e+11 -4.486508e+10 1.236207e+09
1.417313e+11 -6.974175e+10 2.406813e+08
-1.416203e+11 -7.112089e+10 -4.347825e+08
1.486372e+11 -5.644300e+10 -1.449857e+09
-5.139883e+10 -1.523580e+11 -1.794720e+09
6.836884e+10 1.422956e+11 4.038587e+09
2.223223e+10 1.581100e+11 -4.117419e+09
-1.319592e+11 9.096777e+10 4.182657e+09
-1.471262e+11 5.936921e+10 1.352391e+08
-1.453504e+11 5.590294e+10 -7.306529e+07
3.668504e+10 1.550562e+11 -3.107158e+08
-1.668926e+10 1.589259e+11 4.906216e+08
-1.545489e+11 -3.886093e+10 1.288404e+08
1.435443e+11 6.956281e+10 -3.125677e+08
1.390449e+11 7.584338e+10 2.784808e+08
-1.130235e+11 1.125200e+11 5.931072e+08
6.900506e+09 1.594156e+11 -3.034782e+08
-8.717577e+10 1.320416e+11 3.252843e+08
-2.954715e+10 1.569279e+11 4.015078e+08
-1.043623e+11 1.187307e+11 -5.795591e+08
-1.447789e+11 6.037263e+10 1.594383e+09
1.233249e+11 1.008596e+11 -1.209619e+08
1.430417e+10 1.583863e+11 -7.945628e+08
1.475860e+11 5.743852e+10 -2.600035e+08
8.267594e+10 1.375152e+11 -4.479955e+08
1.446359e+11 6.509174e+10 -1.320581e+08
-6.283696e+10 1.468481e+11 -3.683750e+08
5.977305e+10 1.464737e+11 2.699739e+08
-4.204015e+10 1.529358e+11 1.510623e+08
-1.578714e+11 1.178991e+10 6.626535e+08
-1.376348e+11 7.807644e+10 1.497253e+08
-1.465732e+11 5.447988e+10 3.836589e+07
-1.573386e+11 2.700886e+10 -2.766362e+08
-1.504283e+11 5.010408e+10 -9.267252e+08
-1.569751e+11 -2.548079e+10 7.947592e+08
-1.504527e+11 -5.129453e+10 -1.581522e+08
1.841666e+10 1.582183e+11 -1.091986e+09
-7.522386e+10 1.396051e+11 1.056323e+09
7.397476e+10 1.421643e+11 1.482678e+09
-1.411123e+11 7.146525e+10 9.373792e+08
-9.140248e+10 -1.310372e+11 -4.729723e+08
1.468733e+11 -6.732970e+10 -2.536828e+08
-1.462903e+11 5.877598e+10 -1.687560e+09
1.563624e+11 -2.456409e+10 -2.576191e+09
-1.496843e+11 -5.631375e+10 5.707766e+07
3.796902e+10 -1.575846e+11 -1.704717e+09
-3.826593e+10 -1.572104e+11 1.281607e+09
-1.598861e+11 -1.103799e+09 7.643101e+08
-1.286711e+11 9.552652e+10 -7.595706e+08
1.582375e+11 -1.920235e+10 8.129330e+07
1.441161e+11 -6.565073e+10 6.287780e+08
-9.319675e+10 -1.308424e+11 4.523160e+08
8.698850e+10 -1.340106e+11 -2.309049e+09
-1.479171e+11 5.558567e+10 1.453242e+07
-1.452278e+11 -6.917394e+10 1.127618e+09
-9.453645e+10 -1.302255e+11 -1.455723e+09
1.466162e+11 -6.151912e+10 -9.063315e+08
1.596083e+11 1.328496e+10 -5.167319e+08
1.507594e+11 4.972389e+10 3.677155e+08
1.528330e+11 4.180724e+10 7.110450e+08
1.575578e+11 3.815496e+10 2.603588e+08
1.560152e+11 2.955504e+10 3.558174e+08
1.573495e+11 1.644910e+10 -5.941377e+08
1.543328e+11 3.376934e+10 7.088459e+08
-1.474586e+11 5.785427e+10 3.667843e+08
1.553905e+11 4.636943e+10 2.842569e+08
4.518676e+10 1.554402e+11 2.313712e+08
-9.900944e+10 1.274639e+11 1.007716e+09
-8.058775e+10 -1.340741e+11 3.912698e+08
-9.577746e+10 1.281326e+11 -6.387970e+08
-1.607028e+11 1.997023e+10 7.508685e+08
-1.609701e+11 -1.818354e+10 7.451350e+08
1.529241e+11 -4.155220e+10 -5.247547e+08
1.158610e+11 1.089087e+11 -2.675092e+08
9.074509e+10 1.294215e+11 4.809543e+07
-1.499908e+11 5.324095e+10 -8.992861e+08
-3.594741e+10 1.534158e+11 -3.470036e+07
1.422721e+11 -7.015877e+10 1.404107e+09
1.488521e+11 -5.767334e+10 5.092627e+08
-4.497182e+10 -1.517736e+11 -1.693816e+09
9.315705e+10 -1.282271e+11 7.385476e+07
6.743881e+10 -1.460209e+11 -1.975831e+09
-1.588727e+11 2.072951e+10 -3.293556e+09
4.659042e+10 1.526944e+11 3.201336e+09
5.402937e+10 1.511323e+11 -3.660453e+09
-1.177764e+11 1.073461e+11 3.314957e+09
-1.499193e+11 5.782483e+10 2.216940e+09
1.070877e+11 1.186603e+11 -4.008372e+09
1.587556e+11 1.996144e+10 -3.212504e+09
1.595522e+11 1.048689e+10 3.384555e+09
-9.931667e+10 1.263959e+11 3.654340e+09
-1.600471e+11 -1.706423e+10 -3.834294e+09
-1.531872e+11 -4.569493e+10 -3.156163e+09
-1.129427e+11 -1.129850e+11 -5.049489e+07
-3.687829e+10 -1.556759e+11 3.173302e+09
3.477742e+09 -1.601720e+11 -1.253094e+09
-3.478447e+09 -1.601774e+11 1.252718e+09
5.389961e+10 -1.471220e+11 -2.383187e+09
-1.490309e+11 5.109290e+10 1.376275e+09
-5.083385e+09 -1.616734e+11 -4.380743e+09
5.083232e+09 -1.616729e+11 4.380593e+09
1.324737e+11 8.912312e+10 2.872584e+08
1.209776e+11 1.070123e+11 1.634175e+09
-1.579977e+11 -3.329816e+10 -1.660094e+09
-4.140539e+10 1.573864e+11 -1.838681e+09
-1.529398e+11 4.592571e+10 2.040969e+09
9.694930e+10 1.307657e+11 1.826577e+09
-1.512999e+11 -5.325317e+10 1.926394e+08
-1.610655e+10 1.602573e+11 -1.207821e+09
-1.496994e+11 5.126690e+10 5.136149e+08
-1.072308e+11 1.203758e+11 1.334463e+09
-1.241238e+11 1.015160e+11 1.466606e+08
1.459970e+11 6.824003e+10 -1.483556e+09
6.334202e+10 1.485023e+11 6.222646e+08
-8.725620e+10 1.364911e+11 2.434677e+08
1.603807e+11 2.571457e+09 -1.753684e+08
-1.603761e+11 8.794675e+09 -1.842166e+09
-1.383868e+11 8.548512e+10 -1.637046e+09
3.816184e+10 1.548653e+11 -5.089070e+08
-1.491056e+11 6.176753e+10 -4.998717e+08
-1.527400e+11 5.229053e+10 -1.718438e+09
-1.133877e+11 1.146158e+11 -1.281860e+09
-1.557427e+11 -3.725046e+10 -1.747656e+08
-1.393256e+11 -7.487796e+10 1.440862e+09
1.610581e+11 -1.714380e+10 -1.202694e+09
1.153599e+11 -1.079669e+11 -6.492153e+08
-1.152204e+11 -1.078300e+11 6.589614e+08
1.344105e+09 -1.581635e+11 3.818844e+07
-1.321352e+09 -1.581409e+11 -1.210555e+07
-2.044687e+09 -1.619297e+11 -2.703560e+08
2.045521e+09 -1.619386e+11 2.745974e+08
-1.474380e+11 5.579025e+10 -2.487255e+08
-1.586006e+11 -1.896561e+09 1.545392e+09
-1.596748e+11 1.027877e+09 -3.894789e+08
-1.286119e+11 9.396486e+10 -2.166237e+09
-1.566697e+11 -1.926935e+08 -5.348757e+08
1.494853e+11 -4.614804e+10 -9.633811e+08
-1.477350e+11 -6.543857e+10 2.055072e+09
-9.698204e+10 1.288165e+11 2.735073e+09
1.540296e+11 4.424232e+10 1.973431e+09
1.561546e+11 3.599035e+10 1.912830e+09
1.176496e+11 -1.031010e+11 -9.296724e+08
-1.498404e+11 4.797154e+10 -8.224381e+06
-1.176528e+11 -1.031044e+11 9.308567e+08
-8.945531e+10 -1.306266e+11 -9.739833e+08
1.554632e+11 -1.819228e+10 8.536298e+08
1.740514e+10 1.577626e+11 -1.422786e+09
7.275239e+10 1.410600e+11 6.288418e+08
-1.397717e+11 7.168160e+10 1.079186e+09
-7.479675e+10 1.388134e+11 1.494614e+09
-5.115553e+10 -1.511832e+11 9.358868e+08
-2.372748e+10 -1.560136e+11 -1.218056e+09
2.372763e+10 -1.560136e+11 1.218240e+09
-1.478331e+11 4.999676e+10 -2.964056e+08
-1.475116e+11 -6.222272e+10 1.209837e+09
1.114283e+11 -1.151103e+11 1.369571e+09
4.329368e+10 -1.540938e+11 2.019423e+09
-4.639345e+10 -1.541635e+11 2.399355e+08
6.260587e+10 -1.429350e+11 7.748969e+08
-6.406238e+10 -1.441035e+11 -1.219482e+09
1.004791e+11 -1.215980e+11 1.528942e+09
-1.263601e+11 -9.436681e+10 1.219270e+09
1.263499e+11 -9.435761e+10 -1.219510e+09
1.284566e+11 -9.175676e+10 1.241735e+09
-1.493974e+11 4.705411e+10 -9.079231e+07
-1.284559e+11 -9.168003e+10 -1.236258e+09
6.099083e+10 -1.455295e+11 -1.237857e+09
-6.094890e+10 -1.455585e+11 1.246441e+09
-9.213060e+10 1.306160e+11 4.529230e+08
3.556677e+10 1.562446e+11 6.646657e+08
1.045308e+11 1.218824e+11 -5.686691e+08
1.600400e+11 2.739212e+10 -2.931606e+08
1.607826e+11 5.456195e+09 1.083846e+09
1.551271e+11 4.813849e+10 -2.871745e+08
1.614247e+11 1.653162e+10 1.033950e+09
-1.476540e+11 5.057942e+10 -1.487298e+08
1.574404e+11 3.977828e+10 -3.561089e+08
-7.375751e+10 1.444800e+11 -5.269546e+08
1.598118e+11 2.538123e+10 1.028845e+09
-1.050375e+11 1.218832e+11 -8.496993e+08
1.612200e+11 2.022031e+10 2.721327e+08
-1.525627e+11 -5.061892e+10 -9.392185e+08
-1.839115e+10 1.615114e+11 -1.177674e+09
4.751194e+10 1.535100e+11 -2.192777e+08
1.346975e+11 8.756893e+10 -1.121391e+09
1.566205e+11 3.510717e+10 -2.007907e+08
-1.512010e+11 4.607614e+10 -1.204918e+08
1.578566e+11 3.080395e+10 -9.848235e+07
-1.224486e+11 1.036985e+11 -9.509186e+08
4.969965e+10 1.548710e+11 1.008169e+09
-1.597190e+11 -1.738131e+10 4.138323e+08
1.544900e+11 4.327094e+10 -2.512871e+08
1.586010e+11 2.146996e+10 -4.768812e+06
5.284633e+10 1.541340e+11 -5.536370e+08
-1.626228e+11 1.654194e+10 -8.841200e+08
-1.152894e+11 1.120052e+11 9.247693e+08
-9.601014e+10 1.279034e+11 -3.533871e+08
-1.504225e+11 5.054060e+10 -9.768140e+08
-1.620516e+11 -2.196250e+10 -7.830605e+08
-1.551223e+11 -3.993023e+10 8.897548e+08
-9.285121e+10 -1.277841e+11 -1.529665e+09
-1.207908e+11 -1.015898e+11 -1.236499e+09
1.207908e+11 -1.015894e+11 1.236569e+09
1.499222e+11 -4.989613e+10 1.000594e+09
-5.211495e+09 1.584668e+11 4.871801e+08
-1.242336e+11 9.866330e+10 5.328461e+08
-1.535485e+11 3.436628e+10 1.091101e+09
-5.411578e+10 1.490281e+11 5.346464e+08
5.592150e+10 -1.483999e+11 -1.103743e+09
-1.519328e+11 4.502927e+10 -2.545813e+09
1.278680e+11 9.360651e+10 4.327130e+08
1.585260e+11 3.043059e+08 -5.112602e+08
-1.319683e+11 8.866874e+10 -3.266178e+08
2.410370e+10 1.571563e+11 3.294767e+08
7.140429e+10 -1.445615e+11 2.363202e+06
-1.591905e+11 -2.410710e+10 -1.155239e+08
-1.581139e+11 3.768587e+10 -3.538970e+08
8.086153e+10 1.390030e+11 1.164245e+08
1.301984e+11 9.312538e+10 -8.673639e+07
-2.760978e+10 1.584271e+11 -1.801177e+08
-1.526286e+11 4.890385e+10 1.472977e+09
-3.812699e+10 1.572531e+11 3.367332e+09
9.365549e+10 1.315537e+11 -3.311628e+09
-3.759225e+10 1.568711e+11 1.105192e+09
8.829114e+10 1.321884e+11 -6.400527e+08
9.364252e+10 1.314824e+11 -5.763147e+08
1.435377e+11 -6.675798e+10 1.322314e+09
1.124176e+11 -1.149990e+11 -1.713157e+09
1.440563e+11 -6.826803e+10 -3.135532e+09
1.685916e+10 -1.563633e+11 1.293171e+07
-1.685910e+10 -1.563630e+11 -1.276978e+07
-1.515542e+11 4.444235e+10 2.633687e+09
-4.386830e+10 -1.551981e+11 3.761811e+08
1.006854e+11 -1.225382e+11 -2.038547e+09
9.195689e+10 -1.305053e+11 1.980086e+09
-2.235125e+10 -1.573308e+11 2.555141e+09
2.235131e+10 -1.573309e+11 -2.555148e+09
-1.464117e+11 -5.705752e+10 -1.130270e+09
-9.269226e+10 -1.287963e+11 2.136763e+09
-1.039002e+11 -1.230509e+11 -1.221462e+09
1.137318e+11 -1.136268e+11 -9.350927e+08
1.555399e+11 -1.820406e+10 -1.408196e+09
-1.527448e+11 4.413735e+10 2.885498e+09
1.370033e+11 8.565599e+10 -4.920388e+07
-1.011320e+11 -1.259596e+11 1.794650e+09
7.779976e+10 -1.395055e+11 2.736147e+09
8.449606e+10 -1.353119e+11 6.862166e+07
-1.545847e+11 -4.839527e+10 1.560086e+08
3.369948e+10 1.609790e+11 -1.664620e+09
1.615981e+11 8.340170e+09 -1.036017e+08
-1.034144e+11 1.245069e+11 1.758166e+08
-1.211719e+11 1.063973e+11 8.090062e+07
-2.022871e+10 1.571587e+11 -1.294366e+08
-1.539858e+11 4.388547e+10 -3.188943e+08
-1.178762e+11 1.105670e+11 -9.886131e+07
-1.554224e+11 -4.286111e+10 -1.516103e+08
-9.958282e+10 -1.248205e+11 -9.306200e+08
-8.321220e+10 -1.359334e+11 -6.915824e+08
-7.725375e+10 -1.418064e+11 2.387759e+09
1.570244e+11 -1.553873e+10 -7.029802e+08
-1.432478e+11 -6.482579e+10 -3.138239e+08
-1.046947e+11 -1.175056e+11 -5.090904e+08
-1.469336e+11 -6.145699e+10 2.390474e+08
1.454898e+11 -5.917626e+10 -7.184858e+08
-1.506472e+11 4.882358e+10 -9.741985e+08
1.574089e+11 -2.470856e+10 8.935563e+08
-7.662989e+10 -1.384340e+11 1.592328e+09
-3.986093e+10 1.536542e+11 -4.186982e+08
9.403846e+10 1.277660e+11 3.923378e+08
-1.005075e+11 -1.227158e+11 1.063945e+09
-1.158312e+10 1.649302e+11 -6.810793e+07
-1.596676e+11 1.219475e+10 -1.195534e+09
-1.579463e+11 -2.546893e+10 -1.164477e+09
-1.512839e+11 5.552385e+10 1.487449e+09
-1.133044e+11 1.185541e+11 -4.544783e+08
-1.492699e+11 4.078476e+10 -1.059689e+09
1.084007e+10 1.601186e+11 1.252678e+09
1.486526e+11 6.139120e+10 -1.374247e+09
-9.143034e+10 1.352858e+11 1.178651e+09
-4.746899e+10 1.536141e+11 1.370585e+09
1.624284e+09 1.633229e+11 2.011425e+09
1.445365e+11 7.607687e+10 2.007790e+09
4.476834e+10 -1.561206e+11 1.342316e+09
-1.064984e+11 -1.165803e+11 2.463036e+09
1.603771e+11 -8.762951e+09 2.594861e+09
-1.547540e+11 4.351604e+10 -2.643927e+09
-1.527834e+11 4.194013e+10 1.322684e+09
-1.575921e+11 -3.033191e+10 2.558579e+09
1.183451e+11 1.090642e+11 -2.318022e+09
1.338793e+11 8.856846e+10 -2.538330e+09
-1.507881e+11 -5.971335e+10 4.574947e+07
1.498977e+11 -5.716132e+10 1.546363e+09
-1.463918e+11 6.176510e+10 5.694282e+08
-8.677319e+10 1.333687e+11 -1.117750e+09
6.139779e+10 1.465702e+11 -6.262515e+08
1.436677e+11 6.712481e+10 -6.871727e+08
-1.580717e+11 8.919637e+09 -5.212332e+08
-1.523407e+11 4.072016e+10 5.589809e+08
-4.565699e+10 -1.516493e+11 -2.845418e+08
9.685700e+10 -1.290203e+11 -1.037838e+09
-8.944490e+10 -1.302458e+11 -1.135793e+07
1.448380e+11 -7.013965e+10 2.707532e+09
-1.041617e+11 -1.196402e+11 1.698105e+09
1.155393e+11 -1.116445e+11 1.348088e+09
1.561852e+11 -4.232476e+10 7.665537e+08
-7.041120e+10 1.424616e+11 -1.778988e+09
1.564222e+11 2.439623e+10 1.309361e+09
4.860122e+10 1.503952e+11 2.073135e+09
-1.501290e+11 4.301637e+10 -3.640605e+08
5.186791e+10 -1.529247e+11 -1.928061e+09
1.594521e+11 -2.593733e+10 -1.774940e+08
-1.575492e+11 -1.544947e+09 8.837623e+08
1.025538e+11 -1.238897e+11 3.867252e+08
9.409564e+10 -1.307613e+11 4.165730e+08
-8.991726e+10 -1.308505e+11 5.663060e+07
-2.604198e+10 1.583989e+11 9.614789e+08
1.518315e+11 4.587952e+10 -8.889344e+07
1.499658e+11 5.373361e+10 1.353382e+09
1.545737e+11 3.743087e+10 3.292281e+08
5.419626e+10 -1.492229e+11 1.663909e+09
-1.529904e+11 3.748152e+10 -1.307299e+08
1.555498e+11 3.357286e+10 1.331573e+09
1.590029e+11 1.211911e+10 -1.002256e+09
-9.658927e+10 1.246473e+11 -6.748751e+08
1.384762e+11 7.994851e+10 -7.813883e+08
-9.770531e+10 1.247158e+11 2.256276e+08
-6.471702e+10 1.442329e+11 -7.687779e+08
-1.599299e+11 -1.070916e+10 -1.062085e+09
1.461535e+11 -6.249190e+10 2.142587e+09
1.180933e+11 -1.110293e+11 1.450019e+09
-1.180525e+11 -1.111556e+11 -1.792526e+09
-1.537534e+11 4.234934e+10 8.514098e+07
1.066285e+11 -1.190427e+11 -1.684387e+09
-9.734613e+10 -1.268953e+11 4.545147e+08
-8.059037e+10 -1.378366e+11 1.094612e+09
-1.424947e+11 -7.378652e+10 -1.806956e+09
1.526321e+11 -5.703301e+10 7.360769e+08
1.448330e+11 -7.200383e+10 -1.543518e+09
1.384536e+11 -7.703339e+10 -2.178512e+09
1.567383e+11 -9.371012e+09 -7.679701e+07
-9.439379e+10 -1.308053e+11 6.475832e+07
-3.090777e+10 1.549009e+11 1.130005e+09
-1.531000e+11 3.775086e+10 -2.298261e+09
8.333323e+10 1.354514e+11 -3.985299e+08
-3.335335e+10 1.557873e+11 7.414920e+08
1.304390e+11 8.708813e+10 -7.412863e+07
1.200619e+11 1.093119e+11 2.076521e+08
8.342644e+10 1.321474e+11 -3.007537e+08
-1.512511e+11 4.198133e+10 2.500308e+08
-1.541451e+11 -2.887754e+10 9.815991e+07
8.724139e+10 1.309098e+11 -5.311852e+08
8.683558e+10 1.312771e+11 -3.365938e+08
9.172727e+10 1.284078e+11 4.755330e+08
-1.543701e+11 3.753615e+10 9.517157e+08
-3.682867e+10 1.534250e+11 -7.597407e+07
8.690563e+10 -1.313476e+11 1.950679e+07
-1.442947e+11 -6.512299e+10 7.270050e+08
-1.495194e+11 -5.630110e+10 3.503867e+09
1.218546e+10 1.600301e+11 1.403273e+09
1.392062e+11 -7.324841e+10 -1.770485e+08
-1.118753e+11 -1.169453e+11 6.191661e+08
1.596492e+11 -1.140257e+10 8.157354e+08
-1.575443e+11 -2.766403e+10 8.133112e+08
1.320243e+11 9.042400e+10 -8.011330e+08
-1.544816e+11 3.739495e+10 -7.136698e+07
1.174922e+11 1.101656e+11 -1.326381e+09
-1.550688e+11 4.064063e+10 -8.686386e+08
1.584140e+11 2.235780e+10 3.396647e+08