# vtk DataFile Version 2.0
Electric current density generated by TTH
ASCII
DATASET UNSTRUCTURED_GRID
POINTS 18292 double
4.363065e-05 -1.068643e-20 -7.446345e-23
4.359683e-05 1.717700e-06 -7.446345e-23
3.960087e-05 1.831406e-05 -7.446345e-23
-1.460320e-05 -4.111424e-05 -7.446345e-23
-4.274070e-05 -5.281832e-06 -1.562216e-07
-2.318058e-05 3.629498e-05 -1.562216e-07
1.332582e-05 -4.095226e-05 -1.562216e-07
-3.844021e-05 -1.941688e-05 -1.562216e-07
-1.714474e-06 4.303168e-05 -1.562216e-07
-2.983296e-05 -3.105897e-05 -1.562216e-07
-2.804788e-05 -3.267999e-05 -1.562216e-07
-3.282704e-05 -2.787563e-05 -1.562216e-07
-3.255695e-05 2.819060e-05 -1.562216e-07
-4.204344e-05 9.328126e-06 -1.562216e-07
-1.442316e-05 -4.117774e-05 -7.446345e-23
5.617923e-06 -4.269782e-05 -1.562216e-07
-3.500626e-05 -2.508439e-05 -1.562216e-07
1.101290e-05 -4.163389e-05 -1.562216e-07
-4.533017e-06 -4.282659e-05 -1.562216e-07
-9.022328e-06 -4.241785e-05 -3.013600e-07
3.660754e-05 -2.278422e-05 -2.219114e-07
1.940434e-05 -3.847755e-05 -1.951400e-07
1.941573e-05 3.841243e-05 1.027716e-07
-2.323946e-05 -3.629227e-05 1.972129e-07
-7.286777e-06 -4.247473e-05 1.971989e-07
-1.424285e-05 -4.124045e-05 -7.446345e-23
-3.029503e-05 -3.064981e-05 1.971989e-07
-3.995192e-05 1.615685e-05 1.971989e-07
-3.244694e-05 -2.836188e-05 1.971989e-07
-2.735494e-05 3.330026e-05 1.971989e-07
-4.193429e-05 9.935583e-06 1.971989e-07
-3.046428e-06 -4.298743e-05 1.971989e-07
-1.545518e-05 4.022857e-05 1.971989e-07
-2.130269e-05 -3.746192e-05 1.971989e-07
-1.099203e-06 4.308124e-05 1.972129e-07
-1.879988e-05 3.877840e-05 1.971989e-07
-1.406227e-05 -4.130238e-05 -7.446345e-23
-4.305539e-05 1.853076e-06 1.971989e-07
-3.963799e-05 -1.691241e-05 1.971989e-07
-3.588003e-05 -2.387098e-05 1.971989e-07
-1.725871e-05 -3.948846e-05 1.972129e-07
-4.151062e-05 -1.157880e-05 1.971989e-07
-1.598189e-05 -4.002224e-05 1.971989e-07
-1.754514e-05 3.936201e-05 1.971989e-07
-4.244247e-05 7.472481e-06 1.972129e-07
1.042312e-05 -4.181577e-05 1.971989e-07
-3.662800e-05 -2.270663e-05 1.972129e-07
-1.388142e-05 -4.136351e-05 -7.446345e-23
-3.941256e-05 1.743132e-05 1.972129e-07
-3.423716e-05 2.617285e-05 1.972129e-07
-4.084573e-05 -1.374146e-05 1.972129e-07
-2.080912e-05 3.773832e-05 1.971989e-07
2.606229e-06 -4.301638e-05 1.972129e-07
-4.284115e-05 -4.672876e-06 1.971989e-07
-4.309331e-05 -4.091702e-07 1.972129e-07
-1.385943e-05 -4.080584e-05 1.971989e-07
-1.664677e-06 -4.306308e-05 1.971984e-07
-2.759616e-05 -3.310065e-05 1.972129e-07
-1.370030e-05 -4.142385e-05 -7.446345e-23
1.391997e-05 -4.078522e-05 1.971989e-07
3.815304e-05 -1.992172e-05 1.041787e-07
4.282871e-05 -4.450787e-06 -1.448775e-07
4.282871e-05 4.450787e-06 -1.448775e-07
-4.230297e-05 7.977790e-06 1.230978e-07
3.124109e-06 -4.293514e-05 1.230978e-07
-4.186386e-05 -1.210463e-05 1.699342e-07
-1.577822e-05 -4.062208e-05 1.699342e-07
-3.253862e-05 -2.898868e-05 1.699342e-07
-4.341740e-05 3.746346e-06 1.699342e-07
-1.351892e-05 -4.148340e-05 -7.446345e-23
-2.797864e-05 3.341109e-05 1.699342e-07
-4.355418e-05 1.462569e-06 1.699342e-07
-6.962531e-06 -4.301893e-05 1.699342e-07
-1.524366e-05 4.082568e-05 1.699342e-07
1.014021e-05 -4.238256e-05 1.699342e-07
-4.336448e-05 -4.315923e-06 1.699342e-07
-1.736525e-05 3.996941e-05 1.699342e-07
-2.140207e-05 3.796125e-05 1.699342e-07
-4.055265e-05 1.595581e-05 1.699342e-07
-4.230796e-05 1.044711e-05 1.699342e-07
-1.333728e-05 -4.154216e-05 -7.446345e-23
-3.991937e-05 -1.747997e-05 1.699342e-07
-3.605295e-05 -2.448040e-05 1.699342e-07
-1.938031e-05 3.903215e-05 1.699342e-07
-3.092627e-05 -3.070295e-05 1.699342e-07
-3.491033e-06 -4.343867e-05 1.699342e-07
-1.362457e-05 -4.139416e-05 1.699342e-07
-2.189851e-05 -3.767706e-05 1.699342e-07
1.446504e-05 -4.110800e-05 1.699342e-07
3.356709e-06 -4.315225e-05 3.008155e-07
-4.249227e-05 8.233533e-06 3.008155e-07
-1.315539e-05 -4.160012e-05 -7.446345e-23
-1.986645e-05 -3.826312e-05 -2.164412e-07
-3.817098e-05 2.004921e-05 -2.192873e-07
-3.807890e-05 -2.021732e-05 -2.164412e-07
-2.958074e-05 -3.201353e-05 1.558179e-07
-2.902226e-05 -3.252068e-05 1.558179e-07
-3.376437e-05 -2.756544e-05 1.558179e-07
-3.330061e-06 4.346029e-05 1.558179e-07
1.195939e-05 -4.191491e-05 1.558179e-07
-3.423638e-05 -2.697697e-05 1.558179e-07
-2.577412e-06 4.351142e-05 1.558179e-07
-1.297324e-05 -4.165728e-05 -7.446345e-23
1.268300e-05 -4.170165e-05 1.558179e-07
1.903427e-05 3.920133e-05 1.709162e-07
1.955208e-05 -3.869879e-05 -3.024410e-07
1.597581e-05 4.019853e-05 -2.958849e-07
4.101860e-05 -1.346899e-05 2.625608e-07
-3.894348e-05 1.907747e-05 -3.015587e-07
-4.296966e-05 5.844017e-06 -3.015587e-07
-2.479478e-05 -3.557756e-05 -3.015587e-07
-1.519717e-05 -4.039734e-05 -2.551424e-07
-4.179000e-05 1.079329e-05 -2.551424e-07
3.952036e-05 1.848716e-05 -7.446345e-23
-1.279085e-05 -4.171364e-05 -7.446345e-23
-4.299226e-05 -3.816341e-06 -2.551424e-07
9.594884e-06 -4.208132e-05 -2.551424e-07
-1.960583e-05 3.845140e-05 -2.551424e-07
-2.159680e-05 3.736947e-05 -2.551424e-07
-3.095258e-05 -3.008050e-05 -2.551424e-07
-4.314999e-05 9.884747e-07 -2.551424e-07
-3.544704e-05 -2.462531e-05 -2.551424e-07
-4.255873e-05 -7.187021e-06 -2.551424e-07
-3.191895e-05 -2.905305e-05 -2.551424e-07
-2.806195e-05 3.279369e-05 -2.551424e-07
-1.260821e-05 -4.176921e-05 -7.446345e-23
-4.303865e-05 3.251693e-06 -2.551424e-07
-1.466560e-05 4.059334e-05 -2.551424e-07
-3.741953e-05 2.150995e-05 -2.551424e-07
-1.677580e-05 3.976772e-05 -2.551424e-07
-3.935014e-05 -1.773316e-05 -2.551424e-07
-4.033046e-05 1.537378e-05 -2.551424e-07
-4.133268e-05 -1.243016e-05 -2.551424e-07
-3.916180e-06 -4.298328e-05 -2.551424e-07
-2.208546e-05 -3.708277e-05 -2.551424e-07
-6.441100e-06 -4.267799e-05 -2.551424e-07
-1.242533e-05 -4.182398e-05 -7.446345e-23
-1.305611e-05 -4.113924e-05 -2.551424e-07
6.254302e-06 -4.270577e-05 -2.551424e-07
1.475984e-05 -4.055917e-05 -2.551424e-07
-4.300361e-05 5.203560e-06 3.038765e-07
-3.799196e-05 -2.080861e-05 3.038765e-07
-3.861498e-05 1.962831e-05 3.038765e-07
-1.945916e-05 -3.870050e-05 3.038765e-07
3.560532e-05 -2.484153e-05 2.909711e-07
1.786343e-05 3.951395e-05 -3.016896e-07
7.773887e-06 4.287665e-05 -1.743541e-07
-1.224221e-05 -4.187794e-05 -7.446345e-23
1.613846e-05 -4.048123e-05 1.686533e-07
4.208632e-05 9.213457e-06 1.818794e-07
4.208632e-05 -9.213457e-06 1.818794e-07
2.883841e-07 -4.331653e-05 3.038827e-07
-2.590727e-05 -3.471626e-05 3.038827e-07
4.745235e-06 4.313474e-05 2.962405e-07
1.825111e-05 3.956989e-05 1.737226e-07
3.518468e-05 -2.490636e-05 -2.111208e-07
3.666082e-05 2.322246e-05 -2.957683e-07
1.941596e-05 -3.841278e-05 1.039114e-07
-1.205886e-05 -4.193111e-05 -7.446345e-23
3.527526e-05 -2.477916e-05 -2.118629e-07
1.621090e-05 4.044197e-05 1.821860e-07
-3.616801e-06 4.342495e-05 1.748912e-07
-1.350332e-05 4.143028e-05 1.748912e-07
-1.131038e-05 4.208186e-05 1.748912e-07
-1.020184e-05 4.236426e-05 1.748912e-07
-7.964439e-06 4.284128e-05 1.748912e-07
-4.755453e-06 4.331505e-05 1.748912e-07
-9.086272e-06 4.261746e-05 1.748912e-07
-1.241113e-05 4.177047e-05 1.748912e-07
-1.187527e-05 -4.198347e-05 -7.446345e-23
-4.182528e-05 1.222512e-05 1.748912e-07
-3.440453e-05 -2.674203e-05 1.748912e-07
3.698015e-05 -2.307765e-05 1.514562e-07
-3.488298e-05 -2.547437e-05 2.738109e-07
-4.933019e-06 -4.291190e-05 2.738109e-07
5.249006e-06 -4.287440e-05 2.738109e-07
1.140191e-05 4.186356e-05 2.976599e-07
-2.954106e-05 3.178137e-05 -2.972512e-07
-3.551778e-05 2.492422e-05 -2.972512e-07
-4.223565e-05 -9.943824e-06 -2.972512e-07
-1.169146e-05 -4.203503e-05 -7.446345e-23
1.913426e-05 3.887719e-05 3.039919e-07
1.580103e-05 4.019021e-05 -2.688983e-07
4.186167e-05 -1.213811e-05 1.587235e-07
3.499199e-05 2.569809e-05 2.910027e-07
3.922754e-05 1.896793e-05 1.785164e-07
-5.586823e-06 -4.298110e-05 -3.035968e-07
-4.141275e-05 1.278951e-05 -3.035968e-07
-4.080837e-05 1.460355e-05 -3.035968e-07
-2.927218e-05 -3.196446e-05 -3.035968e-07
-3.208162e-05 2.914372e-05 -3.035968e-07
-1.150743e-05 -4.208578e-05 -7.446345e-23
-5.383056e-06 4.300709e-05 -3.035968e-07
-2.755877e-06 4.325497e-05 -3.035968e-07
-3.392394e-05 -2.697690e-05 -3.035968e-07
4.629564e-06 -4.309471e-05 -3.035968e-07
1.242663e-05 -4.152308e-05 -3.035968e-07
3.063809e-05 -3.047665e-05 2.827050e-07
4.220517e-05 -9.861511e-06 3.036334e-07
4.339434e-05 7.074643e-07 -2.950085e-07
4.339434e-05 -7.074643e-07 -2.950085e-07
4.304914e-05 -2.062816e-06 2.009956e-07
-1.132317e-05 -4.213573e-05 -7.446345e-23
4.304914e-05 2.062816e-06 2.009956e-07
-2.322696e-05 3.624390e-05 1.211301e-07
-2.862487e-05 3.215165e-05 1.211301e-07
8.743822e-06 -4.215041e-05 1.211301e-07
-4.168092e-05 -1.076162e-05 1.211301e-07
-1.221372e-05 -4.127877e-05 1.211301e-07
-3.469892e-05 2.547738e-05 1.211301e-07
1.338351e-05 -4.091446e-05 1.211095e-07
-4.273090e-05 -5.213552e-06 1.211095e-07
-3.277016e-05 -2.791465e-05 1.211095e-07
-1.113870e-05 -4.218487e-05 -7.446345e-23
-2.798558e-05 -3.270961e-05 1.211095e-07
-1.802623e-05 3.909176e-05 1.211095e-07
-3.969868e-05 1.664711e-05 1.211095e-07
-3.614193e-05 -2.338530e-05 1.211095e-07
-1.647243e-06 4.301625e-05 1.211095e-07
-2.494757e-06 -4.297543e-05 1.211095e-07
-2.274919e-05 -3.654566e-05 1.211095e-07
-4.201136e-05 9.389189e-06 1.211095e-07
-1.673476e-05 -3.966181e-05 1.211095e-07
-2.986843e-05 -3.099981e-05 1.211095e-07
3.943909e-05 1.865990e-05 -7.446345e-23
-1.095402e-05 -4.223320e-05 -7.446345e-23
1.094392e-05 -4.163342e-05 1.211095e-07
2.022750e-05 -3.825559e-05 -2.994347e-07
5.210090e-06 4.272194e-05 -9.688274e-08
2.968711e-05 3.164234e-05 -2.976592e-07
2.968711e-05 -3.164234e-05 -2.976592e-07
4.357693e-05 4.336000e-07 -1.693973e-07
4.357693e-05 -4.336000e-07 -1.693973e-07
4.302816e-05 -9.316804e-07 9.622663e-08
4.302816e-05 9.316804e-07 9.622663e-08
-3.868559e-07 -4.331905e-05 3.039637e-07
-1.076912e-05 -4.228073e-05 -7.446345e-23
1.127981e-07 -4.329452e-05 3.023349e-07
-2.572805e-05 -3.482049e-05 3.022989e-07
-1.274945e-06 -4.355996e-05 1.700982e-07
1.285446e-05 4.144437e-05 2.968911e-07
1.768374e-05 -3.934461e-05 2.368144e-07
[...]
POINT_DATA 18292
VECTORS 10.000GHz_fone_imag double
9.724512e-06 2.545212e-06 2.886567e-02
1.310430e-04 1.076093e-04 2.873412e-02
1.265431e-04 -1.240336e-05 2.868895e-02
3.896904e-04 3.951061e-04 2.885395e-02
-1.541772e-02 -1.853148e-03 -2.604223e-02
-8.339251e-03 1.299534e-02 -2.611928e-02
4.845928e-03 -1.473053e-02 -2.611328e-02
-1.344839e-02 -6.844248e-03 -2.609307e-02
-5.604626e-04 1.549954e-02 -2.611263e-02
-1.078247e-02 -1.108400e-02 -2.614989e-02
-1.004708e-02 -1.179942e-02 -2.611888e-02
-1.175434e-02 -1.005852e-02 -2.613427e-02
-1.166743e-02 9.841869e-03 -2.580999e-02
-1.505523e-02 3.402364e-03 -2.614273e-02
-3.499321e-05 3.169198e-04 2.908093e-02
2.190686e-03 -1.511491e-02 -2.569842e-02
-1.247108e-02 -8.562829e-03 -2.575381e-02
3.906213e-03 -1.499019e-02 -2.611291e-02
-1.394747e-03 -1.521266e-02 -2.570349e-02
-6.212818e-03 -2.842350e-02 3.302290e-03
1.842222e-02 -1.138523e-02 -2.097069e-02
8.732869e-03 -1.713816e-02 -2.341098e-02
-4.680073e-03 -9.051884e-03 -2.840458e-02
1.028930e-02 1.625772e-02 -2.325548e-02
3.290942e-03 1.890353e-02 -2.323116e-02
4.787367e-05 2.070143e-04 2.894007e-02
1.345490e-02 1.368502e-02 -2.322491e-02
1.774446e-02 -7.274140e-03 -2.320454e-02
1.447060e-02 1.259010e-02 -2.322499e-02
1.213232e-02 -1.492030e-02 -2.324031e-02
1.872626e-02 -4.342324e-03 -2.321285e-02
1.276902e-03 1.915655e-02 -2.323695e-02
6.978867e-03 -1.789646e-02 -2.323423e-02
9.400487e-03 1.675845e-02 -2.323462e-02
5.947722e-04 -1.922242e-02 -2.325326e-02
8.289896e-03 -1.732050e-02 -2.322105e-02
3.694911e-05 1.431832e-04 2.864429e-02
1.919695e-02 -9.241498e-04 -2.324054e-02
1.766222e-02 7.485754e-03 -2.323249e-02
1.602324e-02 1.055555e-02 -2.321713e-02
7.742666e-03 1.764414e-02 -2.318567e-02
1.849832e-02 5.057620e-03 -2.320831e-02
7.182643e-03 1.779098e-02 -2.324022e-02
7.901163e-03 -1.749330e-02 -2.323043e-02
1.893107e-02 -3.449317e-03 -2.325804e-02
-4.739821e-03 1.863664e-02 -2.321314e-02
1.629732e-02 1.016748e-02 -2.329840e-02
3.460399e-05 2.421911e-04 2.901546e-02
1.758799e-02 -7.790193e-03 -2.328449e-02
1.532301e-02 -1.170160e-02 -2.321942e-02
1.826055e-02 6.041520e-03 -2.326593e-02
9.196283e-03 -1.686994e-02 -2.321089e-02
-1.185790e-03 1.925790e-02 -2.322932e-02
1.912322e-02 2.163237e-03 -2.322979e-02
1.921862e-02 8.352108e-05 -2.324869e-02
6.215337e-03 1.815222e-02 -2.322928e-02
7.989491e-04 1.914970e-02 -2.323052e-02
1.239579e-02 1.471108e-02 -2.326479e-02
3.996078e-05 7.537316e-05 2.872180e-02
-6.130941e-03 1.823665e-02 -2.323226e-02
-9.069161e-03 4.933662e-03 -2.834900e-02
1.390022e-02 -1.614039e-03 -2.677493e-02
1.390030e-02 1.614099e-03 -2.677494e-02
1.196552e-02 -2.110394e-03 -2.765360e-02
-7.279337e-04 1.215951e-02 -2.771850e-02
1.554759e-02 4.687494e-03 2.392880e-02
5.717596e-03 1.519850e-02 2.392658e-02
1.204311e-02 1.083361e-02 2.386214e-02
1.616100e-02 -1.291764e-03 2.388797e-02
-3.454071e-05 8.971950e-05 2.871456e-02
1.050977e-02 -1.233001e-02 2.389157e-02
1.621220e-02 -4.320224e-04 2.389529e-02
2.488575e-03 1.596066e-02 2.386587e-02
5.537060e-03 -1.524059e-02 2.390990e-02
-3.628965e-03 1.578783e-02 2.390178e-02
1.615111e-02 1.495481e-03 2.387978e-02
6.309094e-03 -1.496066e-02 2.392469e-02
8.094427e-03 -1.405323e-02 2.390515e-02
1.517601e-02 -5.782372e-03 2.391740e-02
1.570711e-02 -4.020957e-03 2.390537e-02
-8.215048e-05 -5.471896e-05 2.884080e-02
1.476166e-02 6.572711e-03 2.386961e-02
1.334234e-02 9.268169e-03 2.392195e-02
7.363970e-03 -1.449374e-02 2.391712e-02
1.153652e-02 1.136728e-02 2.385169e-02
1.388435e-03 1.618527e-02 2.391473e-02
4.968530e-03 1.540103e-02 2.385943e-02
8.170043e-03 1.405340e-02 2.386876e-02
-5.498414e-03 1.524965e-02 2.389321e-02
-2.178008e-03 2.932425e-02 -4.750177e-03
2.892683e-02 -5.584435e-03 -4.874619e-03
-3.541458e-05 -2.074840e-05 2.886129e-02
-9.772997e-03 -1.895249e-02 -2.152969e-02
-1.929684e-02 1.003880e-02 -2.119323e-02
-1.883451e-02 -1.007581e-02 -2.159731e-02
1.028007e-02 1.118286e-02 2.488070e-02
1.008305e-02 1.123245e-02 2.478024e-02
1.174852e-02 9.530963e-03 2.479157e-02
1.061163e-03 -1.510268e-02 2.482537e-02
-4.187460e-03 1.456342e-02 2.484709e-02
1.189074e-02 9.353222e-03 2.491258e-02
9.270312e-04 -1.514689e-02 2.487171e-02
-3.751492e-04 -2.078538e-04 2.893928e-02
-4.322813e-03 1.446642e-02 2.487969e-02
-7.447443e-03 -1.495401e-02 2.384479e-02
1.319559e-02 -2.638479e-02 3.246315e-03
1.040250e-02 2.676194e-02 -7.453259e-03
-2.452702e-02 8.123362e-03 -1.546441e-02
-2.626770e-02 1.266329e-02 3.100283e-03
-2.893467e-02 4.062385e-03 3.142851e-03
-1.661937e-02 -2.403810e-02 3.153728e-03
-9.055302e-03 -2.339778e-02 -1.612464e-02
-2.426922e-02 5.995417e-03 -1.616332e-02
2.234507e-05 1.153142e-05 2.887866e-02
-1.152512e-04 -6.775727e-04 2.901009e-02
-2.498146e-02 -2.407638e-03 -1.617815e-02
5.785329e-03 -2.438428e-02 -1.620119e-02
-1.121464e-02 2.238685e-02 -1.622116e-02
-1.232350e-02 2.181143e-02 -1.613594e-02
-1.780218e-02 -1.751106e-02 -1.629177e-02
-2.503785e-02 7.513291e-04 -1.621717e-02
-2.071805e-02 -1.404953e-02 -1.610000e-02
-2.452481e-02 -4.292061e-03 -1.637849e-02
-1.850207e-02 -1.667080e-02 -1.626831e-02
-1.611907e-02 1.918001e-02 -1.620762e-02
3.301122e-04 1.481956e-05 2.885608e-02
-2.488277e-02 2.012684e-03 -1.625754e-02
-8.738659e-03 2.348021e-02 -1.613692e-02
-2.154530e-02 1.255030e-02 -1.639839e-02
-9.967188e-03 2.302037e-02 -1.612475e-02
-2.276381e-02 -1.009398e-02 -1.637985e-02
-2.330134e-02 9.182836e-03 -1.610071e-02
-2.408687e-02 -6.994443e-03 -1.612347e-02
-2.146620e-03 -2.483803e-02 -1.626906e-02
-1.267645e-02 -2.148846e-02 -1.626218e-02
-3.874190e-03 -2.459211e-02 -1.637309e-02
5.309288e-04 4.485221e-04 2.883078e-02
-7.635152e-03 -2.373892e-02 -1.628154e-02
3.737335e-03 -2.462787e-02 -1.632957e-02
8.352494e-03 -2.358695e-02 -1.619571e-02
2.939970e-02 -3.352836e-03 -1.759473e-03
2.600112e-02 1.403511e-02 -1.745761e-03
2.627325e-02 -1.352753e-02 -1.644051e-03
1.342826e-02 2.631866e-02 -1.803201e-03
-2.315056e-02 1.618391e-02 7.956584e-03
1.227514e-02 2.682035e-02 3.448734e-03
3.005010e-03 1.666657e-02 2.352515e-02
3.087420e-05 6.632766e-04 2.899625e-02
-5.837958e-03 1.521474e-02 2.400183e-02
-1.726853e-02 -3.838658e-03 -2.443061e-02
-1.729773e-02 3.852796e-03 -2.440349e-02
-8.111111e-05 2.960622e-02 -1.764129e-03
1.760379e-02 2.383593e-02 -1.842058e-03
-3.347499e-03 -2.866548e-02 6.086573e-03
-6.960228e-03 -1.538206e-02 2.366628e-02
1.677048e-02 -1.191453e-02 -2.204113e-02
2.427515e-02 1.542193e-02 6.453310e-03
-4.563604e-03 9.070149e-03 -2.852487e-02
-3.992095e-05 3.394353e-04 2.887684e-02
1.669125e-02 -1.193171e-02 -2.215670e-02
-6.795778e-03 -1.656198e-02 2.292587e-02
1.496517e-03 -1.690361e-02 2.367341e-02
5.190607e-03 -1.599962e-02 2.381459e-02
4.313335e-03 -1.623965e-02 2.383257e-02
3.924588e-03 -1.651532e-02 2.379271e-02
3.045839e-03 -1.654627e-02 2.382520e-02
1.892571e-03 -1.670655e-02 2.379741e-02
3.483940e-03 -1.646723e-02 2.379044e-02
4.788133e-03 -1.628889e-02 2.378663e-02
-2.091418e-04 -4.312553e-06 2.861670e-02
1.626762e-02 -4.806992e-03 2.376618e-02
1.337044e-02 1.039757e-02 2.376862e-02
-1.244041e-02 7.788598e-03 2.487680e-02
2.178997e-02 1.584251e-02 -1.358935e-02
3.037490e-03 2.678470e-02 -1.345249e-02
-3.320678e-03 2.675706e-02 -1.345077e-02
-7.558234e-03 -2.771994e-02 5.295699e-03
-1.974039e-02 2.111098e-02 5.984604e-03
-2.378378e-02 1.657748e-02 6.136229e-03
-2.821704e-02 -6.536724e-03 6.158022e-03
6.061472e-05 -1.303458e-04 2.901645e-02
-1.297234e-02 -2.638690e-02 9.167044e-05
9.621191e-03 2.465331e-02 -1.408598e-02
-1.500012e-02 4.142996e-03 2.445893e-02
-2.288829e-02 -1.653157e-02 7.867563e-03
-1.544295e-02 -7.468542e-03 2.346571e-02
-3.748668e-03 -2.935332e-02 1.402482e-03
-2.821372e-02 8.768542e-03 1.384362e-03
-2.792051e-02 9.859949e-03 1.392548e-03
-2.001872e-02 -2.171182e-02 1.290057e-03
-2.179444e-02 1.980134e-02 1.253162e-03
1.655179e-04 1.624421e-04 2.876452e-02
-3.723865e-03 2.930983e-02 1.346221e-03
-1.777451e-03 2.950591e-02 1.323402e-03
-2.314355e-02 -1.829447e-02 1.314726e-03
3.059319e-03 -2.936371e-02 1.261505e-03
8.516688e-03 -2.828040e-02 1.314649e-03
-1.963564e-02 1.947865e-02 -1.137617e-02
-2.881993e-02 6.784298e-03 8.590868e-04
2.862072e-02 5.635544e-04 6.819952e-03
2.862163e-02 -5.632987e-04 6.819790e-03
-1.976104e-02 1.125343e-03 -2.305052e-02
3.788831e-05 2.875006e-04 2.875074e-02
-1.976103e-02 -1.125319e-03 -2.305054e-02
6.621396e-03 -9.924546e-03 -2.765243e-02
8.103960e-03 -8.851771e-03 -2.788899e-02
-2.267738e-03 1.178249e-02 -2.788230e-02
1.173109e-02 2.940320e-03 -2.786940e-02
3.217937e-03 1.155645e-02 -2.780169e-02
9.799645e-03 -7.092567e-03 -2.787716e-02
-3.929569e-03 1.126653e-02 -2.770843e-02
1.175033e-02 1.230876e-03 -2.775576e-02
8.996169e-03 7.860166e-03 -2.773790e-02
2.817663e-05 1.457663e-04 2.879824e-02
7.589135e-03 9.214146e-03 -2.770904e-02
4.966688e-03 -1.097712e-02 -2.785206e-02
1.115507e-02 -4.574539e-03 -2.788124e-02
1.003142e-02 6.608757e-03 -2.792312e-02
2.333410e-04 -1.192607e-02 -2.770515e-02
7.870087e-04 1.200664e-02 -2.785759e-02
6.486944e-03 1.008326e-02 -2.793981e-02
1.158863e-02 -2.835578e-03 -2.765731e-02
4.766427e-03 1.106729e-02 -2.787791e-02
8.392423e-03 8.492438e-03 -2.773850e-02
-1.726664e-04 2.893876e-04 2.878925e-02
1.212469e-04 2.487110e-04 2.885007e-02
-2.808482e-03 1.158689e-02 -2.769391e-02
1.360991e-02 -2.581570e-02 -6.189565e-03
9.632430e-04 9.562148e-03 -2.896753e-02
1.964372e-02 2.099433e-02 5.309455e-03
1.963922e-02 -2.099090e-02 5.306447e-03
1.624726e-02 1.944105e-04 2.395315e-02
1.624643e-02 -1.933498e-04 2.395371e-02
-8.959641e-03 1.708192e-04 -2.890951e-02
-8.959965e-03 -1.711447e-04 -2.891037e-02
-1.243436e-04 2.942415e-02 -1.333896e-03
-3.689292e-04 1.014060e-04 2.881653e-02
5.345116e-05 2.938345e-02 -3.632306e-03
1.749522e-02 2.372050e-02 -3.646151e-03
1.633816e-04 1.612308e-02 2.361041e-02
-8.630143e-03 -2.735709e-02 6.097576e-03
-9.614193e-03 2.120019e-02 -1.926474e-02
-2.358088e-02 -1.782017e-02 1.010469e-03
-7.938255e-03 2.848955e-02 1.073296e-03
-6.434955e-03 2.886351e-02 1.101056e-03
1.877583e-02 2.168670e-02 6.100560e-03
1.877665e-02 -2.168725e-02 6.100597e-03
1.639472e-04 -2.400546e-04 2.885454e-02
-2.329670e-02 1.595737e-02 7.969102e-03
-2.054116e-03 -1.570625e-02 2.406449e-02
2.918161e-02 -3.368926e-03 -3.479460e-03
2.615263e-02 -1.343313e-02 -3.470624e-03
1.333527e-02 2.611778e-02 -3.526278e-03
2.581185e-02 1.401608e-02 -3.499758e-03
1.883305e-02 -6.283641e-03 -2.282245e-02
1.529623e-02 -2.503935e-03 2.443942e-02
1.529641e-02 2.504003e-03 2.443935e-02
1.101807e-02 -2.611532e-02 -9.918103e-03
5.231148e-05 1.480569e-04 2.885691e-02
-2.063565e-02 -1.982971e-02 6.870427e-03
2.855347e-02 7.842790e-03 -1.335963e-03
2.573227e-02 -7.854714e-03 -1.322674e-02
2.628314e-02 1.141341e-02 6.094476e-03
2.622916e-02 -1.156551e-02 6.194761e-03
-2.208258e-02 -1.858261e-02 5.596095e-03
1.708358e-02 -2.301753e-02 6.194191e-03
1.708326e-02 2.301688e-02 6.194137e-03
1.677498e-02 2.325067e-02 5.956941e-03
1.676887e-02 -2.324825e-02 5.962556e-03
-1.616734e-05 1.050333e-04 2.874992e-02
2.638121e-02 1.120864e-02 5.959625e-03
2.638767e-02 -1.120583e-02 5.958792e-03
-5.820907e-03 -4.283373e-03 -2.966539e-02
-7.176929e-03 1.488756e-03 -2.961795e-02
-5.351837e-03 4.787400e-03 -2.968221e-02
-1.374453e-03 7.243040e-03 -2.960411e-02
-2.706743e-04 7.239749e-03 -2.949125e-02
-2.309770e-03 7.001608e-03 -2.961077e-02
-5.373373e-04 7.107701e-03 -2.957125e-02
-1.928491e-03 7.178826e-03 -2.959916e-02
7.455908e-05 3.595847e-05 2.876947e-02
-6.398592e-03 -3.212426e-03 -2.951378e-02
-9.934411e-04 7.123366e-03 -2.955695e-02
-5.514649e-03 -4.685516e-03 -2.948405e-02
-8.152299e-04 7.380681e-03 -2.961235e-02
2.237720e-03 -6.896577e-03 -2.947633e-02
-7.125114e-03 -8.907483e-04 -2.955672e-02
-6.843133e-03 2.002680e-03 -2.952343e-02
-3.920398e-03 6.086930e-03 -2.949039e-02
-1.671807e-03 6.939351e-03 -2.951114e-02
-1.539665e-03 7.012237e-03 -2.971598e-02
1.339232e-04 1.711779e-04 2.884990e-02
-4.711692e-03 -5.474879e-03 -2.948446e-02
-6.784369e-03 2.294053e-03 -2.962340e-02
5.855808e-04 -7.222526e-03 -2.968952e-02
-2.034594e-03 6.839141e-03 -2.949580e-02
-1.132763e-03 7.156932e-03 -2.961366e-02
-6.849234e-03 2.214238e-03 -2.957624e-02
-7.719341e-04 -7.114086e-03 -2.957024e-02
-5.007571e-03 -5.211691e-03 -2.948794e-02
-5.633427e-03 -4.468843e-03 -2.965487e-02
9.033746e-04 -7.103829e-03 -2.956941e-02
-1.471629e-04 3.440187e-04 2.900285e-02
1.857060e-03 -6.987603e-03 -2.946003e-02
-2.318765e-02 1.718608e-02 5.603239e-03
1.855449e-02 -2.185032e-02 5.950286e-03
1.855443e-02 2.185035e-02 5.950369e-03
-8.951598e-03 -2.725226e-02 6.180955e-03
2.414307e-02 7.527613e-04 -1.741599e-02
1.507465e-02 1.889610e-02 -1.741325e-02
5.400304e-03 2.349992e-02 -1.746472e-02
2.272150e-02 8.201516e-03 -1.742822e-02
1.422977e-02 -1.952030e-02 -1.740538e-02
-4.012748e-05 -2.687996e-04 2.877470e-02
9.606058e-05 -2.415090e-02 -1.741201e-02
1.344716e-02 2.007711e-02 -1.743692e-02
2.387795e-02 -3.702144e-03 -1.743185e-02
-3.173980e-03 -1.534386e-03 -3.022556e-02
1.243380e-03 -8.681489e-03 -2.909474e-02
-2.030561e-03 -8.550462e-03 -2.906767e-02
-7.612186e-03 4.341893e-03 -2.909108e-02
-5.094615e-03 7.081424e-03 -2.906362e-02
-8.643152e-03 -1.440116e-03 -2.909128e-02
1.939454e-02 4.898403e-03 -2.261216e-02
1.777999e-04 3.013002e-05 2.883002e-02
1.617002e-02 -1.174549e-02 -2.260389e-02
-1.025075e-02 -2.396598e-03 -2.849650e-02
-8.748992e-03 5.707438e-03 -2.846136e-02
-8.644779e-03 6.049703e-03 -2.840822e-02
-1.248195e-02 -2.653417e-02 -3.234130e-03
1.088209e-02 1.034001e-02 2.488742e-02
-1.248184e-02 -2.660701e-02 -3.663423e-03
-1.461139e-02 -1.468839e-03 2.480626e-02
-1.461144e-02 1.468868e-03 2.480627e-02
-1.625412e-02 4.455204e-03 -2.520904e-02
-2.972810e-04 -3.464982e-04 2.881985e-02
3.725656e-04 4.211016e-04 2.881859e-02
2.222245e-02 1.819997e-02 6.194413e-03
2.348338e-02 1.667544e-02 6.150719e-03
-2.924525e-02 3.938749e-03 -9.188717e-04
-2.924521e-02 -3.938735e-03 -9.188942e-04
1.067872e-02 -2.742295e-02 -4.082656e-03
2.332838e-02 -1.678736e-02 6.212850e-03
2.207519e-02 -1.854546e-02 6.036124e-03
-2.038948e-02 -2.028763e-02 6.727779e-03
1.895074e-03 1.592136e-02 2.421716e-02
1.389198e-02 -2.202889e-02 -1.504674e-02
-2.240347e-04 4.892945e-04 2.882143e-02
2.310466e-02 -1.843209e-02 -3.004386e-03
1.512125e-02 7.915217e-03 -2.472597e-02
2.471403e-02 1.565822e-02 -4.485968e-03
-7.937304e-03 2.486081e-02 -1.504623e-02
2.558536e-02 -5.493230e-03 -1.506963e-02
1.196475e-03 -2.605730e-02 -1.502934e-02
1.997626e-02 1.677965e-02 -1.504501e-02
1.709559e-02 1.969367e-02 -1.503241e-02
2.582502e-02 3.375718e-03 -1.498921e-02
1.795283e-02 1.891319e-02 -1.502981e-02
3.449061e-04 3.302314e-04 2.883235e-02
-6.796355e-03 2.515485e-02 -1.503383e-02
2.308766e-02 -1.841986e-02 -2.958042e-03
-1.461576e-02 8.727599e-03 2.350467e-02
1.386023e-02 -7.337899e-03 2.448236e-02
-1.468879e-03 -1.487689e-02 2.463020e-02
-6.608945e-03 1.472946e-02 2.381338e-02
-2.098252e-02 1.869897e-02 8.180345e-03
-1.153448e-02 2.706785e-02 -1.238596e-03
-1.123166e-02 -2.695630e-02 4.821451e-03
4.611236e-03 2.921823e-02 3.326782e-04
-3.177426e-04 3.924646e-04 2.890948e-02
-2.568482e-02 1.431537e-02 -4.489922e-03
1.867812e-02 4.830148e-03 2.159385e-02
1.554194e-02 -1.142485e-02 2.158394e-02
2.278694e-02 -1.884646e-02 -3.187526e-03
1.133269e-02 9.924273e-04 -2.854405e-02
1.303005e-03 1.102997e-02 -2.806410e-02
-1.322821e-03 1.102379e-02 -2.804807e-02
3.612631e-03 1.038829e-02 -2.838850e-02
7.172835e-03 6.987116e-03 -2.877704e-02
1.099117e-02 -5.710146e-04 -2.835308e-02
2.854528e-04 -1.161501e-05 2.885284e-02
4.024837e-03 -1.022962e-02 -2.837558e-02
8.812364e-03 6.460718e-03 -2.800351e-02
1.044851e-02 3.421976e-03 -2.837645e-02
1.080348e-02 -1.590293e-05 -2.852806e-02
5.120967e-03 -9.523429e-03 -2.853179e-02
2.725722e-02 7.893476e-03 -1.028892e-02
2.057735e-02 -1.862796e-02 9.069670e-03
-1.003925e-03 -1.949795e-02 -2.294991e-02
5.342754e-03 1.879169e-02 -2.293984e-02
-3.752431e-03 1.916052e-02 -2.294204e-02
8.878328e-05 4.821846e-04 2.877890e-02
1.310614e-02 -1.455531e-02 -2.285074e-02
1.071854e-02 -1.631638e-02 -2.294671e-02
-3.818485e-03 9.635650e-03 -2.863690e-02
7.666971e-03 1.975567e-02 -2.174925e-02
7.479501e-03 1.797070e-02 2.150927e-02
1.635826e-02 1.057303e-02 2.150281e-02
1.791687e-02 -7.614603e-03 2.151133e-02
8.285498e-03 -1.759642e-02 2.150411e-02
1.036483e-03 1.939993e-02 2.151375e-02
-2.266894e-02 6.794695e-03 -1.827445e-02
1.666949e-04 5.107352e-04 2.879118e-02
-2.311659e-02 -1.733555e-02 5.987907e-03
2.353521e-02 -1.634309e-02 6.848834e-03
6.484711e-03 1.245559e-02 -2.663613e-02
2.158757e-02 -1.886605e-02 6.562544e-03
1.778057e-02 1.778811e-02 -1.596922e-02
2.688704e-03 9.571650e-03 -2.881527e-02
1.380172e-02 6.958293e-03 2.454987e-02
2.217795e-03 -1.526396e-02 2.456219e-02
1.455389e-02 -4.978149e-03 2.455539e-02
-1.377058e-02 -4.359229e-03 -2.659585e-02
-8.368116e-05 2.711136e-04 2.906100e-02
5.872176e-04 3.413310e-03 -3.005548e-02
-6.166043e-05 1.565563e-02 2.442888e-02
2.253176e-02 1.839645e-02 5.450089e-03
2.361292e-02 1.703338e-02 5.589235e-03
-2.392608e-02 1.607928e-02 6.349741e-03
-2.458741e-02 -3.780704e-03 -1.631970e-02
-6.807030e-03 2.402519e-02 -1.626718e-02
-8.066127e-03 2.359257e-02 -1.633842e-02
-5.546304e-03 2.437158e-02 -1.629292e-02
-4.890159e-03 2.442780e-02 -1.632799e-02
1.720674e-05 2.014263e-04 2.893522e-02
-2.375113e-03 2.478410e-02 -1.635501e-02
-1.937708e-02 -1.549209e-02 -1.626211e-02
-1.275468e-02 2.134830e-02 -1.632468e-02
-1.994111e-02 -1.506528e-02 -1.625655e-02
-2.249085e-02 -1.055539e-02 -1.631902e-02
1.871734e-03 -2.477194e-02 -1.636792e-02
1.103071e-02 2.638140e-02 6.258023e-03
-6.875932e-03 -7.589333e-03 -2.874115e-02
-6.862278e-03 7.596587e-03 -2.874536e-02
2.190507e-02 1.937302e-02 -4.122841e-03
1.364117e-05 1.418490e-04 2.864395e-02
2.332357e-02 -1.807633e-02 -1.562922e-03
1.468719e-02 -8.728524e-03 -2.485718e-02
1.119732e-02 -2.129483e-02 -1.782971e-02
2.562678e-03 6.235928e-03 -2.973743e-02
1.332345e-02 2.657543e-02 3.569812e-04
-1.397311e-02 -2.524819e-02 5.604839e-03
-1.736021e-03 -2.902615e-02 5.366580e-03
2.370809e-02 -1.689595e-02 5.538082e-03
2.837936e-02 5.827424e-03 5.349122e-03
2.462352e-02 -1.520969e-02 5.490365e-03
5.005992e-04 3.556407e-06 2.898145e-02
-5.875516e-06 2.372941e-04 2.901623e-02
2.841223e-02 5.974817e-03 5.295248e-03
1.614978e-02 -2.420802e-02 5.353144e-03
1.980006e-02 -2.142800e-02 5.391700e-03
2.457472e-02 -1.553486e-02 5.367740e-03
7.750636e-03 2.801893e-02 5.377422e-03
-5.379648e-03 2.859898e-02 5.355586e-03
2.422291e-02 -1.617671e-02 5.326235e-03
2.419748e-02 -1.594016e-02 5.549391e-03
2.363917e-02 -1.671165e-02 6.075361e-03
2.816706e-02 6.738933e-03 6.111589e-03
2.607681e-05 6.327052e-05 2.870500e-02
2.457214e-02 1.615883e-02 -1.564864e-03
5.913099e-03 -1.298202e-02 2.494550e-02
1.036967e-02 -2.786904e-02 -7.891789e-04
-3.519703e-03 4.768047e-04 -3.020862e-02
-1.332188e-02 -2.514499e-02 7.211296e-03
4.915750e-03 -4.915054e-03 -2.962051e-02
-2.030346e-03 -2.958871e-02 -3.057623e-03
-5.218475e-03 2.919637e-02 -3.060790e-03
1.669057e-02 -2.452140e-02 -3.056297e-03
2.035274e-02 -2.166237e-02 -3.195942e-03
-1.689788e-05 5.177032e-05 2.869528e-02
7.625451e-03 2.866778e-02 -3.043039e-03
4.299589e-03 -2.909794e-02 3.044450e-03
2.632187e-02 1.316938e-02 2.972610e-03
2.793857e-02 -9.257459e-03 2.983789e-03
2.931042e-02 2.894323e-03 3.413114e-03
2.931035e-02 -2.894317e-03 3.413151e-03
1.382483e-02 4.829973e-03 2.470481e-02
-2.223408e-02 1.859613e-02 5.421568e-03
-2.220499e-03 1.569536e-02 2.442296e-02
1.281595e-02 9.191444e-03 2.437491e-02
4.320594e-05 4.393411e-05 2.884971e-02
1.385243e-02 -7.749795e-03 2.443121e-02
1.501653e-03 1.577321e-02 2.441550e-02
1.062528e-02 -2.297248e-02 -1.604948e-02
6.168511e-03 2.830086e-02 5.173548e-03
2.894197e-02 1.146632e-03 5.152545e-03
1.788926e-02 2.279235e-02 5.167525e-03
2.717191e-02 1.007050e-02 5.153728e-03
2.614709e-02 -1.250572e-02 5.133996e-03
1.727975e-02 -2.325412e-02 5.149922e-03
-1.308231e-04 -2.895479e-02 5.154481e-03
2.046778e-04 3.529240e-04 2.893358e-02
2.250137e-02 -1.827719e-02 5.152048e-03