# vtk DataFile Version 2.0
Electric current density generated by TTH
ASCII
DATASET UNSTRUCTURED_GRID
POINTS 1399 double
7.233644e-06 -1.771732e-21 -2.299021e-06
9.569056e-06 1.909198e-06 -1.929253e-06
9.569056e-06 -1.909198e-06 -1.929253e-06
1.005426e-05 -3.377237e-06 5.779953e-07
1.005426e-05 3.377237e-06 5.779953e-07
7.829113e-06 -5.061631e-06 2.213551e-06
-4.294851e-06 -4.244754e-06 1.257364e-06
7.855483e-06 5.041491e-06 2.207730e-06
-3.705452e-06 -9.493746e-06 1.473443e-06
3.604692e-06 -9.945205e-06 6.846905e-07
-1.006430e-05 2.055249e-06 -1.356698e-06
8.185930e-06 -2.004975e-21 -2.488442e-06
-4.928993e-06 5.574668e-06 2.374398e-06
-1.300015e-06 9.959357e-06 -1.655443e-06
6.058551e-06 -7.569996e-06 -1.977946e-06
-3.127700e-06 -4.781868e-06 -2.854206e-07
-4.288448e-06 9.712410e-06 -5.310490e-07
5.348140e-09 -6.013696e-06 -1.213983e-06
7.827023e-06 -6.214366e-06 1.709713e-06
-5.347487e-07 -6.310841e-06 1.661532e-06
-1.060554e-05 5.108120e-07 5.274144e-07
-1.022137e-05 7.892064e-07 -1.387276e-06
9.138215e-06 -2.238217e-21 -2.299021e-06
3.053104e-06 -8.632128e-06 2.291510e-06
-5.685829e-06 -4.530652e-07 1.778518e-07
-3.739511e-06 -5.276130e-06 -1.799296e-06
-5.359384e-06 7.433106e-06 -2.288283e-06
8.695832e-06 -6.064250e-06 5.976432e-07
3.487924e-06 -8.150029e-06 2.393988e-06
-6.830441e-06 -4.724408e-06 2.485586e-06
-6.795804e-06 6.557504e-06 -2.147164e-06
-1.467063e-06 -1.051703e-05 -5.226751e-07
5.555110e-06 -1.494024e-06 -5.203923e-07
9.945524e-06 -2.435951e-21 -1.759594e-06
5.555110e-06 1.494024e-06 -5.203923e-07
1.834431e-06 -6.543425e-06 2.063882e-06
4.483435e-06 -3.629813e-06 -5.906413e-07
4.481100e-06 3.632515e-06 -5.901760e-07
7.718145e-06 2.922482e-06 -2.487540e-06
7.718145e-06 -2.922482e-06 -2.487540e-06
-8.280920e-06 9.277394e-07 -2.484109e-06
4.226420e-06 -4.840167e-06 -1.758976e-06
4.228000e-06 4.857345e-06 -1.772862e-06
-4.054574e-06 -4.071834e-06 4.902173e-07
1.048495e-05 -2.568072e-21 -9.522856e-07
-2.126855e-06 -5.416975e-06 7.697916e-07
-4.900722e-06 -8.850144e-06 1.570197e-06
3.583228e-07 8.669408e-06 -2.439545e-06
4.300032e-06 9.704099e-06 -5.442214e-07
5.863863e-06 -7.122524e-06 2.260759e-06
6.402834e-06 -3.487564e-06 2.321967e-06
6.102805e-06 7.065186e-06 2.206731e-06
1.767452e-06 -9.357201e-06 -2.098926e-06
3.940634e-06 -6.650820e-06 -2.446428e-06
8.138159e-06 1.695676e-06 2.485199e-06
2.770184e-06 -6.195700e-06 -2.057857e-06
8.132334e-06 -1.704171e-06 2.485398e-06
9.387375e-06 4.876531e-06 6.842852e-07
-6.224946e-06 6.405768e-06 2.373912e-06
1.030359e-06 -6.392658e-06 1.807102e-06
9.788247e-06 -2.629064e-06 1.546865e-06
9.788552e-06 2.629645e-06 1.546304e-06
1.746693e-06 -1.043580e-05 -6.753660e-07
6.755979e-06 -6.358946e-06 -2.236056e-06
-5.045205e-06 -5.887348e-06 -2.450561e-06
7.871644e-06 -5.164319e-06 -2.164010e-06
2.743977e-06 6.225527e-06 -2.069064e-06
7.868852e-06 5.167658e-06 -2.164295e-06
-3.153025e-07 9.913823e-06 1.785884e-06
7.523519e-06 8.265399e-07 2.410701e-06
7.407486e-06 -7.380287e-07 2.375315e-06
5.922909e-06 6.705859e-06 -2.369191e-06
3.156997e-06 -6.101229e-06 2.111792e-06
-4.905786e-07 1.061105e-05 -5.059790e-07
1.059214e-05 5.778739e-07 5.713622e-07
1.059214e-05 -5.778739e-07 5.713622e-07
8.227389e-06 3.590302e-06 2.359472e-06
-8.303088e-06 1.526687e-07 -2.485616e-06
8.236904e-06 -3.591866e-06 2.356319e-06
2.878719e-06 1.016987e-05 7.149718e-07
-6.548617e-06 -4.010219e-06 -2.436250e-06
1.736361e-07 -1.016941e-05 1.500757e-06
6.210565e-06 -5.319201e-06 -6.035458e-08
-5.026735e-06 -6.299031e-06 -7.983224e-08
4.643484e-06 -6.912658e-06 -1.678167e-08
5.541917e-06 6.261112e-06 -1.649120e-07
8.149638e-06 1.995051e-06 9.888623e-08
-5.367074e-06 6.050987e-06 1.708958e-07
6.420270e-06 -5.757815e-06 2.449591e-06
-1.919683e-07 -8.372501e-06 -5.029082e-08
-1.019798e-06 8.143669e-06 -1.697849e-07
-6.829454e-06 -4.375948e-06 -1.182031e-07
-8.175846e-06 3.510667e-07 -4.607867e-08
8.008601e-06 -1.705028e-06 -1.440802e-07
-7.658871e-06 3.152150e-06 5.341251e-08
7.114807e-06 3.989157e-06 -8.434200e-08
-3.251897e-06 -7.344619e-06 -6.597251e-08
3.436605e-06 7.364635e-06 -1.344327e-07
-3.411481e-06 7.502911e-06 2.065561e-07
6.459538e-06 5.692059e-06 2.452111e-06
-7.895887e-06 -2.704560e-06 1.227039e-07
2.273567e-06 -7.897946e-06 -1.697861e-08
6.553832e-07 8.191435e-06 -5.401822e-08
-7.046245e-06 4.593820e-06 4.704374e-08
7.030110e-06 -3.245001e-06 -4.905119e-07
8.140096e-06 -2.986726e-07 -9.540079e-08
-1.679298e-06 -8.959182e-06 2.822250e-07
-8.442564e-06 -1.125363e-06 1.163622e-06
4.908780e-06 -5.593653e-06 -1.079852e-06
6.982640e-06 5.713861e-06 9.419279e-07
-3.683294e-06 -4.360353e-06 -2.266505e-07
-9.142171e-06 2.186959e-06 -6.853969e-07
8.209811e-06 -4.616927e-06 7.238555e-07
9.663802e-06 -4.486486e-07 1.132892e-07
2.963565e-06 -6.351793e-06 4.691682e-07
6.278642e-06 -6.734418e-06 5.547482e-07
5.332415e-06 4.478263e-06 3.936016e-07
4.240604e-06 6.091436e-06 1.106041e-06
4.306120e-07 8.672343e-06 -1.479717e-06
-7.482953e-06 -6.123864e-06 -2.956592e-07
-8.197632e-06 -9.552152e-07 -1.397452e-06
-5.780694e-06 7.050083e-06 2.307685e-06
-6.709418e-06 1.586908e-06 -3.753485e-07
-3.567003e-06 -5.805236e-06 6.890878e-08
-4.396718e-06 -7.348340e-06 1.017064e-06
-2.959632e-07 7.800563e-06 1.395543e-06
-8.307692e-06 2.067719e-06 1.305875e-06
8.602595e-06 3.362148e-06 4.316886e-07
2.458434e-06 7.961325e-06 1.568028e-06
-1.954199e-06 6.477347e-06 -8.513225e-08
-2.390383e-06 8.208442e-06 -1.442231e-06
-5.242719e-06 -4.646125e-06 2.775007e-07
7.171621e-06 -4.887416e-06 -2.439174e-06
6.384195e-06 5.399857e-06 -1.018051e-06
-8.628999e-06 -3.630748e-06 -9.011025e-07
6.979404e-06 2.475895e-06 -1.193891e-06
-1.023021e-06 -7.211182e-06 -8.508742e-07
-4.523213e-06 -7.205732e-06 -1.220042e-06
-5.066869e-06 7.283479e-06 1.155822e-06
1.026144e-06 -6.918648e-06 6.388756e-07
-4.594266e-06 7.348074e-06 -1.529299e-06
-5.643656e-06 4.352693e-06 5.482584e-07
-2.636688e-06 9.166984e-06 4.161308e-07
7.171621e-06 4.887416e-06 -2.439174e-06
-6.834667e-06 -3.036994e-06 -9.739665e-07
9.263535e-06 -2.947476e-06 5.021562e-07
-2.624897e-07 9.640432e-06 3.214031e-07
-9.906215e-07 -7.378693e-06 9.883707e-07
1.346954e-06 -9.504870e-06 -1.136253e-07
2.374407e-06 7.575821e-06 -1.243108e-06
8.597495e-06 5.540849e-07 1.163489e-06
5.203076e-06 7.900818e-06 -9.009632e-08
4.318066e-06 6.637298e-06 -1.026010e-06
-6.623224e-06 -5.651961e-07 7.053216e-08
1.310899e-06 -5.573599e-06 3.735476e-07
9.026414e-06 7.350758e-07 -4.128154e-07
6.018981e-06 -7.028015e-06 -1.109306e-06
-6.217940e-06 3.646152e-06 -9.522566e-07
3.633906e-06 -8.190723e-06 9.070949e-07
-3.819704e-06 5.677937e-06 -1.022000e-07
-6.389837e-06 -3.153764e-06 7.322485e-07
-2.523025e-06 -7.949100e-06 -1.363335e-06
4.946248e-06 -5.754095e-06 1.124612e-06
-6.955718e-06 3.823243e-06 1.387216e-06
-6.655949e-06 6.315301e-06 -1.119000e-06
1.279527e-06 5.575079e-06 3.341625e-07
3.853168e-06 -8.139652e-06 -1.096918e-06
-5.685509e-06 -5.399212e-06 -1.326855e-06
1.242457e-06 -7.606884e-06 -1.302512e-06
7.270138e-06 -4.882657e-06 -1.394972e-06
7.041988e-06 2.596219e-06 1.083301e-06
2.242978e-06 6.263148e-06 3.853977e-07
7.271722e-06 -3.234073e-06 1.392911e-06
8.234425e-06 -8.887853e-07 1.368827e-06
-6.524123e-06 -5.301137e-06 1.440661e-06
-1.601174e-07 6.946055e-06 -4.356698e-07
-3.811730e-06 4.988988e-06 -1.598116e-06
-6.412181e-06 5.766599e-06 9.480484e-07
-8.242762e-07 -9.058999e-06 -1.061482e-06
3.066300e-06 9.220630e-06 -1.116894e-08
6.358200e-06 -3.993740e-06 1.234080e-06
-9.382132e-06 -1.710390e-06 1.022691e-08
-9.488946e-06 -4.727107e-07 -3.228836e-07
-8.068893e-06 -3.838983e-06 1.380848e-06
5.534842e-06 -3.747623e-06 -2.945757e-07
3.881398e-06 -6.624383e-06 -1.509631e-06
-5.006961e-06 8.254978e-06 1.547612e-07
-6.462468e-06 8.923501e-07 1.851924e-06
-1.967413e-06 9.333415e-06 -7.678802e-07
-8.507021e-06 -2.322121e-06 -1.185992e-06
6.385835e-06 -5.817163e-06 -1.563810e-06
-5.186983e-06 5.107363e-06 1.349221e-06
8.551145e-06 -6.683612e-07 -1.503608e-06
2.307329e-06 -6.510087e-06 -7.126931e-07
6.644821e-06 1.403194e-06 -8.482095e-07
-2.227182e-06 -6.525383e-06 7.113185e-07
5.326693e-06 5.085611e-06 -1.320693e-06
2.768970e-07 -9.591958e-06 7.378583e-07
-5.905731e-06 -3.219436e-06 -2.015360e-06
8.356728e-06 2.783682e-06 -1.182368e-06
-2.519024e-06 -8.102896e-06 1.281954e-06
7.107166e-06 -6.311332e-06 9.995925e-07
-8.564147e-06 4.436798e-06 -3.620088e-07
4.895369e-06 -8.066205e-06 8.913046e-07
6.239146e-06 7.267789e-06 -8.137910e-07
-4.492086e-06 -8.616418e-06 -1.139231e-07
-7.483026e-06 -1.869610e-06 -1.282907e-06
6.606623e-06 -1.078792e-06 -5.381336e-07
-9.209749e-06 2.857485e-06 7.497631e-07
-5.819918e-06 3.285970e-06 -1.983688e-06
8.140469e-06 -2.941144e-06 -1.094532e-06
4.202060e-06 7.944960e-06 -1.311065e-06
-6.186275e-06 4.788514e-06 -1.509250e-06
-2.872415e-06 6.750064e-06 -1.164181e-06
-4.484047e-06 -5.389422e-06 1.081838e-06
3.723599e-07 -8.433982e-06 1.565332e-06
4.215645e-06 -6.774238e-06 1.484718e-06
-8.057049e-06 4.837531e-06 9.461604e-07
-1.587416e-06 8.019678e-06 1.440033e-06
2.237099e-06 -7.689091e-06 1.273192e-06
-1.378019e-06 7.397794e-06 2.399078e-06
5.629983e-06 3.733071e-06 -6.229597e-07
9.152692e-06 -2.508365e-06 -7.164155e-07
-5.561254e-06 -6.589208e-06 -1.502626e-06
-5.517564e-06 -7.830903e-06 -5.096107e-07
-3.690508e-06 8.153749e-06 -1.262422e-06
-6.131899e-06 6.942579e-06 1.168807e-06
6.467342e-06 6.614225e-06 1.240897e-06
-3.284235e-06 -8.859828e-06 -1.970239e-07
7.130078e-06 1.086654e-06 7.582564e-07
8.101459e-06 1.735191e-06 1.586598e-06
8.975798e-06 -3.442782e-06 2.038293e-06
-7.989354e-06 1.054256e-06 -1.463441e-06
-9.391862e-06 9.847937e-07 -1.021192e-06
-3.236403e-06 -6.519645e-06 -1.197261e-06
4.251137e-06 5.189760e-06 -1.462043e-08
7.423421e-06 3.841748e-06 1.452641e-06
1.151911e-06 6.602619e-06 1.858794e-07
-8.216149e-06 3.247515e-06 1.501908e-06
-3.997200e-06 7.803631e-06 1.524241e-06
-6.194252e-06 -4.074040e-06 -1.467784e-06
3.220718e-06 5.888962e-06 3.398117e-07
8.975798e-06 3.442782e-06 2.038293e-06
4.300843e-06 7.879699e-06 1.329576e-06
[...]
POINT_DATA 1399
VECTORS 10.000GHz_fone_imag double
-3.021296e+09 -1.416200e+11 2.435863e+09
1.128667e+10 -7.540990e+10 -2.527674e+09
-1.200784e+10 -5.517246e+10 -7.386626e+08
-2.015508e+10 -5.844543e+10 2.160661e+09
1.332971e+10 -3.938894e+10 1.034373e+09
-5.135887e+10 -6.835265e+10 3.151120e+09
-1.271333e+11 1.399088e+11 -7.945644e+09
4.609198e+10 -7.558188e+10 1.331637e+09
-6.217611e+10 2.838782e+10 3.240058e+09
-4.137004e+10 -1.490610e+10 3.339257e+08
9.948559e+09 5.367201e+10 3.762594e+09
-6.262299e+09 -9.880225e+10 -9.119381e+08
1.014663e+11 8.973055e+10 1.334412e+09
5.397666e+10 7.033178e+09 5.626834e+08
-6.007609e+10 -4.275112e+10 -2.530161e+09
-2.174421e+11 1.649942e+11 -7.183949e+09
4.473377e+10 1.972687e+10 -8.031243e+09
-1.880363e+11 -7.511197e+09 7.890950e+08
-3.007134e+10 -4.379613e+10 -2.323165e+09
-2.112862e+11 -5.574011e+09 1.173037e+09
2.889002e+09 6.012687e+10 4.139041e+09
8.819781e+09 6.432443e+10 -3.946269e+09
1.221308e+09 -7.464603e+10 -1.243109e+09
-9.344021e+10 -2.990500e+10 -5.555134e+08
-2.028044e+10 2.973009e+11 1.037047e+10
-1.906672e+11 1.308522e+11 -5.850871e+08
5.751150e+10 3.970264e+10 -3.161397e+09
-3.264389e+10 -4.650493e+10 3.164897e+09
-7.071900e+10 -3.635417e+10 1.662433e+09
-5.610302e+10 9.613423e+10 -4.555562e+08
5.407083e+10 4.007422e+10 -6.092890e+09
-5.345987e+10 8.316856e+09 -6.566411e+09
-4.657913e+10 -1.961467e+11 1.338569e+10
-1.188491e+09 -7.690199e+10 -9.736150e+08
7.040136e+10 -2.462010e+11 -2.201761e+10
-1.437871e+11 -4.044534e+10 7.095521e+09
-1.950731e+11 -2.215912e+11 1.653821e+10
2.026540e+11 -2.240614e+11 -1.137175e+10
3.929007e+10 -7.553955e+10 6.110946e+08
-3.399810e+10 -8.531112e+10 -1.226007e+09
2.280804e+10 1.105388e+11 3.022363e+09
-1.496087e+11 -1.176470e+11 1.674376e+10
1.699081e+11 -1.325476e+11 -5.375062e+09
-1.638865e+11 1.460842e+11 -3.509153e+09
-1.132030e+09 -4.612051e+10 -9.899513e+08
-2.212147e+11 9.829671e+10 -1.499607e+10
-6.174548e+10 2.871919e+10 -3.122887e+09
1.102303e+11 -1.053337e+09 -3.815311e+08
4.815810e+10 -2.099403e+10 2.543511e+08
-7.698436e+10 -5.594177e+10 8.235369e+08
-7.738014e+10 -1.216705e+11 -3.008676e+09
6.823072e+10 -4.837005e+10 -3.470064e+09
-7.073897e+10 -1.379807e+10 5.098056e+08
-1.199123e+11 -6.613107e+10 3.970658e+08
1.971579e+10 -1.180434e+11 2.372591e+09
-1.379602e+11 -5.873131e+10 1.245551e+10
-1.029446e+10 -7.657887e+10 -4.046902e+09
2.420458e+10 -4.676984e+10 2.911228e+09
7.309278e+10 7.051890e+10 -2.337400e+08
-1.721178e+11 -3.041365e+10 2.667151e+08
-1.386319e+10 -4.778256e+10 8.413081e+08
2.291781e+10 -7.374445e+10 -1.843450e+09
-4.127254e+10 -7.765262e+09 3.288515e+09
-6.038420e+10 -7.030416e+10 2.650266e+09
-9.103352e+10 7.355724e+10 9.927455e+08
-4.138969e+10 -6.299633e+10 1.540106e+09
1.502080e+11 -6.999062e+10 -2.687285e+09
4.256815e+10 -7.403109e+10 -4.313622e+09
5.670481e+10 1.568614e+09 6.754996e+08
-2.028243e+09 -1.507643e+11 -2.086731e+09
-1.021894e+10 -1.340648e+11 2.905326e+08
7.932561e+10 -5.348593e+10 3.330047e+09
-1.343470e+11 -8.345595e+10 4.838301e+09
4.137983e+10 2.192153e+09 3.575290e+09
3.986469e+09 -5.249483e+10 -3.147821e+09
-4.008203e+09 -5.271504e+10 3.335406e+09
4.321198e+10 -8.152064e+10 1.253703e+09
1.693825e+09 1.153596e+11 -1.001179e+09
-2.904304e+10 -6.638700e+10 -3.358047e+09
4.742166e+10 -1.060601e+10 -5.024090e+09
-8.416111e+10 1.079826e+11 -1.639709e+09
-6.256267e+10 -4.851888e+08 1.281774e+09
4.177366e+09 4.836505e+09 3.415596e+08
6.140181e+09 -4.572367e+09 8.661763e+06
5.445829e+09 3.932722e+09 -4.217991e+08
-4.864728e+09 4.382961e+09 -3.866132e+08
-1.471729e+09 6.118494e+09 2.732921e+08
-6.196412e+09 -6.013850e+09 -1.106187e+08
-5.765599e+10 -7.372344e+10 -5.151051e+08
6.742283e+09 3.993277e+07 2.286710e+08
-6.394800e+09 -9.679166e+08 -2.799420e+08
3.982709e+09 -6.050689e+09 4.180938e+08
-2.647422e+08 -8.081652e+09 -4.575151e+06
1.251363e+09 6.947785e+09 4.803857e+07
-2.784582e+09 -7.366453e+09 2.020348e+08
-4.080164e+09 7.624048e+09 -2.777611e+08
9.197626e+09 -2.988665e+09 7.876208e+08
-7.582198e+09 3.296901e+09 1.137007e+09
-8.490678e+09 -4.305353e+09 -8.417630e+07
4.988403e+10 -5.851611e+10 -1.683226e+08
2.765197e+09 -7.035274e+09 -1.520327e+08
7.610295e+09 2.080384e+09 1.443000e+08
-8.132855e+09 1.354457e+08 4.143039e+08
-5.022566e+09 -6.204760e+09 7.250081e+07
4.358224e+09 6.615037e+09 -1.006270e+09
-4.926721e+07 7.326002e+09 -2.881872e+08
-5.945135e+09 1.046929e+09 1.292915e+08
-5.155851e+09 2.026790e+10 9.545910e+08
-3.759903e+10 -3.398377e+10 3.158433e+09
1.175794e+10 -1.539739e+10 6.670252e+08
-2.400924e+11 2.036095e+11 -1.777107e+10
5.305896e+09 2.225424e+10 -4.816812e+08
-1.334400e+10 -2.132064e+10 2.922380e+07
-1.479834e+09 -2.193545e+10 -1.013708e+09
-6.866813e+10 -3.404937e+10 -3.740869e+09
-6.870195e+09 -5.123733e+09 2.051374e+08
4.651311e+10 -4.620595e+10 2.795218e+09
5.458461e+10 -3.538984e+10 2.960887e+09
4.237613e+10 -2.872775e+09 -6.200496e+08
-1.398355e+10 1.741425e+10 2.696559e+08
-7.351546e+09 3.407199e+10 -1.271924e+09
5.744986e+10 4.864087e+10 -4.124988e+09
2.080653e+10 8.598076e+10 -1.702716e+09
-7.352843e+10 4.659570e+10 2.123289e+09
-1.192876e+10 8.182141e+09 4.392952e+08
6.077006e+10 1.082395e+09 9.231012e+07
8.684991e+09 3.334806e+10 -6.915461e+08
2.250920e+09 -7.715173e+09 7.767151e+08
5.301647e+10 -1.420859e+10 5.303544e+08
9.066234e+10 2.134323e+10 -5.841368e+09
3.965805e+10 9.716348e+09 -4.572615e+08
-3.597840e+10 4.002487e+10 8.682565e+07
-5.601801e+10 -7.940662e+10 4.416257e+08
6.268792e+09 -1.080202e+10 -1.176672e+09
-1.112402e+10 2.469363e+10 2.278546e+08
2.143099e+10 -6.554800e+10 6.652634e+08
-5.288178e+10 9.351508e+09 2.100107e+09
-2.498035e+10 1.580440e+10 2.406532e+08
2.064175e+10 1.409164e+10 -4.671399e+08
-6.171200e+10 -1.051115e+10 -5.574737e+08
4.397627e+10 2.838212e+10 8.458197e+08
3.259057e+10 3.858408e+10 2.709327e+09
1.948300e+10 5.704406e+09 -7.529661e+08
5.545274e+10 -7.459804e+10 -9.209786e+08
-1.724263e+10 3.644671e+10 3.682190e+08
-8.128607e+09 -2.393225e+10 1.033375e+09
2.266353e+10 3.821626e+08 -2.494349e+08
-4.648693e+10 3.946433e+09 1.176243e+09
-1.658616e+10 -2.824687e+09 -2.805212e+08
3.080430e+10 -1.244184e+10 1.312495e+09
3.062063e+09 -2.368179e+10 -5.337027e+08
1.313693e+10 -8.687343e+09 2.988865e+08
1.475334e+10 -1.047188e+10 -6.443028e+08
-1.161165e+10 1.194534e+11 1.250440e+09
-2.037393e+11 -4.155441e+10 1.097795e+09
8.029601e+08 -5.701217e+09 -6.066293e+08
-2.249092e+10 -1.897577e+10 7.720524e+07
3.867554e+10 6.588420e+10 3.146336e+09
-1.507594e+10 -6.095706e+09 2.860939e+09
6.592658e+10 4.345785e+10 4.013469e+09
-2.757936e+10 5.485909e+10 -2.654960e+09
-4.065104e+10 1.301553e+10 1.250085e+09
-3.689599e+10 -3.035931e+10 1.069627e+09
2.698413e+10 5.173009e+10 7.311036e+08
2.113774e+10 2.059036e+10 2.113615e+08
2.663820e+11 -6.231800e+10 1.741593e+10
-2.428730e+10 -1.154780e+10 -4.808049e+08
-3.009605e+10 3.092079e+10 6.637387e+08
-5.333513e+10 -7.598553e+09 -1.092824e+09
-1.968770e+10 -3.081638e+10 3.025812e+08
2.014266e+10 -5.267508e+10 -1.348800e+08
1.135633e+11 -4.070704e+10 -1.177547e+10
-2.245922e+10 -4.809016e+10 -5.467404e+08
-4.751395e+09 -3.299828e+10 3.518289e+08
-2.406519e+10 2.987008e+10 -7.397127e+08
5.883910e+10 6.925759e+09 1.623584e+08
1.532428e+11 1.359447e+11 -1.349889e+10
4.996449e+09 6.164680e+09 1.012853e+07
-2.327823e+10 5.189897e+09 -1.215469e+09
2.599166e+10 -7.494598e+09 4.496099e+08
-3.436972e+10 -5.020736e+10 5.091120e+08
-1.755589e+09 1.454940e+10 1.334283e+09
-1.134529e+09 1.762539e+10 -2.606946e+08
-1.587889e+10 3.358593e+10 -1.068913e+09
-6.306589e+10 -9.163252e+10 2.967765e+09
-6.946121e+10 -4.135182e+10 1.115475e+09
2.232231e+10 1.444344e+10 4.114730e+08
2.803572e+10 1.969754e+11 2.165748e+09
2.746116e+10 5.318517e+09 -1.056127e+09
-7.254154e+09 2.082405e+10 8.531181e+08
-3.610570e+10 -3.922859e+10 -5.536468e+08
6.262908e+10 5.686818e+10 -1.225109e+09
-3.026981e+09 -4.034343e+10 -1.594944e+09
-9.558816e+10 -3.051808e+10 -1.783180e+09
2.386159e+10 -1.133547e+11 -3.088005e+09
-8.079202e+10 2.578439e+10 1.584751e+09
5.782503e+10 -6.172959e+10 2.057977e+09
-2.934458e+10 -1.434610e+09 -7.149652e+08
-8.893362e+10 1.607696e+11 7.554663e+09
9.067545e+09 -2.554216e+10 -2.786839e+08
-2.599210e+10 8.720166e+09 2.014359e+08
-2.022681e+10 -2.314753e+10 -9.807383e+08
1.111396e+10 2.073804e+10 -6.373761e+06
-2.701242e+10 -1.668764e+10 -2.613069e+09
2.100291e+10 -1.902695e+10 -1.327174e+09
-2.289698e+10 1.093990e+10 -9.197890e+07
-1.534788e+10 6.589822e+10 2.427260e+08
-1.821251e+10 -1.242201e+11 -5.116370e+09
9.085523e+09 3.106899e+10 1.081744e+09
7.942517e+10 1.704647e+11 6.106996e+09
-4.954736e+09 -1.473826e+10 4.220254e+08
3.426924e+10 -1.732407e+10 2.406330e+08
3.892437e+10 5.245642e+10 5.408910e+08
6.992611e+10 2.924891e+10 7.781186e+08
-8.613764e+10 6.691919e+10 1.735398e+08
-5.275640e+10 -2.917521e+09 -8.914595e+08
-4.698414e+10 -2.771919e+10 3.550498e+09
1.628820e+10 2.380351e+10 7.198484e+08
5.325880e+10 1.107212e+10 2.184925e+09
-3.127038e+10 -8.768256e+09 1.275141e+09
1.300455e+11 1.652174e+10 1.490706e+09
6.647292e+10 -9.778172e+10 1.290465e+09
-6.818095e+09 -2.346522e+10 -3.212248e+08
-3.466107e+10 3.108725e+10 2.561617e+08
-2.014516e+10 1.280155e+10 -9.384875e+08
3.443662e+10 1.549584e+10 1.253689e+09
2.442237e+10 2.066168e+10 4.240179e+08
3.161486e+10 -3.098663e+10 -1.888402e+09
-1.673587e+10 5.989612e+09 1.160025e+08
8.797351e+09 -4.999152e+10 2.198943e+09
1.284555e+10 -6.425664e+10 2.662174e+08
-2.179483e+10 -6.974183e+10 -2.311353e+09
1.151874e+10 5.510306e+10 1.336854e+09
3.724828e+09 3.762238e+10 1.241185e+09
-7.785286e+10 3.521691e+10 -2.479701e+09
7.743392e+10 -6.836475e+10 -2.772316e+09
2.202992e+10 -4.196773e+10 -1.841836e+09
1.092016e+11 -1.735722e+10 -2.042229e+09
1.802306e+10 4.267635e+10 -1.169728e+09
4.632462e+10 2.438390e+10 -7.461751e+07
-5.580186e+10 7.813555e+10 -1.192840e+09
1.061150e+11 -5.387094e+10 2.835230e+09
3.124340e+10 -7.033452e+10 -2.851579e+09
3.279830e+10 -1.945182e+10 8.698754e+08
6.742988e+09 -2.441244e+10 -7.973356e+08
7.201942e+10 1.189797e+10 -1.820794e+09
-2.114568e+10 6.685948e+10 -5.711050e+08
-8.069747e+09 -3.814774e+10 -5.705144e+08
7.043426e+10 -8.897372e+09 2.880243e+07
4.277108e+10 6.288476e+09 2.568805e+08
2.067036e+10 3.497038e+10 3.277494e+07
2.768739e+10 -2.349799e+09 1.202083e+08
4.125190e+10 -3.112391e+09 -1.158714e+09
1.819274e+11 2.662380e+10 -5.041118e+09
4.567679e+09 2.872610e+10 1.410785e+09
-2.049001e+10 3.180642e+10 -2.029517e+09
1.214114e+10 -1.912882e+10 6.988556e+08
-8.863665e+09 2.694049e+10 -5.439597e+08
2.779874e+10 1.269689e+10 -8.282484e+08
1.914331e+10 5.502318e+10 -1.366968e+08
2.028696e+10 1.564488e+10 4.187293e+08
-3.224441e+10 1.488191e+10 -1.368993e+09
-2.863992e+10 -3.750659e+10 2.604896e+08
8.031316e+09 -4.215947e+10 -1.409968e+09
-3.032498e+10 1.338887e+11 -5.120062e+08
2.818987e+10 -5.907915e+09 -1.699530e+09
1.376532e+10 1.135012e+11 -6.110005e+08
3.958358e+10 8.142077e+10 -5.553329e+09
1.485835e+10 -2.866287e+10 1.534899e+09
4.036080e+10 -3.438974e+10 -1.150968e+08
-2.720851e+10 2.380625e+10 6.939623e+08
-1.599200e+10 1.424215e+10 6.943746e+08
-8.098106e+10 1.516273e+09 1.882518e+09
6.573356e+10 -3.082440e+10 -2.516245e+09
2.573370e+10 -5.384714e+09 4.489450e+08
-2.287300e+11 5.045754e+10 2.395995e+09
-8.399890e+10 -5.857174e+10 -2.191383e+09
-7.424329e+10 2.897251e+10 4.227904e+09
-3.657460e+10 -4.053085e+09 2.058783e+09
6.813782e+10 -4.777167e+09 -6.099953e+08
7.510369e+10 7.492263e+10 -1.609608e+09
-2.854963e+10 -7.556263e+09 2.028396e+08
4.511050e+09 5.645493e+10 -1.532637e+09
-1.731909e+10 -2.214861e+10 1.520848e+08
-8.072532e+10 6.218362e+10 -7.902259e+08
5.474898e+10 -5.388070e+10 1.870021e+09
-1.119672e+11 2.872063e+10 2.099360e+09
-3.691562e+10 1.094814e+11 2.345540e+09
-9.001810e+10 9.356762e+08 1.060026e+08
5.843290e+10 2.850759e+10 1.728402e+08
-3.328870e+10 -5.231400e+09 7.916858e+08
-1.382945e+10 2.032023e+10 -4.790541e+07
3.734598e+10 -7.636881e+10 -3.609929e+09
-2.462065e+10 -1.590446e+10 1.734192e+09
6.256126e+10 -2.727858e+10 -1.217030e+09
2.815829e+10 1.815044e+09 1.741298e+09
-4.100567e+10 6.799969e+09 7.899837e+07
-2.265840e+11 -2.157311e+11 1.449539e+10
-5.239051e+09 -1.126016e+11 -2.276053e+09
5.714051e+10 1.386648e+09 -3.767932e+09
1.385427e+10 -2.535141e+10 2.675774e+08
-7.919828e+10 1.215069e+11 1.001201e+09
3.649153e+10 -7.177910e+10 3.304371e+09
1.478207e+09 -3.174134e+10 4.672723e+08
4.851143e+09 -2.622271e+10 -1.714577e+09
-3.705322e+10 -9.792161e+10 4.604807e+07
-2.834720e+10 5.078486e+10 6.525662e+07
-7.474746e+10 -8.995550e+10 1.257660e+09
2.014260e+11 -2.094451e+11 -3.551251e+10
3.990689e+10 9.659837e+10 1.503528e+09
-2.899777e+10 -1.007735e+11 -4.198034e+08
-5.253839e+10 -1.809212e+10 -4.235659e+08
-6.482352e+10 9.072915e+10 -3.436290e+09
-9.379548e+09 3.466347e+10 -4.361359e+08
-8.752636e+09 -2.009851e+10 1.965706e+08
-3.595451e+10 -2.824797e+10 -1.227806e+08
-1.606756e+10 8.117935e+10 7.820361e+08
-3.700451e+10 -5.409367e+10 1.392321e+09
2.581598e+09 -3.914622e+10 5.620385e+07
1.135748e+11 -2.091117e+10 2.121690e+09
-4.227686e+10 1.944010e+10 1.940784e+08
1.257425e+10 1.649612e+10 7.512549e+08
3.845128e+10 3.218253e+10 -1.202002e+09
-2.531700e+10 -3.692143e+10 7.129410e+08
-8.769059e+10 3.227242e+10 4.806263e+09
2.784205e+10 3.853032e+09 1.271209e+09
-2.997089e+10 -3.999501e+09 1.182116e+09
2.507715e+10 -1.312946e+10 -7.917355e+08
-5.615913e+10 -4.042916e+10 -1.458637e+09
-1.043891e+11 -1.056408e+11 -3.847953e+09
4.787528e+10 8.341002e+10 4.632929e+09
1.396295e+10 -1.565329e+10 -5.143823e+08
-2.833637e+10 3.019102e+09 -6.358516e+08
3.627682e+10 -2.584876e+10 3.904703e+07
-1.325260e+10 -6.435658e+10 -1.940450e+09
-2.613166e+10 3.186048e+10 -3.642284e+08
-1.256444e+11 -1.623521e+09 -2.182169e+08
-1.327245e+10 2.318614e+10 1.136039e+08
5.076960e+10 -6.462011e+10 -8.561039e+08
2.547198e+10 -1.900618e+10 7.131555e+08
5.129642e+10 6.937530e+09 -3.830701e+08
-2.477805e+10 -1.071092e+11 -4.014260e+08
1.031245e+11 9.621597e+10 -5.147474e+09
4.978412e+09 1.167501e+11 4.371672e+09
4.763275e+10 5.440861e+10 -2.955546e+09
-3.572719e+10 5.463015e+10 3.442730e+08
-1.792423e+10 -1.888496e+10 -2.067050e+08
2.962006e+10 1.119249e+11 3.636990e+08
-3.277507e+10 7.770907e+09 4.090652e+08
-2.857899e+10 -1.024053e+10 -5.098951e+08
6.559584e+10 -1.454765e+11 2.245619e+09
8.493640e+09 -3.532597e+09 -5.144463e+08
1.635440e+10 -7.802452e+10 -1.376946e+09
1.606086e+10 2.451832e+10 -1.171405e+09
3.967847e+10 -1.310662e+11 -3.899520e+09
-2.367296e+09 8.164281e+10 -1.317613e+09
-1.381275e+11 -1.804298e+10 3.029622e+09
-1.294658e+11 3.131369e+10 1.878817e+09
1.106274e+10 3.044422e+10 5.927587e+08
3.049862e+10 -1.183550e+10 -2.106009e+09
-3.320066e+10 2.035128e+10 -9.868879e+08
-7.364485e+10 -3.632275e+10 -1.526971e+08
-3.174707e+09 9.150216e+10 -3.021265e+08
-7.272116e+10 7.723892e+10 -1.522015e+09
-2.595332e+10 -1.197932e+10 -1.151436e+09
-8.512401e+10 -1.003841e+11 -2.957918e+09
-3.220697e+08 5.711782e+10 -1.297722e+08
3.586125e+08 -3.385535e+10 -1.129321e+09
2.813622e+10 1.003938e+10 -5.802477e+08
-3.427442e+10 1.052154e+10 1.225297e+09
-1.321252e+10 2.754534e+10 4.444125e+08
-1.168816e+11 -3.269056e+10 -8.683516e+08
3.338618e+10 -2.322834e+10 -1.264227e+09
-4.190562e+10 -1.501930e+10 -1.490964e+09
-7.560484e+10 5.688310e+10 -5.325133e+09
6.324791e+10 -1.265572e+10 2.008729e+09
-4.015734e+09 -2.821676e+10 4.261161e+07
-5.373410e+09 3.624828e+10 -1.200138e+09
-4.386848e+09 -2.486928e+10 1.289678e+08
-4.329357e+10 -8.270322e+10 3.967103e+09
-1.156923e+11 9.738432e+10 -4.022610e+09
1.275213e+11 6.093664e+10 3.733951e+09
-2.168909e+10 -1.643648e+10 1.327615e+08
3.123745e+10 -1.159177e+10 -4.432422e+07
-3.907312e+09 -3.847392e+10 1.421992e+09
-1.153241e+11 -1.879049e+10 1.633707e+08
-2.464187e+10 2.741654e+10 -1.482971e+09
1.332141e+09 2.903476e+10 -2.919928e+08
-7.038531e+09 -4.330553e+09 -4.811008e+08
-1.180532e+11 -7.310973e+10 -5.764139e+09
-1.505066e+10 -2.160560e+10 4.039290e+08
-1.434739e+10 -5.330816e+10 6.960798e+08
6.736614e+10 4.617524e+10 8.908476e+07
5.600836e+08 -8.619794e+09 5.971492e+08
2.360477e+10 3.241928e+10 1.812300e+08
4.201548e+10 1.140944e+10 -4.233448e+08
-6.053644e+10 -1.373630e+11 6.984053e+09
-1.212274e+10 -9.292268e+10 3.962999e+09
8.438372e+10 3.081449e+10 8.338969e+08
2.662170e+10 -3.826733e+10 -7.643822e+08
6.178454e+09 -1.268458e+11 4.816896e+09
-6.421528e+10 6.716322e+10 1.846814e+09
5.722396e+09 -3.325003e+10 6.458634e+08
-3.406273e+10 -6.837164e+08 7.507148e+08
2.420540e+10 8.101487e+10 -2.881410e+09
-1.779810e+09 -9.213192e+10 -4.386893e+08
4.054914e+09 -3.206767e+10 4.492324e+08
7.998425e+10 -1.657119e+11 3.321448e+09
-5.735510e+09 -5.846847e+09 3.641114e+08
-4.498830e+09 3.237822e+10 -4.033554e+08
1.651945e+11 2.867105e+10 -4.237927e+09
1.273283e+11 -1.425563e+11 -2.978987e+09
9.752550e+10 -7.310460e+10 1.523173e+09
1.133148e+10 4.992969e+09 2.344252e+08
5.787773e+10 -7.941446e+10 -1.701674e+09
9.888775e+10 3.520731e+09 -4.096315e+08
1.484070e+10 3.347752e+10 -1.828770e+09
8.673854e+10 1.055738e+11 1.654687e+09
-6.078530e+10 -3.221608e+10 6.661130e+08
-2.274591e+10 2.077067e+10 -1.025814e+09
1.114346e+11 -3.217656e+10 -7.731471e+08
-2.573807e+10 8.218529e+10 3.972256e+09
2.323209e+10 -3.612953e+10 1.482909e+09
-1.473028e+11 5.975636e+10 -5.717061e+08
-3.502167e+10 -3.675017e+10 -1.197563e+08
1.888237e+09 4.867971e+09 4.090320e+08
-1.386968e+10 -2.288029e+10 2.902881e+08
1.272764e+10 -1.049135e+11 -3.807163e+09
-1.519897e+10 -3.541457e+10 -1.775594e+09
-1.228883e+10 2.224950e+11 -7.553000e+09
1.290373e+10 -3.243163e+10 4.444237e+08
-9.591335e+08 4.612690e+10 1.490864e+09
8.543348e+10 -3.510701e+10 -7.337300e+09
2.128571e+10 1.975546e+10 -4.940725e+08
3.441929e+10 -3.333789e+10 7.463753e+08
-1.866094e+10 -3.846494e+10 1.898695e+08
-9.260758e+10 1.009861e+11 -6.351361e+08
-6.059120e+10 -1.192657e+11 -2.211434e+09
-8.168631e+10 5.678283e+10 -1.687817e+09
-6.886146e+10 9.545252e+09 -3.887855e+08
-7.293820e+10 -1.110725e+10 9.457019e+08
6.122837e+10 4.614769e+10 -1.100684e+09
1.914214e+10 6.873874e+10 3.869608e+09
9.350709e+10 -5.057174e+10 -3.643443e+09
-8.614675e+09 2.230277e+09 7.063442e+08
3.794405e+09 -3.886889e+09 -3.098871e+08
1.436154e+11 -1.357386e+09 -2.541094e+09
-1.562790e+10 -4.574404e+10 2.089313e+07
-7.211424e+10 -1.029009e+10 2.941464e+09
-7.789556e+10 1.672883e+11 3.171607e+09
1.555395e+10 -3.739478e+10 1.016525e+09
-5.771282e+10 4.150046e+10 1.246315e+09
2.537555e+10 -3.109142e+10 2.043982e+09
-7.732131e+09 -1.834470e+09 7.325003e+08
-1.084669e+11 2.838186e+10 1.456917e+09
2.180787e+09 4.385471e+09 -4.072486e+08
7.797830e+09 1.284619e+09 5.243254e+08
-3.281891e+10 -7.856734e+10 -8.106644e+08
4.351062e+10 3.938457e+10 1.910807e+09
-1.225238e+09 7.687220e+09 -2.326886e+07
1.152077e+10 -3.654601e+10 -1.041033e+09
-8.129933e+09 2.874488e+10 -6.376055e+08
1.363148e+11 9.701645e+10 -1.881175e+09
2.873210e+10 3.617725e+10 -5.081293e+08
-7.526831e+10 -1.713832e+11 -1.537509e+07
8.292930e+10 -1.491525e+11 -4.866398e+09
1.122754e+11 1.856950e+11 -3.675736e+09
7.672137e+10 -4.879425e+10 2.773807e+09
1.006617e+11 -2.085922e+10 -5.799671e+08
8.380257e+10 4.272535e+10 4.278026e+09
-5.687827e+10 -4.416340e+10 2.427802e+09
6.530600e+10 -5.974301e+10 -4.202427e+09
2.823465e+11 6.241809e+10 -2.005976e+10
-4.459048e+09 1.022608e+11 -1.786312e+09
3.083258e+10 9.172429e+10 5.006575e+08
-2.320787e+10 6.987216e+10 8.969168e+07
-5.066854e+10 6.977689e+10 -4.122875e+08
4.249507e+10 7.270421e+10 8.699102e+08
5.187000e+10 4.842080e+10 2.536753e+09
1.956782e+10 7.634870e+10 2.888758e+08
8.483016e+10 3.765634e+10 2.050204e+07
-4.175620e+10 -7.071520e+10 -4.269001e+08
4.254605e+10 -6.840022e+10 4.984480e+09
-1.258377e+11 1.772528e+11 -6.041183e+09
-5.492101e+10 -1.865307e+10 -1.777583e+09
-2.418312e+11 7.516797e+10 -2.990584e+09
1.362685e+11 -7.641174e+10 2.733866e+09
-1.783217e+11 1.312815e+11 -2.536497e+09
-6.341992e+10 1.157296e+10 -3.961592e+09
6.647453e+10 -2.939935e+10 -2.907307e+09
8.753969e+10 -1.417800e+09 -3.899186e+08
-2.251656e+11 -1.326757e+11 -3.993727e+08