# vtk DataFile Version 2.0
Electric current density generated by TTH
ASCII
DATASET UNSTRUCTURED_GRID
POINTS 7353 double
3.822513e-05 -9.362456e-21 -1.622195e-22
3.804233e-05 3.733795e-06 -1.622195e-22
1.814505e-05 3.364398e-05 -1.622195e-22
3.792995e-05 -1.296910e-06 5.358213e-07
2.702470e-06 3.702768e-05 -4.979900e-07
3.434102e-05 -1.467118e-05 -6.250038e-07
3.416277e-05 -1.564243e-05 -6.622226e-07
3.492408e-05 -1.398340e-05 -6.598809e-07
1.831111e-05 -3.279225e-05 6.622964e-07
3.793857e-05 1.013584e-06 -5.358213e-07
8.432500e-07 3.710632e-05 -4.887959e-07
3.315594e-05 1.658775e-05 -4.467230e-07
3.397223e-05 1.595351e-05 -6.615793e-07
1.777825e-05 3.383924e-05 -1.622195e-22
-3.719253e-05 -5.717720e-06 6.589496e-07
3.557062e-05 -1.214542e-05 6.618711e-07
-3.359388e-05 1.554238e-05 3.723092e-07
-3.346173e-05 1.589906e-05 -4.152323e-07
-3.318496e-05 1.681259e-05 -5.546658e-07
-3.775434e-05 6.109255e-07 6.325015e-07
2.193026e-05 -3.071258e-05 -6.385705e-07
2.314553e-05 -2.978263e-05 -6.436398e-07
3.320614e-05 1.794180e-05 -6.372478e-07
2.667309e-05 -2.652189e-05 -6.602776e-07
1.740936e-05 3.403049e-05 -1.622195e-22
5.717323e-06 3.727705e-05 -6.450718e-07
-3.746755e-05 4.295249e-06 6.450714e-07
3.394028e-05 -1.644228e-05 6.449937e-07
3.319375e-05 -1.790910e-05 6.441511e-07
2.091833e-05 3.107077e-05 -6.536795e-07
2.877207e-05 2.377109e-05 6.167989e-07
2.981648e-05 2.246294e-05 6.204312e-07
3.034488e-05 2.173796e-05 6.191411e-07
-3.466766e-05 1.429506e-05 -6.592563e-07
-3.497374e-05 1.342226e-05 -6.544250e-07
1.703840e-05 3.421773e-05 -1.622195e-22
1.940307e-05 3.152748e-05 -3.791181e-07
2.991921e-05 2.262884e-05 -6.604343e-07
2.894233e-05 2.385648e-05 -6.599725e-07
3.090819e-05 2.020111e-05 -1.757914e-07
-3.755513e-05 -1.977866e-06 6.608239e-07
3.073278e-05 -2.145256e-05 6.570557e-07
3.119641e-05 -2.063264e-05 6.425328e-07
2.077149e-05 -3.108423e-05 -6.381662e-07
3.627497e-05 1.004171e-05 6.578918e-07
3.727101e-05 -4.896710e-06 6.616987e-07
1.666544e-05 3.440092e-05 -1.622195e-22
2.114417e-05 3.090532e-05 6.519570e-07
2.055001e-05 3.156781e-05 6.540097e-07
1.120942e-05 -3.586866e-05 6.621036e-07
3.683918e-05 2.177707e-06 -6.284809e-08
1.277351e-05 -3.532824e-05 6.623009e-07
2.964691e-05 -2.228251e-05 -4.607708e-07
-3.136890e-05 1.954505e-05 2.736095e-07
2.904073e-05 -2.277264e-05 -7.448291e-08
1.430175e-05 -3.478191e-05 6.608048e-07
-3.509616e-05 -1.319337e-05 -6.587347e-07
1.629050e-05 3.458005e-05 -1.622195e-22
-3.541334e-05 -1.222067e-05 -6.546926e-07
-3.626874e-05 9.894466e-06 6.615685e-07
1.126692e-05 3.586624e-05 -6.615633e-07
3.537884e-05 1.080647e-05 -3.366762e-07
3.151089e-05 1.975828e-05 -5.495079e-07
2.326380e-05 -2.924633e-05 6.337669e-07
2.257535e-05 -2.975225e-05 6.263689e-07
3.387377e-05 1.641549e-05 6.575925e-07
2.610487e-05 2.608780e-05 -8.359277e-08
2.687099e-05 2.532777e-05 -1.827801e-07
1.591364e-05 3.475509e-05 -1.622195e-22
2.413455e-05 -2.895427e-05 6.492198e-07
3.447944e-05 1.517313e-05 -6.535225e-07
-3.405680e-05 -1.606709e-05 -6.556420e-07
3.168805e-05 2.034256e-05 6.557644e-07
3.202683e-05 1.960329e-05 6.621887e-07
1.912372e-05 3.244099e-05 6.554168e-07
1.360484e-05 3.511813e-05 6.549459e-07
1.461613e-05 3.446418e-05 6.499451e-07
1.206544e-05 3.567632e-05 6.549459e-07
3.623561e-05 -1.030185e-05 -6.533210e-07
1.553490e-05 3.492602e-05 -1.622195e-22
3.719766e-05 5.912257e-06 6.544464e-07
2.382588e-05 2.917310e-05 6.541929e-07
3.617178e-05 -7.304194e-06 -4.279458e-08
3.647600e-05 -5.582132e-06 -1.442524e-08
-3.575752e-05 1.184858e-05 -6.536677e-07
-3.572161e-05 1.077338e-05 -6.125092e-07
-3.626630e-05 1.001982e-05 -6.593851e-07
-3.612495e-05 -1.067644e-05 -6.536477e-07
-3.608584e-05 -9.490965e-06 -6.134259e-07
1.770552e-05 3.326046e-05 6.519539e-07
1.515433e-05 3.509283e-05 -1.622195e-22
1.948498e-05 -3.227570e-05 6.476786e-07
1.107684e-05 -3.519988e-05 -3.814452e-08
2.227050e-05 2.944855e-05 -1.652115e-07
2.464981e-05 2.748127e-05 -1.450281e-07
-3.257398e-05 1.896431e-05 -6.495310e-07
3.289636e-06 3.756612e-05 6.457768e-07
-3.725313e-05 3.766207e-06 -6.513887e-07
5.180410e-06 3.708295e-05 6.513933e-07
-3.633602e-05 -6.448239e-06 6.538092e-08
-3.602337e-05 -8.068896e-06 1.423854e-07
1.477196e-05 3.525549e-05 -1.622195e-22
-3.690408e-05 -6.201207e-07 1.075048e-07
3.650583e-05 9.534016e-06 -6.407926e-07
3.760594e-05 2.661616e-06 6.479462e-07
3.735596e-05 3.522794e-06 6.610339e-07
-3.771134e-05 -1.707052e-07 -6.453532e-07
2.958950e-05 2.337215e-05 6.464911e-07
3.554736e-05 -1.176093e-05 -6.512754e-07
-3.730266e-05 5.513902e-06 -6.462087e-07
6.928845e-06 3.706605e-05 6.461798e-07
3.617670e-05 7.280373e-06 -4.449606e-08
3.799950e-05 4.147107e-06 -1.622195e-22
1.438785e-05 3.541398e-05 -1.622195e-22
3.575069e-05 1.164361e-05 6.613220e-07
2.527206e-05 2.761767e-05 -6.499500e-07
1.121112e-05 3.549846e-05 5.707077e-07
2.856444e-05 2.463189e-05 6.438417e-07
-3.678603e-05 8.336090e-06 -6.436983e-07
9.729339e-06 3.644240e-05 6.436777e-07
-3.129120e-05 2.106222e-05 -6.435247e-07
2.918982e-05 -2.387721e-05 -6.453782e-07
4.100550e-07 3.772011e-05 6.428120e-07
-3.209177e-05 1.965725e-05 -6.585157e-07
1.400204e-05 3.556829e-05 -1.622195e-22
-3.197146e-05 2.007934e-05 6.341579e-07
1.826029e-05 3.258372e-05 6.277081e-07
3.334491e-05 -1.698073e-05 -6.466469e-07
3.344916e-05 -1.617099e-05 -5.203193e-07
3.399564e-05 -1.436427e-05 8.336390e-08
1.936124e-05 -3.141775e-05 -7.142793e-08
-3.697566e-05 -7.537899e-06 -6.392191e-07
3.713529e-05 -6.733106e-06 -6.379596e-07
3.461152e-05 -1.279414e-05 2.727995e-09
3.694041e-05 7.511530e-06 6.487035e-07
1.361457e-05 3.571839e-05 -1.622195e-22
-3.708146e-05 6.349793e-06 -6.597336e-07
7.755403e-06 3.681346e-05 6.597070e-07
-3.730771e-05 1.839686e-06 6.282146e-07
2.634683e-05 2.693752e-05 -6.518553e-07
1.224312e-05 3.568769e-05 -6.410275e-07
-3.490699e-05 1.417594e-05 6.526267e-07
-3.397339e-05 -1.448739e-05 2.061214e-07
3.322592e-05 -1.792020e-05 -6.351806e-07
-3.498372e-05 -1.421304e-05 -6.320558e-07
3.089744e-05 -2.178930e-05 -6.153603e-07
1.322549e-05 3.586428e-05 -1.622195e-22
3.120973e-05 -2.080649e-05 -6.601561e-07
3.182192e-05 -2.023842e-05 -6.451899e-07
-3.206345e-05 1.826633e-05 3.713184e-08
-1.135636e-05 3.602257e-05 -6.289860e-07
-5.319638e-06 3.739229e-05 6.294664e-07
-4.294981e-06 3.718929e-05 6.501513e-07
-3.620006e-05 -9.771152e-06 6.588916e-07
-3.586228e-05 1.094619e-05 6.588954e-07
-1.662662e-05 3.391835e-05 6.276338e-07
-3.062587e-05 2.212562e-05 -6.249555e-07
1.283486e-05 3.600593e-05 -1.622195e-22
-2.871560e-06 3.766418e-05 6.279137e-07
3.740574e-05 5.072456e-06 6.358654e-07
3.268494e-05 1.715677e-05 -1.341003e-07
-3.256098e-05 -1.737674e-05 9.650331e-08
-3.221927e-05 -1.807071e-05 -2.278401e-07
-3.760786e-05 3.457830e-06 6.302168e-07
4.885851e-06 3.744912e-05 -6.302159e-07
3.612184e-05 -1.109453e-05 -6.231258e-07
-3.242304e-05 -1.912748e-05 6.572453e-07
1.361714e-05 -3.521991e-05 6.320671e-07
1.244270e-05 3.614332e-05 -1.622195e-22
2.392722e-05 -2.927824e-05 -6.137547e-07
3.287552e-05 1.865120e-05 -6.192551e-07
3.436038e-05 -1.573292e-05 6.217589e-07
-3.157008e-05 2.076255e-05 6.237090e-07
-3.418854e-05 1.610607e-05 6.212654e-07
-3.033928e-05 2.245165e-05 6.372761e-07
3.059726e-05 2.218396e-05 -6.209760e-07
2.867069e-05 2.462413e-05 -6.208024e-07
3.436650e-05 1.349350e-05 -1.619097e-07
3.012245e-05 -2.276806e-05 6.325696e-07
1.204908e-05 3.627644e-05 -1.622195e-22
3.557195e-05 -9.851513e-06 1.169793e-07
3.550319e-05 1.010871e-05 -1.342929e-07
-3.448492e-05 -1.319156e-05 1.670133e-07
1.654368e-05 -3.303879e-05 2.496698e-07
2.944523e-05 2.224243e-05 -4.244919e-08
2.841486e-05 2.354398e-05 -3.698207e-08
3.548438e-05 1.264894e-05 6.533434e-07
-3.686448e-05 7.567597e-06 -6.585603e-07
8.964566e-06 3.655026e-05 6.585219e-07
1.600197e-05 3.326550e-05 -1.338871e-07
1.165403e-05 3.640527e-05 -1.622195e-22
1.681284e-05 3.287774e-05 -1.861046e-07
3.661924e-05 4.563915e-06 -5.206965e-08
3.500187e-05 1.396582e-05 -6.509035e-07
1.053979e-05 -3.629292e-05 6.212560e-07
1.531075e-05 -3.360025e-05 -1.755431e-07
3.283453e-05 -1.719666e-05 4.371124e-07
3.690827e-05 8.612340e-07 1.525722e-07
3.380086e-05 1.482114e-05 9.613184e-08
-3.443241e-06 3.722302e-05 6.371351e-07
-3.729778e-05 1.139495e-09 6.069697e-07
1.125760e-05 3.652981e-05 -1.622195e-22
-3.323223e-05 -1.785725e-05 6.418541e-07
3.559862e-05 1.267401e-05 -6.230489e-07
-3.659743e-05 -4.847848e-06 1.474337e-07
3.166646e-05 -1.894826e-05 -5.249130e-08
2.782565e-05 -2.555962e-05 6.246120e-07
1.698040e-05 -3.370265e-05 6.385558e-07
3.204930e-05 -1.830462e-05 1.008464e-07
2.562074e-05 -2.657489e-05 -1.332510e-07
3.761555e-05 -3.485594e-06 -6.268239e-07
2.295994e-05 -2.903574e-05 -3.746526e-07
1.085984e-05 3.665002e-05 -1.622195e-22
1.291681e-05 3.549548e-05 -6.281938e-07
2.188230e-05 -2.993942e-05 -4.573224e-07
-3.338581e-05 1.764561e-05 -6.316033e-07
6.585496e-06 -3.632118e-05 -1.299039e-07
8.938804e-06 -3.581472e-05 -1.299039e-07
-3.095451e-05 -2.011007e-05 -1.299041e-07
4.204183e-06 -3.667317e-05 -1.299041e-07
1.804991e-06 -3.686921e-05 -1.299041e-07
-7.766279e-06 -3.608714e-05 -1.299041e-07
-1.891807e-05 -3.169705e-05 -1.299041e-07
3.795217e-05 4.559930e-06 -1.622195e-22
1.046080e-05 3.676591e-05 -1.622195e-22
-2.807566e-05 -2.396569e-05 -1.299041e-07
-2.957798e-05 -2.208484e-05 -1.299041e-07
-1.463428e-05 -3.388856e-05 -1.299041e-07
-1.681193e-05 -3.286268e-05 -1.299041e-07
-1.239441e-05 -3.477032e-05 -1.299041e-07
-2.471974e-05 -2.741407e-05 -1.299041e-07
-6.018769e-07 -3.690846e-05 -1.299041e-07
-2.094377e-05 -3.039663e-05 -1.299041e-07
-5.397709e-06 -3.651659e-05 -1.299041e-07
-1.010182e-05 -3.550422e-05 -1.299041e-07
1.006053e-05 3.687745e-05 -1.622195e-22
-3.006185e-06 -3.679075e-05 -1.299041e-07
-2.645395e-05 -2.574462e-05 -1.299041e-07
-2.288041e-05 -2.896694e-05 -1.299041e-07
3.680612e-05 -8.522982e-06 6.256749e-07
-3.665761e-05 -9.092175e-06 -6.296129e-07
2.920531e-05 -2.394516e-05 6.301608e-07
2.201723e-05 3.071614e-05 6.213734e-07
3.730677e-05 -7.540161e-07 6.139540e-07
[...]
POINT_DATA 7353
VECTORS 10.000GHz_fone_imag double
-9.668968e-06 -5.132632e-05 2.094348e-02
-9.043796e-05 5.959180e-05 2.077035e-02
-1.852583e-04 -2.536498e-04 2.059537e-02
-1.727339e-02 7.259613e-04 1.222273e-02
1.268137e-03 1.726831e-02 -1.570753e-02
1.953271e-02 -8.474211e-03 -8.078035e-03
2.016843e-02 -9.296270e-03 -4.036242e-04
2.042303e-02 -8.381338e-03 1.692186e-03
-1.071528e-02 1.934493e-02 -3.967046e-04
1.783919e-02 6.818464e-04 1.183076e-02
3.580352e-04 1.714516e-02 -1.595731e-02
1.384160e-02 7.106430e-03 -1.763648e-02
2.007530e-02 9.465724e-03 -1.807432e-03
-8.675679e-06 -3.301688e-04 2.082447e-02
2.184207e-02 3.340803e-03 1.291208e-03
-2.108958e-02 7.092016e-03 7.409588e-04
1.183523e-02 -5.506375e-03 -1.966319e-02
-1.338390e-02 6.296421e-03 -1.781342e-02
-1.720237e-02 8.587448e-03 -1.283376e-02
2.092730e-02 -1.129207e-04 6.059775e-03
1.251998e-02 -1.732201e-02 5.306538e-03
1.316503e-02 -1.691830e-02 5.006920e-03
1.847008e-02 1.010865e-02 5.865457e-03
1.597858e-02 -1.557645e-02 1.200729e-03
-7.578522e-05 5.535271e-05 2.072095e-02
3.374417e-03 2.101548e-02 4.904108e-03
2.114876e-02 -2.547144e-03 4.914769e-03
-1.930630e-02 9.395136e-03 4.995293e-03
-1.891687e-02 1.017553e-02 4.726725e-03
1.212102e-02 1.853925e-02 -4.512387e-03
-1.612946e-02 -1.348039e-02 -8.972802e-03
-1.717414e-02 -1.240516e-02 -8.685167e-03
-1.706899e-02 -1.242373e-02 -8.303995e-03
-2.042161e-02 8.169079e-03 -2.767191e-03
-2.051947e-02 7.978244e-03 -4.325872e-03
-1.295898e-04 -1.238875e-04 2.088748e-02
7.129773e-03 1.139206e-02 -1.932481e-02
1.776926e-02 1.330686e-02 -2.149616e-03
1.707583e-02 1.408305e-02 -2.303467e-03
5.228297e-03 3.286244e-03 -2.287290e-02
2.225220e-02 1.109820e-03 1.191276e-03
-1.805200e-02 1.264041e-02 -3.630201e-03
-1.815065e-02 1.169299e-02 -6.406344e-03
1.217589e-02 -1.801878e-02 -6.845866e-03
-2.111264e-02 -5.802896e-03 2.075080e-03
-2.217793e-02 2.882038e-03 5.503649e-04
-9.249891e-05 2.509579e-05 2.079073e-02
-1.234128e-02 -1.801725e-02 -4.405694e-03
-1.176877e-02 -1.822114e-02 3.220316e-03
-6.769243e-03 2.115050e-02 1.182570e-04
2.260494e-03 3.477071e-04 -2.369443e-02
-7.450898e-03 2.110302e-02 -5.873677e-04
1.302699e-02 -9.880668e-03 -1.673482e-02
8.484287e-03 -4.686388e-03 -2.159825e-02
2.107966e-03 -1.520909e-03 -2.383158e-02
-8.475913e-03 2.058937e-02 5.801205e-04
-2.056606e-02 -7.886215e-03 -3.102826e-03
6.629176e-05 -1.371497e-04 2.060955e-02
-2.091032e-02 -7.233307e-03 -4.078439e-03
2.133649e-02 -5.922257e-03 4.241822e-04
6.728676e-03 2.098326e-02 2.366324e-04
1.107747e-02 3.462638e-03 -2.035898e-02
1.625166e-02 1.005781e-02 -1.342574e-02
-1.337835e-02 1.704696e-02 -7.437794e-03
-1.274707e-02 1.701020e-02 -8.166612e-03
-1.972704e-02 -9.401537e-03 1.956174e-03
1.961628e-03 1.862926e-03 -2.361454e-02
4.400748e-03 4.153164e-03 -2.296030e-02
-1.369390e-04 7.964447e-05 2.060834e-02
-1.382019e-02 1.669590e-02 4.196613e-03
1.999067e-02 9.033048e-03 3.093298e-03
-1.978529e-02 -9.071392e-03 2.900478e-03
-1.839338e-02 -1.185790e-02 2.333117e-03
-1.902859e-02 -1.149916e-02 -1.091661e-03
-1.069601e-02 -1.898205e-02 2.939326e-03
-8.025403e-03 -2.027313e-02 3.081255e-03
-8.586224e-03 -2.017269e-02 -4.824505e-03
-6.883236e-03 -2.061647e-02 3.021129e-03
2.093193e-02 -5.739326e-03 3.262783e-03
-6.233693e-05 -2.796618e-04 2.071583e-02
-2.166199e-02 -3.524923e-03 2.820817e-03
-1.374010e-02 -1.692746e-02 3.227076e-03
1.873356e-03 -5.658925e-04 -2.382939e-02
8.201066e-04 -1.003519e-04 -2.378155e-02
-2.079160e-02 6.524910e-03 2.959776e-03
-2.008721e-02 6.274634e-03 -8.657876e-03
-2.127797e-02 5.934189e-03 1.489449e-03
-2.105419e-02 -5.876210e-03 2.876347e-03
-2.039368e-02 -5.373465e-03 -8.832864e-03
-1.024146e-02 -1.914579e-02 3.048797e-03
1.262414e-04 -7.266172e-05 2.068914e-02
-1.092600e-02 1.849710e-02 4.178447e-03
4.113354e-04 -1.536036e-03 -2.395960e-02
3.896144e-03 5.034508e-03 -2.305666e-02
3.602344e-03 3.920239e-03 -2.329753e-02
-1.880472e-02 1.085081e-02 4.102548e-03
-2.014838e-03 -2.141700e-02 4.369257e-03
-2.217709e-02 2.155124e-03 -4.720245e-03
-3.002909e-03 -2.198829e-02 -4.903389e-03
2.170159e-03 8.259985e-05 -2.380620e-02
4.858380e-03 1.006642e-03 -2.325006e-02
4.541071e-06 -5.970660e-05 2.066588e-02
3.542541e-03 -5.411075e-05 -2.355854e-02
2.050902e-02 5.177463e-03 5.460692e-03
-2.158078e-02 -1.417493e-03 3.815833e-03
-2.213356e-02 -2.201750e-03 -2.241155e-03
-2.135258e-02 -6.788471e-05 4.538179e-03
-1.687201e-02 -1.337718e-02 4.312758e-03
2.060271e-02 -7.047350e-03 -4.920292e-03
-2.126444e-02 3.011749e-03 3.957751e-03
-3.824974e-03 -2.112242e-02 3.974441e-03
2.310725e-03 3.366950e-04 -2.387338e-02
1.201305e-05 -1.311175e-05 2.064030e-02
-6.930867e-05 6.231204e-06 2.072108e-02
-2.098185e-02 -7.242726e-03 8.316073e-04
1.498570e-02 1.635900e-02 -5.134919e-03
-5.933579e-03 -1.857353e-02 -1.256290e-02
-1.611905e-02 -1.394986e-02 4.684219e-03
-2.068561e-02 4.772697e-03 4.396374e-03
-5.537189e-03 -2.070410e-02 5.139166e-03
-1.803390e-02 1.190857e-02 4.598682e-03
1.668796e-02 -1.328785e-02 4.502027e-03
-2.118226e-04 -2.134300e-02 5.332933e-03
-1.883162e-02 1.167037e-02 1.814909e-03
-1.131527e-04 -4.369555e-04 2.082570e-02
1.771624e-02 -1.119324e-02 6.297934e-03
-1.067798e-02 -1.865640e-02 -7.709864e-03
1.942704e-02 -9.961514e-03 -5.587414e-03
1.639645e-02 -7.867152e-03 -1.465971e-02
-2.454815e-03 9.559482e-04 -2.387943e-02
1.456105e-03 -2.263893e-03 -2.345936e-02
-2.084360e-02 -4.124264e-03 5.126114e-03
2.083291e-02 -3.703114e-03 5.406031e-03
-1.258034e-04 6.492043e-06 -2.400754e-02
-2.109304e-02 -4.272723e-03 4.156777e-03
2.104096e-06 8.018050e-06 2.070670e-02
-2.164977e-02 3.716232e-03 1.418292e-03
-4.527213e-03 -2.147638e-02 1.402931e-03
2.148818e-02 -7.620940e-04 -7.644309e-03
1.515486e-02 1.552791e-02 3.519814e-03
7.003831e-03 2.007533e-02 5.409358e-03
2.017197e-02 -8.101571e-03 3.009029e-03
6.731099e-03 3.073203e-03 -2.255495e-02
1.865259e-02 -9.954839e-03 5.845107e-03
-1.941802e-02 -8.087058e-03 6.066411e-03
1.665441e-02 -1.194060e-02 7.484735e-03
1.301556e-04 1.148098e-04 2.075395e-02
1.858299e-02 -1.206386e-02 -2.503997e-03
1.802330e-02 -1.172355e-02 4.725279e-03
1.372096e-03 -7.171319e-04 -2.361683e-02
-6.349948e-03 1.972274e-02 6.648175e-03
2.942577e-03 -2.046378e-02 6.496015e-03
2.534917e-03 -2.160460e-02 -4.823425e-03
2.155019e-02 5.702378e-03 -2.281528e-03
2.127371e-02 -6.503530e-03 -2.722413e-03
9.286511e-03 -1.851926e-02 6.723486e-03
-1.681205e-02 1.205674e-02 6.660548e-03
-1.219219e-04 -3.042467e-05 2.087847e-02
1.659633e-03 -2.077703e-02 6.504122e-03
-2.083814e-02 -2.788124e-03 5.703118e-03
4.299901e-03 2.245893e-03 -2.341081e-02
2.913003e-03 1.809330e-03 -2.358611e-02
-7.478382e-03 -4.331463e-03 -2.243600e-02
2.079748e-02 -1.890061e-03 6.323849e-03
2.514740e-03 2.072356e-02 6.348085e-03
1.975734e-02 -5.930602e-03 6.851895e-03
1.886491e-02 1.134346e-02 1.844475e-03
-7.793466e-03 1.970357e-02 5.724611e-03
4.858896e-05 1.991322e-04 2.067392e-02
1.270125e-02 -1.541991e-02 7.923616e-03
1.785888e-02 1.007052e-02 7.516243e-03
-1.854133e-02 8.318890e-03 7.216171e-03
1.732087e-02 -1.112070e-02 6.903734e-03
1.834213e-02 -8.658624e-03 7.437525e-03
1.702412e-02 -1.250089e-02 5.731931e-03
1.629978e-02 1.201014e-02 7.406464e-03
1.531279e-02 1.332064e-02 7.176321e-03
5.607516e-03 2.028224e-03 -2.307883e-02
-1.693670e-02 1.277882e-02 6.038711e-03
-6.186861e-05 -1.280094e-04 2.070720e-02
-3.624980e-03 1.164643e-03 -2.371542e-02
4.504450e-03 1.148900e-03 -2.332689e-02
5.689066e-03 2.002525e-03 -2.304671e-02
-4.153242e-03 7.984306e-03 -2.187766e-02
1.201233e-03 1.103116e-03 -2.385688e-02
6.682473e-04 6.905607e-04 -2.388838e-02
-2.054103e-02 -7.192711e-03 3.605350e-03
-2.141478e-02 4.273551e-03 1.611628e-03
-5.140083e-03 -2.126669e-02 1.699657e-03
2.024857e-03 4.138411e-03 -2.339963e-02
-1.691146e-05 3.097845e-05 2.064573e-02
2.796715e-03 5.487913e-03 -2.308891e-02
1.473876e-03 2.813239e-04 -2.365511e-02
2.000275e-02 8.083705e-03 3.683830e-03
-5.733419e-03 1.963095e-02 7.201396e-03
2.641739e-03 -5.932350e-03 -2.296442e-02
-1.346581e-02 7.257605e-03 -1.758415e-02
-5.264042e-03 -5.469262e-05 -2.327132e-02
-3.207562e-03 -1.481810e-03 -2.361508e-02
2.048068e-03 -2.157874e-02 -6.533662e-03
2.097555e-02 -1.246258e-04 -9.293617e-03
-2.001887e-05 -1.227988e-04 2.071598e-02
1.890490e-02 1.012939e-02 4.786189e-03
1.911732e-02 6.903451e-03 7.252238e-03
4.960658e-03 6.698232e-04 -2.312593e-02
1.741601e-03 -7.381394e-04 -2.356237e-02
-1.527983e-02 1.391888e-02 7.009538e-03
-9.614263e-03 1.874289e-02 5.648258e-03
-3.412912e-03 1.615240e-03 -2.346025e-02
3.499714e-03 -3.355035e-03 -2.317637e-02
2.049624e-02 -1.923071e-03 6.824967e-03
8.222941e-03 -1.036547e-02 -1.961333e-02
3.680265e-04 -4.913252e-06 2.080808e-02
7.001862e-03 1.956980e-02 6.311301e-03
9.268527e-03 -1.292823e-02 -1.720592e-02
-1.831827e-02 9.760026e-03 6.489250e-03
6.781234e-04 -3.974363e-03 -2.332218e-02
8.146346e-04 -3.758671e-03 -2.347555e-02
-3.323905e-03 -2.117932e-03 -2.354698e-02
3.801680e-04 -4.117542e-03 -2.330157e-02
1.737025e-04 -4.046572e-03 -2.333380e-02
-1.016731e-03 -4.601778e-03 -2.301930e-02
-2.099202e-03 -3.428897e-03 -2.330340e-02
4.814058e-04 -6.731238e-07 2.089357e-02
1.437160e-04 6.411114e-04 2.065613e-02
-3.640919e-03 -3.016687e-03 -2.300932e-02
-3.253617e-03 -2.379100e-03 -2.332262e-02
-1.587095e-03 -3.659086e-03 -2.356465e-02
-2.147819e-03 -4.102764e-03 -2.305310e-02
-1.468836e-03 -3.865592e-03 -2.329800e-02
-3.139053e-03 -3.410885e-03 -2.306171e-02
-1.559181e-04 -3.968233e-03 -2.351968e-02
-2.319868e-03 -3.297915e-03 -2.332336e-02
-6.739671e-04 -3.913806e-03 -2.351273e-02
-1.149260e-03 -3.864303e-03 -2.331440e-02
-3.828442e-04 1.517074e-04 2.075406e-02
-3.986496e-04 -4.632745e-03 -2.305495e-02
-2.829270e-03 -2.742187e-03 -2.359978e-02
-2.445921e-03 -3.086026e-03 -2.360483e-02
-2.014722e-02 4.490274e-03 6.892633e-03
-2.024303e-02 -4.890309e-03 6.333725e-03
-1.616760e-02 1.323010e-02 6.477983e-03
-1.225122e-02 -1.689837e-02 6.558888e-03
-2.085786e-02 6.099876e-04 -9.366588e-03
5.121972e-05 -2.040743e-02 7.280207e-03
-1.711913e-02 3.489549e-03 -1.537176e-02
-4.067897e-05 -1.733184e-04 2.066009e-02
1.623018e-02 -1.232440e-02 7.247647e-03
-6.482702e-04 1.200051e-03 -2.373285e-02
3.835738e-03 -7.068400e-03 -2.255547e-02
2.798804e-03 1.306053e-03 -2.370434e-02
2.015420e-02 3.205065e-03 7.365405e-03
6.216358e-03 3.554093e-03 -2.287057e-02
3.507444e-03 4.284327e-03 -2.307749e-02
-1.224483e-02 1.840249e-02 -3.170452e-04
1.590652e-02 -1.526328e-02 -2.722893e-04
1.156831e-02 -1.889385e-02 6.654203e-04
8.880545e-05 1.789588e-04 2.067572e-02
-1.536614e-02 1.594206e-02 5.779142e-04
-1.695519e-02 1.418776e-02 1.260072e-04
1.332040e-02 -1.774058e-02 5.247742e-04
8.292312e-03 -2.064038e-02 5.564687e-04
-4.868371e-03 2.156638e-02 3.194080e-04
1.454163e-02 -1.678978e-02 5.269653e-04
-1.076146e-02 1.938962e-02 6.212180e-04
-8.988083e-03 2.021004e-02 3.274443e-04
5.728838e-03 -2.139574e-02 5.388350e-04
8.346997e-03 2.482564e-03 -2.178251e-02
-3.253255e-05 -2.792350e-04 2.071419e-02
8.320330e-03 -2.743279e-03 -2.184794e-02
1.670159e-02 1.032061e-02 9.000650e-03
2.006137e-02 -1.528562e-03 8.043962e-03
-1.524226e-02 1.348825e-02 7.815340e-03
7.994819e-03 -1.965214e-02 5.711736e-03
-1.252328e-03 1.205289e-05 -2.385354e-02
-3.182702e-03 2.126603e-02 4.850494e-03
-3.667524e-03 2.186612e-02 1.177454e-03
5.200000e-03 2.090853e-02 4.802087e-03
5.039253e-03 2.169442e-02 8.382943e-04
1.383533e-04 -1.340106e-05 2.073591e-02
-4.024547e-04 2.147130e-02 4.813193e-03
-7.997759e-04 2.214801e-02 1.173336e-03
6.516635e-03 2.049159e-02 4.855125e-03
6.359219e-03 2.124191e-02 1.187284e-03
1.041968e-02 1.883881e-02 4.801314e-03
1.044567e-02 1.961907e-02 8.319810e-04
1.759046e-02 1.232174e-02 4.803718e-03
1.792895e-02 1.302194e-02 1.158577e-03
2.455568e-03 2.136475e-02 4.798360e-03
2.176379e-03 2.211890e-02 8.271744e-04
1.815179e-04 3.184421e-04 2.051517e-02
1.355588e-02 1.683251e-02 4.445242e-03
1.454915e-02 1.670783e-02 1.071806e-03
1.682465e-02 1.345210e-02 4.802077e-03
1.718567e-02 1.420206e-02 8.676050e-04
6.646161e-04 2.170996e-02 4.572783e-03
1.514289e-03 2.208704e-02 1.073130e-03
7.884730e-03 1.990297e-02 4.797770e-03
7.855685e-03 2.091326e-02 1.250947e-03
1.491227e-02 1.548759e-02 4.791429e-03
1.514921e-02 1.625555e-02 8.313895e-04
9.729828e-05 6.717934e-04 2.073896e-02
1.562337e-02 1.493729e-02 4.432633e-03
1.659175e-02 1.465216e-02 1.061482e-03
1.271541e-02 1.731432e-02 4.805779e-03
1.281772e-02 1.807624e-02 1.150847e-03
3.486634e-03 2.144562e-02 4.576031e-03
4.374985e-03 2.172012e-02 1.076755e-03
8.709319e-03 1.985704e-02 4.301328e-03
9.787926e-03 1.990682e-02 1.027166e-03
1.156750e-02 1.812492e-02 4.813515e-03
1.161822e-02 1.887454e-02 1.163837e-03
-1.792333e-04 3.221523e-05 2.059618e-02
1.822238e-02 1.149637e-02 4.645095e-03
-1.662498e-03 2.140937e-02 4.826996e-03
-2.161145e-03 2.225522e-02 1.235396e-03
-4.572333e-03 2.108101e-02 4.842343e-03
-5.100164e-03 2.175081e-02 9.508796e-04
-8.361228e-04 2.200939e-02 3.510245e-04
1.951370e-02 4.873570e-03 7.707023e-03
-5.557126e-04 5.175879e-04 -2.394294e-02
-3.654657e-03 2.163052e-02 -6.110659e-05
7.180447e-03 -2.099405e-02 -3.574789e-04
1.069479e-04 1.156668e-04 2.065605e-02
-2.448890e-03 2.184981e-02 -4.200267e-05
1.084757e-03 -1.262730e-03 -2.405063e-02
-2.149645e-03 -2.077135e-02 6.155267e-03
-2.011629e-02 8.818999e-04 8.068076e-03
-2.079524e-02 1.436521e-03 6.777425e-03
-1.026940e-02 -3.429454e-03 -2.108401e-02
1.762694e-03 2.231659e-02 -1.680313e-03
-6.867567e-03 1.908125e-03 -2.261198e-02
6.179225e-04 -3.400756e-03 -2.337384e-02
-2.827330e-03 -1.894888e-03 -2.348096e-02
3.361185e-05 1.041057e-04 2.072245e-02
-9.827917e-05 -1.295001e-04 2.052400e-02
8.909488e-05 -3.551069e-03 -2.343307e-02
-1.183788e-03 -3.230480e-03 -2.344028e-02
-1.452616e-03 -3.212826e-03 -2.347501e-02
-1.777420e-03 -2.937096e-03 -2.337675e-02
-2.764596e-03 -2.045529e-03 -2.338600e-02
-2.808631e-03 -2.184501e-03 -2.341444e-02
-9.797247e-04 -3.577936e-03 -2.338928e-02
-1.754817e-03 -3.130545e-03 -2.336468e-02
-2.639964e-05 -3.402681e-03 -2.347028e-02
-4.689773e-04 -3.363277e-03 -2.346823e-02
2.010375e-04 2.590821e-04 2.078392e-02
-2.512357e-03 -2.563150e-03 -2.338399e-02
-2.441117e-03 -2.405064e-03 -2.342920e-02
-2.105715e-03 -2.706677e-03 -2.344097e-02
-1.970097e-03 -2.828130e-03 -2.339683e-02
-9.535601e-04 -3.294709e-03 -2.336489e-02
-4.936805e-04 -3.674332e-03 -2.338370e-02
3.579066e-04 -3.419450e-03 -2.343649e-02
7.839853e-04 -3.029998e-03 -2.378171e-02
7.526177e-03 1.194508e-03 -2.244934e-02
2.245349e-03 1.504562e-03 -2.358874e-02
1.866463e-04 4.317286e-04 2.074399e-02
1.911003e-02 4.119402e-03 -1.245487e-02
-1.002449e-03 1.628980e-04 -2.395253e-02
-1.814705e-02 1.191563e-03 -1.439060e-02
7.488734e-04 -7.503762e-04 -2.397659e-02
-2.084253e-02 -2.126088e-03 5.703226e-03
-2.078800e-02 -2.457149e-03 6.212310e-03
3.147156e-03 -2.170629e-03 -2.360340e-02
-1.428349e-02 1.561651e-02 5.394177e-03
-1.457626e-02 1.539200e-02 5.530056e-03
-1.453692e-02 6.962042e-03 -1.717363e-02
-2.270691e-04 6.419747e-04 2.081719e-02
1.463852e-02 -1.268839e-02 -1.265827e-02
2.018459e-02 -2.625056e-03 7.262138e-03
-1.039125e-02 -2.640865e-03 -2.132158e-02
-4.177422e-03 9.482933e-04 -2.358931e-02
7.939635e-03 1.850249e-02 8.042172e-03
-5.807939e-04 -1.122319e-02 -2.116343e-02
1.724405e-02 -8.416870e-03 9.473448e-03
-8.612271e-03 1.893248e-02 6.591995e-03
-1.421131e-02 4.409522e-03 -1.840354e-02
-1.185936e-02 1.643090e-02 7.905576e-03
-3.484815e-04 -2.251117e-04 2.080454e-02
1.640481e-02 -1.113304e-02 8.287805e-03
1.844419e-02 4.133568e-04 -1.406774e-02
6.756166e-03 -2.109215e-03 -2.250060e-02
1.843168e-02 1.210200e-02 -5.150261e-03
-1.591757e-02 1.179109e-02 8.978091e-03
2.215830e-02 2.167112e-03 -3.963568e-03
-6.122061e-03 -2.882977e-03 -2.257105e-02
2.082668e-02 1.152213e-03 6.368999e-03
-1.420644e-07 -8.464278e-03 -2.228314e-02
-1.840825e-02 -9.675169e-03 6.490901e-03
-3.269793e-05 -4.037913e-04 2.066273e-02
1.311589e-03 -1.325221e-03 -2.391304e-02
2.147804e-03 6.872438e-05 -2.371296e-02
-8.203844e-03 -1.852923e-02 7.583451e-03
9.381712e-04 2.045638e-02 7.232830e-03
-9.174621e-03 -4.080178e-03 -2.144214e-02
4.221095e-03 1.531153e-02 -1.715631e-02
1.548844e-02 -3.657933e-03 -1.714284e-02
-1.351519e-02 -1.543183e-02 6.771598e-03
4.250015e-03 -9.848013e-03 -2.082953e-02
-1.756268e-02 1.050130e-02 7.186032e-03
3.680492e-06 -1.491500e-04 2.065219e-02
1.146265e-02 4.778253e-03 -2.011324e-02
-6.793405e-03 7.520733e-03 -2.151304e-02
5.723391e-04 5.570865e-04 -2.393890e-02
-1.080569e-02 -1.281310e-03 -2.123970e-02
-8.842084e-03 -1.842582e-02 7.139963e-03
-1.133693e-02 1.709236e-02 7.253570e-03
-1.955355e-02 9.058962e-03 4.687712e-03
-1.918606e-02 9.311214e-03 5.350299e-03
-1.724792e-02 7.767902e-03 1.022472e-02
-2.354623e-04 4.824294e-04 -2.405077e-02
1.001054e-04 -1.846740e-04 2.081787e-02
5.717788e-04 -5.003856e-04 -2.405122e-02
2.489206e-04 -3.496924e-04 -2.400614e-02
-4.050067e-04 6.871299e-04 -2.398834e-02
1.205830e-04 -2.348229e-04 -2.409527e-02
3.458792e-04 -9.834118e-04 -2.401414e-02
-2.542992e-04 8.591987e-04 -2.402143e-02
1.560458e-05 9.727254e-05 -2.410205e-02
1.017180e-04 -4.614544e-04 -2.401493e-02
3.722837e-04 -5.609702e-04 -2.386779e-02
-7.667789e-05 7.231958e-04 -2.395629e-02
3.850651e-05 -1.022517e-04 2.058449e-02
1.490856e-04 -3.217637e-04 -2.375023e-02
-8.870208e-03 -9.422674e-03 -1.995889e-02
-5.035594e-04 -8.322564e-04 -2.395852e-02
5.315735e-05 7.015698e-06 -2.392499e-02
-7.629631e-03 5.085249e-03 -2.169947e-02
6.898597e-03 -3.501691e-04 -2.276267e-02
5.981324e-04 2.081559e-02 6.581375e-03
4.321125e-03 -1.228002e-02 -1.969674e-02
-2.757265e-03 -4.016021e-03 -2.326638e-02
-1.107470e-02 -6.550368e-03 -1.982684e-02
4.617886e-05 3.187727e-04 2.068515e-02
-1.871460e-02 -5.216480e-03 9.245606e-03
1.916109e-02 -6.812482e-03 7.256814e-03
-4.514785e-03 -3.492186e-04 -2.359158e-02
-1.435029e-03 -4.405686e-03 -2.331327e-02
1.651472e-02 -9.465456e-03 9.761159e-03
-1.964959e-02 2.990749e-04 9.149249e-03
-1.833111e-02 -1.019551e-02 6.273298e-03
-1.402176e-02 -1.507965e-02 6.696969e-03
1.020078e-02 -1.718306e-02 8.042259e-03
-1.722904e-02 -1.043967e-02 7.967736e-03
7.223739e-05 -2.692407e-04 2.082362e-02
1.088139e-04 -2.517880e-04 2.072082e-02
-1.472184e-02 -1.371612e-02 8.100684e-03
-1.643251e-02 -1.145107e-02 8.140258e-03
4.818868e-03 -1.907331e-02 8.403475e-03
-2.292455e-03 -1.992227e-02 8.099382e-03
-6.078778e-03 -1.904792e-02 8.147999e-03
-1.008761e-02 -1.688946e-02 8.283278e-03
-4.491920e-03 -2.105936e-02 4.195062e-03
3.332762e-04 -2.002533e-02 8.153319e-03
-7.780702e-03 -1.798819e-02 8.445226e-03
-1.188710e-02 -1.611435e-02 8.146131e-03
1.553645e-04 3.127689e-04 2.069430e-02
-1.482950e-02 -1.354210e-02 8.114697e-03
-1.292670e-02 -1.536184e-02 8.109409e-03
6.623332e-03 -1.917601e-02 7.551857e-03
-1.315271e-02 -1.457352e-02 8.318815e-03
1.623834e-03 -1.988918e-02 8.305126e-03
2.490228e-03 -2.138131e-02 4.127929e-03
4.220935e-03 -1.958192e-02 8.053078e-03
-1.635842e-02 -1.400844e-02 4.184677e-03
-1.607764e-03 -1.955901e-02 8.320031e-03
-1.391301e-02 -1.444066e-02 8.093296e-03
-1.256898e-05 3.557541e-04 2.064947e-02
-5.390533e-03 -1.889713e-02 8.298069e-03
5.911824e-03 -1.858648e-02 8.409375e-03
-1.574686e-02 -1.175122e-02 8.296388e-03
-9.700248e-03 -1.754537e-02 8.094689e-03
-7.308577e-03 -1.856398e-02 8.314501e-03
-3.602431e-03 -1.976052e-02 8.158864e-03
9.649218e-04 -1.961051e-02 8.303437e-03
-8.548969e-03 -1.817774e-02 8.066462e-03
-1.406914e-02 -1.367365e-02 8.453096e-03
-1.114878e-02 -1.618153e-02 8.297679e-03
-1.647612e-04 2.664743e-04 2.065820e-02
-7.191105e-03 -2.028402e-02 4.126742e-03
-3.131561e-03 -2.136896e-02 4.342449e-03
-1.564845e-02 -1.250724e-02 8.080474e-03
-8.947358e-03 -1.746708e-02 8.322693e-03
-3.232232e-04 -2.160395e-02 4.347418e-03
-1.079662e-02 -1.686095e-02 8.136538e-03
-4.831361e-03 -1.944350e-02 8.082441e-03
3.496037e-03 -1.932692e-02 8.303332e-03
5.395199e-03 -1.909657e-02 8.344029e-03
-1.001990e-03 -2.007674e-02 8.163524e-03
-1.077306e-05 -2.197038e-04 2.065173e-02
2.937056e-03 -1.978590e-02 8.154931e-03