# vtk DataFile Version 2.0
Electric current density generated by TTH
ASCII
DATASET UNSTRUCTURED_GRID
POINTS 2866 double
2.915779e-05 -7.141599e-21 -3.094233e-22
2.828848e-05 7.066732e-06 -3.094233e-22
-2.627026e-05 1.265109e-05 -3.094233e-22
-1.262017e-05 -2.581209e-05 -9.457138e-07
-7.406087e-06 -2.646715e-05 1.194711e-06
-1.997630e-06 -2.676428e-05 -6.938028e-07
-1.647896e-05 -2.094932e-05 2.386423e-07
2.240589e-05 -1.629321e-05 -1.248822e-06
2.240589e-05 1.629321e-05 1.248822e-06
-1.459431e-05 2.292556e-05 -1.039627e-06
1.704489e-05 -2.325138e-05 -8.492398e-07
-1.030238e-05 2.538745e-05 -1.161760e-06
1.542076e-05 2.424714e-05 9.427636e-07
-2.660461e-05 1.193195e-05 -3.094233e-22
-2.065895e-05 -1.816915e-05 1.204028e-06
-5.160331e-06 -2.703620e-05 1.207856e-06
1.515717e-05 -2.448946e-05 8.802997e-07
1.754984e-05 -2.042247e-05 8.126228e-07
-1.663362e-05 2.079949e-05 -6.059026e-08
5.712709e-06 2.824457e-05 -8.636136e-07
-1.475918e-05 -2.246616e-05 7.535614e-07
-1.092954e-05 -2.529123e-05 1.215951e-06
1.616583e-05 -2.123435e-05 3.736217e-07
4.892811e-06 -2.662146e-05 -9.549034e-07
-2.691928e-05 1.120398e-05 -3.094233e-22
5.426294e-06 2.710534e-05 -1.238068e-06
-9.554966e-06 -2.715442e-05 -8.946180e-07
1.615418e-05 -2.219236e-05 -1.182243e-06
2.815214e-05 -6.094654e-06 8.764614e-07
2.815214e-05 6.094654e-06 -8.764614e-07
-2.615598e-05 -5.755286e-06 -5.980592e-07
1.120713e-05 -2.523505e-05 -1.231269e-06
-2.446725e-05 -1.194560e-05 -1.072982e-06
-1.683269e-05 2.181489e-05 -1.216601e-06
-2.680016e-05 6.660755e-06 -1.232122e-06
-2.721403e-05 1.046772e-05 -3.094233e-22
-2.446197e-05 1.517262e-05 -8.957124e-07
1.529108e-05 -2.271143e-05 1.153503e-06
-2.601752e-05 5.708436e-06 1.149884e-07
1.055926e-05 -2.530107e-05 1.169238e-06
3.769739e-06 -2.855124e-05 -8.818915e-07
2.168071e-05 -1.638688e-05 1.039731e-06
2.168071e-05 1.638688e-05 -1.039731e-06
1.928759e-05 2.037016e-05 1.253367e-06
-1.968177e-05 2.100272e-05 8.976154e-07
2.727225e-05 -9.277111e-06 -8.736985e-07
-2.748865e-05 9.723724e-06 -3.094233e-22
2.724464e-05 9.352538e-06 8.755087e-07
-1.889538e-05 -1.981128e-05 -1.152650e-06
-2.713564e-05 9.646313e-06 -8.817203e-07
-2.269354e-05 1.560780e-05 1.213352e-06
-2.718861e-05 3.314262e-06 -1.158164e-06
-1.786138e-05 2.069881e-05 -1.135083e-06
-2.707748e-05 -1.014838e-05 -7.422131e-07
-1.511227e-05 2.207098e-05 5.327897e-07
2.510985e-05 -1.101528e-05 1.170715e-06
2.510985e-05 1.101528e-05 -1.170715e-06
-2.774293e-05 8.972530e-06 -3.094233e-22
-1.150932e-05 2.501513e-05 1.211334e-06
-1.439926e-05 -2.495620e-05 8.680426e-07
1.986111e-05 1.821884e-05 8.408376e-07
1.985291e-05 -1.815770e-05 -7.845232e-07
1.589142e-05 -2.403996e-05 -8.623906e-07
1.061634e-05 2.549460e-05 -1.232397e-06
1.853066e-05 -2.206425e-05 8.668365e-07
-2.323825e-05 -1.528239e-05 1.260692e-06
-4.377066e-06 2.719406e-05 1.213748e-06
1.008592e-05 2.705526e-05 7.976945e-07
-2.797669e-05 8.214698e-06 -3.094233e-22
-1.936102e-06 -2.661978e-05 3.813838e-07
-2.757032e-05 -8.304240e-06 -8.872286e-07
-3.965027e-06 -2.850725e-05 8.993546e-07
-4.611881e-06 2.845702e-05 8.508298e-07
1.884633e-05 1.886642e-05 2.985793e-07
1.879744e-05 -1.891435e-05 -2.962554e-07
1.514001e-05 -2.279533e-05 -1.147040e-06
1.675865e-06 2.660499e-05 -2.577135e-07
9.910371e-06 2.472959e-05 -1.611052e-07
1.460705e-05 2.259110e-05 7.817881e-07
-2.818976e-05 7.450789e-06 -3.094233e-22
-2.612009e-05 -6.847513e-06 8.948592e-07
1.104239e-05 -2.662997e-05 8.504842e-07
2.771894e-05 7.498621e-06 9.603148e-07
2.774736e-05 -7.736058e-06 -8.751052e-07
-5.058095e-08 2.762254e-05 -1.233712e-06
-1.906157e-06 2.753624e-05 -1.229026e-06
-2.828574e-05 5.577187e-06 -8.486078e-07
2.565591e-05 -1.328405e-05 -7.764201e-07
2.563444e-05 1.326107e-05 8.130295e-07
-1.931377e-05 1.855816e-05 6.038668e-07
-2.838197e-05 6.681368e-06 -3.094233e-22
1.465445e-05 -2.321842e-05 1.184892e-06
-2.093382e-05 -1.760590e-05 -1.141445e-06
2.184016e-05 1.531129e-05 -3.209712e-07
2.184016e-05 -1.531129e-05 3.209712e-07
1.311407e-06 -2.876807e-05 8.830087e-07
2.246710e-06 -2.873944e-05 8.521300e-07
-1.268444e-05 -2.588770e-05 8.508974e-07
-1.867623e-05 2.011589e-05 -1.182190e-06
-1.783071e-05 2.088805e-05 1.187539e-06
2.603992e-05 -6.051273e-06 4.987834e-07
-2.855318e-05 5.907004e-06 -3.094233e-22
2.603992e-05 6.051273e-06 -4.987834e-07
8.707002e-06 -2.524052e-05 -4.116651e-07
-2.375961e-05 1.634427e-05 8.396024e-07
1.958420e-05 -2.008523e-05 -1.253361e-06
-4.582336e-06 2.624175e-05 -1.390266e-07
6.214915e-06 2.651216e-05 1.074986e-06
-2.162972e-05 -1.563947e-05 3.858633e-07
-1.925473e-05 2.027023e-05 1.261739e-06
-4.295995e-06 -2.735292e-05 -1.246366e-06
-1.628701e-05 -2.364547e-05 9.631924e-07
2.808582e-05 7.833468e-06 -3.094233e-22
-2.870327e-05 5.128271e-06 -3.094233e-22
1.217714e-05 -2.613327e-05 8.477894e-07
-2.474373e-05 9.894647e-06 -2.101334e-07
2.657721e-05 -2.243687e-06 3.176722e-07
2.657721e-05 2.243687e-06 -3.176722e-07
2.639899e-05 3.726110e-06 2.714343e-07
2.639899e-05 -3.726110e-06 -2.714343e-07
-2.607958e-05 -8.457271e-06 -1.169448e-06
2.982512e-06 2.866533e-05 -8.597912e-07
-6.702328e-06 -2.805932e-05 8.279177e-07
-2.710532e-05 9.850698e-06 8.380351e-07
-2.883212e-05 4.345743e-06 -3.094233e-22
-2.176153e-05 1.536033e-05 -1.162296e-07
2.862230e-05 -3.580022e-06 -8.317799e-07
2.858628e-05 3.727570e-06 8.508608e-07
-2.381877e-05 -1.635490e-05 -7.736444e-07
-2.639209e-05 4.266017e-06 -5.007752e-07
9.079149e-06 -2.736810e-05 -8.436898e-07
-2.257888e-05 -1.440085e-05 -5.956809e-07
2.656767e-05 1.119495e-05 8.489971e-07
2.659057e-05 -1.115028e-05 -8.447819e-07
-2.849134e-05 4.588647e-06 8.164829e-07
-2.893965e-05 3.560000e-06 -3.094233e-22
-1.093383e-05 -2.665846e-05 -8.667291e-07
1.763597e-05 2.008410e-05 -4.856491e-07
-2.061914e-05 -2.011141e-05 8.777186e-07
2.707177e-05 2.884154e-06 -1.071323e-06
2.707177e-05 -2.884154e-06 1.071323e-06
1.004892e-05 -2.468537e-05 2.304935e-07
5.347166e-06 -2.833738e-05 -8.406793e-07
-2.817030e-05 6.314166e-06 8.035884e-07
1.330794e-05 2.456091e-05 -1.262680e-06
1.296559e-05 2.346469e-05 6.455547e-07
-2.902576e-05 2.771624e-06 -3.094233e-22
-1.653454e-05 -2.183905e-05 -1.159198e-06
7.963795e-06 -2.653609e-05 -1.249080e-06
5.064112e-06 -2.617009e-05 2.471037e-07
1.829166e-05 -2.238539e-05 -7.537218e-07
-2.445955e-05 -1.105882e-05 -7.008406e-07
-1.053979e-05 -2.685496e-05 8.273275e-07
1.224305e-05 2.615878e-05 -7.877983e-07
2.506432e-05 -1.165153e-05 -1.237454e-06
2.506432e-05 1.165153e-05 1.237454e-06
-2.370862e-05 1.643616e-05 -8.279286e-07
-2.909040e-05 1.981197e-06 -3.094233e-22
1.403179e-05 2.280063e-05 -5.803992e-07
-4.712303e-06 -2.844696e-05 -8.438527e-07
2.086535e-05 -1.682125e-05 6.334554e-07
2.086535e-05 1.682125e-05 -6.334554e-07
-2.241419e-05 1.438752e-05 9.186764e-08
1.333708e-05 -2.448843e-05 1.263279e-06
1.989636e-05 1.948531e-05 1.262482e-06
1.020127e-05 2.547587e-05 1.179663e-06
1.134063e-05 -2.649786e-05 -8.569785e-07
1.157984e-05 2.411282e-05 -5.332659e-07
-2.913352e-05 1.189305e-06 -3.094233e-22
-8.509971e-06 2.541450e-05 6.334220e-07
2.543401e-05 -9.073709e-06 -8.962099e-07
2.543401e-05 9.073709e-06 8.962099e-07
2.340400e-05 1.273464e-05 1.816752e-07
2.340400e-05 -1.273464e-05 -1.816752e-07
3.435310e-06 -2.667204e-05 -7.692443e-07
-2.700936e-05 5.134126e-06 -1.197824e-06
-5.262113e-06 -2.681561e-05 -1.128707e-06
-4.867304e-06 2.841693e-05 -8.481431e-07
1.628065e-05 2.107621e-05 -4.756204e-08
-2.915509e-05 3.965328e-07 -3.094233e-22
4.505506e-06 2.652463e-05 7.848879e-07
-2.654621e-05 2.373441e-06 2.291051e-07
1.679916e-05 2.190411e-05 -1.229559e-06
3.704663e-06 -2.640611e-05 2.892467e-07
7.352134e-06 -2.563814e-05 -3.166685e-07
1.711946e-05 2.324652e-05 8.027038e-07
1.960291e-05 -1.876557e-05 -1.011096e-06
2.872617e-05 -2.499964e-06 8.437154e-07
2.872617e-05 2.499964e-06 -8.437154e-07
1.965033e-05 2.110877e-05 -8.384078e-07
-2.915509e-05 -3.965328e-07 -3.094233e-22
2.318106e-05 -1.524110e-05 1.254157e-06
2.318106e-05 1.524110e-05 -1.254157e-06
2.005512e-06 -2.655612e-05 3.841913e-08
-2.588146e-05 9.352112e-06 1.206324e-06
-2.673063e-05 5.188654e-07 5.031365e-07
-2.092960e-05 1.786114e-05 1.204938e-06
1.945896e-05 1.868242e-05 8.669975e-07
2.238247e-05 1.810139e-05 8.950422e-07
2.242628e-05 -1.807577e-05 -8.767528e-07
-9.902612e-06 2.611242e-05 1.262896e-06
-2.913352e-05 -1.189305e-06 -3.094233e-22
-1.648688e-05 2.253282e-05 1.263052e-06
-2.657153e-05 1.127689e-05 8.081824e-07
7.516275e-06 2.628416e-05 1.134024e-06
2.578264e-05 9.790788e-06 -1.223307e-06
2.578264e-05 -9.790788e-06 1.223307e-06
-4.248933e-06 2.719619e-05 -1.208416e-06
-4.687393e-07 2.842899e-05 1.142852e-06
-3.479769e-06 2.640756e-05 1.086824e-07
-2.282080e-05 1.540505e-05 -1.210707e-06
-2.061820e-05 -2.016052e-05 -8.414999e-07
-2.909040e-05 -1.981197e-06 -3.094233e-22
-1.766549e-05 -2.277090e-05 -8.600323e-07
-1.597787e-05 2.387786e-05 9.470727e-07
1.662710e-05 2.357040e-05 -8.323402e-07
-8.982606e-06 2.724268e-05 9.851055e-07
-2.771836e-05 2.673453e-06 1.262424e-06
2.695482e-05 -6.497282e-06 -1.252143e-06
2.695482e-05 6.497282e-06 1.252143e-06
-1.775175e-05 -2.274643e-05 8.223253e-07
5.966644e-07 -2.681374e-05 6.650481e-07
-2.182657e-06 -2.883210e-05 -7.451951e-07
2.786239e-05 8.594409e-06 -3.094233e-22
-2.902576e-05 -2.771624e-06 -3.094233e-22
-2.724420e-05 -5.459158e-06 -1.258631e-06
-7.822458e-06 -2.645363e-05 -1.225069e-06
-7.620875e-06 2.551854e-05 -5.123381e-08
8.524141e-06 2.759202e-05 7.919717e-07
-1.086891e-05 -2.433861e-05 -2.454282e-07
-1.058151e-05 2.444079e-05 -6.949798e-08
-2.414339e-05 1.351384e-05 -1.242880e-06
-2.768119e-05 1.110716e-06 -1.248793e-06
-2.074817e-05 1.985175e-05 9.601625e-07
-2.762454e-05 -2.621377e-07 1.234413e-06
-2.893965e-05 -3.560000e-06 -3.094233e-22
1.227731e-05 -2.387514e-05 -7.060551e-07
2.142006e-05 1.934240e-05 8.137101e-07
2.142006e-05 -1.934240e-05 -8.137101e-07
-2.409293e-05 -1.368003e-05 1.249151e-06
-2.403661e-05 1.147215e-05 -8.443003e-08
-1.336738e-05 -2.567763e-05 -6.961106e-07
-1.728548e-05 2.034750e-05 -4.068933e-07
[...]
POINT_DATA 2866
VECTORS 10.000GHz_fone_imag double
1.694002e-06 6.509120e-05 1.755678e-02
-2.642839e-04 1.930093e-04 1.743229e-02
-6.567660e-04 -3.751515e-04 1.730247e-02
-6.313030e-03 -1.281916e-02 1.150763e-02
5.562377e-03 1.977416e-02 -7.463050e-03
-9.275653e-04 -1.300501e-02 -2.004249e-02
2.653655e-03 3.372547e-03 -2.398933e-02
1.689224e-02 -1.225936e-02 -4.036272e-03
-1.687581e-02 -1.230794e-02 -4.097631e-03
-9.981230e-03 1.475988e-02 -1.401176e-02
7.201572e-03 -9.966977e-03 1.318724e-02
-7.579959e-03 1.865833e-02 -9.352515e-03
-6.626584e-03 -1.148285e-02 1.269575e-02
1.623138e-05 -2.503042e-04 1.762562e-02
1.566367e-02 1.362518e-02 -7.523967e-03
4.111485e-03 2.023151e-02 -7.004114e-03
-7.108698e-03 1.120205e-02 1.258203e-02
-9.632306e-03 1.028162e-02 -1.887345e-02
-1.007026e-03 1.405839e-03 -2.439477e-02
2.551644e-03 1.210557e-02 1.328424e-02
7.233584e-03 1.135673e-02 -1.996873e-02
7.544295e-03 1.929498e-02 -6.190626e-03
-3.751239e-03 5.767073e-03 -2.348082e-02
2.822150e-03 -1.712389e-02 -1.539539e-02
4.069331e-04 -8.244659e-05 1.749495e-02
4.227768e-03 2.065384e-02 -4.819240e-03
-4.670353e-03 -1.244043e-02 1.234138e-02
1.242312e-02 -1.610442e-02 -7.713102e-03
-1.261743e-02 3.041653e-03 1.284854e-02
1.261501e-02 3.041057e-03 1.286120e-02
-1.038689e-02 -1.853467e-03 -2.145728e-02
8.425215e-03 -1.904925e-02 -5.255588e-03
-1.670249e-02 -8.263806e-03 -1.303654e-02
-1.267364e-02 1.633837e-02 -6.703063e-03
-1.991959e-02 5.005293e-03 -6.090777e-03
9.016104e-05 -7.270019e-05 1.734787e-02
-1.128315e-02 7.111893e-03 1.285454e-02
-1.146637e-02 1.617316e-02 -1.013596e-02
2.231941e-03 -8.571011e-04 -2.461037e-02
-7.838856e-03 1.861093e-02 -9.022710e-03
1.815284e-03 -1.311442e-02 1.300539e-02
-1.464592e-02 1.082650e-02 -1.350792e-02
1.464922e-02 1.100762e-02 -1.346662e-02
-1.375520e-02 -1.455190e-02 1.410731e-03
9.195866e-03 -1.028527e-02 1.217636e-02
1.210721e-02 -4.160883e-03 1.309276e-02
-1.361917e-05 2.691669e-04 1.743272e-02
-1.215614e-02 -4.137862e-03 1.302228e-02
-1.403581e-02 -1.445806e-02 -9.477767e-03
-1.203695e-02 4.543649e-03 1.302537e-02
1.689109e-02 -1.219425e-02 -5.989527e-03
-1.986360e-02 2.693262e-03 -9.355351e-03
-1.292471e-02 1.494791e-02 -1.093270e-02
-1.010272e-02 -3.517602e-03 1.444886e-02
5.584341e-03 -8.268056e-03 -2.211847e-02
-1.874868e-02 8.167572e-03 -8.688100e-03
1.883315e-02 8.133899e-03 -8.587477e-03
1.584374e-04 -7.604211e-05 1.747809e-02
8.954626e-03 -1.837418e-02 -7.524387e-03
6.273338e-03 1.106580e-02 1.309106e-02
-1.110089e-02 -1.002238e-02 -1.822536e-02
1.052770e-02 -1.041807e-02 -1.857452e-02
7.379458e-03 -1.067634e-02 1.265845e-02
8.066593e-03 1.936471e-02 -5.902636e-03
-7.414295e-03 9.567577e-03 1.328457e-02
1.749753e-02 1.126714e-02 -2.421334e-03
3.110210e-03 -2.035647e-02 -6.340979e-03
-4.255325e-03 -1.116762e-02 1.376686e-02
-1.785989e-05 -4.589514e-05 1.741653e-02
5.966822e-04 7.397738e-03 -2.305510e-02
-1.299682e-02 -3.754577e-03 1.277312e-02
2.020871e-03 1.340284e-02 1.283522e-02
2.308326e-03 -1.224062e-02 1.321667e-02
-3.945914e-03 -4.328573e-03 -2.345731e-02
3.492306e-03 -4.265424e-03 -2.363161e-02
1.091633e-02 -1.658142e-02 -1.016555e-02
7.742637e-04 4.838136e-03 -2.373435e-02
1.172924e-03 2.839488e-03 -2.444015e-02
-7.729203e-03 -1.121931e-02 -1.917650e-02
8.644365e-06 -1.473364e-04 1.743644e-02
1.545704e-02 4.532261e-03 -1.652118e-02
-4.885251e-03 1.173907e-02 1.339357e-02
-1.349546e-02 -3.677922e-03 1.215085e-02
1.242451e-02 -3.339699e-03 1.305955e-02
4.896709e-05 2.107171e-02 -5.205489e-03
-9.226824e-04 2.109642e-02 -4.612065e-03
-1.220969e-02 2.072600e-03 1.346826e-02
1.041708e-02 -4.996718e-03 1.386554e-02
-1.083767e-02 -5.151534e-03 1.359579e-02
7.923688e-03 -8.039192e-03 -2.118769e-02
2.279054e-04 9.887463e-06 1.750890e-02
-1.052816e-02 1.756943e-02 -8.653041e-03
-1.528402e-02 -1.266861e-02 -1.037432e-02
5.127369e-03 3.742431e-03 -2.373779e-02
-5.225377e-03 3.912058e-03 -2.389628e-02
-4.502254e-04 1.367220e-02 1.245391e-02
-1.105185e-03 1.345830e-02 1.276129e-02
5.216577e-03 1.093580e-02 1.362509e-02
-1.366591e-02 1.496531e-02 -8.757052e-03
1.341742e-02 -1.545926e-02 -8.640444e-03
-9.278737e-03 2.051815e-03 -2.241465e-02
-4.390669e-04 2.431731e-04 1.740408e-02
9.280688e-03 2.052510e-03 -2.241775e-02
2.450846e-03 -6.850090e-03 -2.326061e-02
9.702442e-03 -7.072260e-03 1.345401e-02
1.412442e-02 -1.470550e-02 9.707544e-04
-7.215628e-04 2.763936e-03 -2.435210e-02
-4.458539e-03 -1.845239e-02 -1.236964e-02
6.545621e-03 4.621308e-03 -2.309334e-02
1.402915e-02 -1.500511e-02 2.842209e-04
-3.080393e-03 -2.037242e-02 -4.114274e-03
7.900017e-03 1.243521e-02 1.144677e-02
-3.861255e-04 -2.784643e-04 1.756914e-02
-1.242342e-04 -2.375020e-04 1.734962e-02
-5.130142e-03 1.119537e-02 1.332886e-02
-3.845175e-03 1.044885e-03 -2.422554e-02
-4.588979e-03 8.199679e-05 -2.382332e-02
4.556880e-03 8.590339e-05 -2.384670e-02
-5.596870e-03 -5.928172e-04 -2.401723e-02
5.605508e-03 -6.011625e-04 -2.404183e-02
-1.904621e-02 -6.359142e-03 -9.341449e-03
1.423553e-03 1.260575e-02 1.318329e-02
3.156668e-03 1.185997e-02 1.345834e-02
1.125427e-02 -4.440602e-03 1.371081e-02
1.066460e-04 5.909655e-04 1.728893e-02
-2.319852e-03 1.812059e-03 -2.472929e-02
1.225379e-02 -1.517065e-03 1.336578e-02
-1.270488e-02 -1.533428e-03 1.312561e-02
-9.683941e-03 -6.649670e-03 1.420143e-02
-9.786404e-03 1.405448e-03 -2.190652e-02
3.421613e-03 -1.162591e-02 1.353658e-02
-9.378127e-03 -5.969812e-03 -2.147516e-02
-1.168001e-02 -5.010529e-03 1.338147e-02
1.174420e-02 -5.070319e-03 1.335329e-02
1.161840e-02 -1.544789e-03 1.383070e-02
-3.894950e-04 3.450345e-05 1.758728e-02
-5.104772e-03 -1.115105e-02 1.296224e-02
6.297743e-03 6.785832e-03 -2.241117e-02
9.441559e-03 9.146962e-03 1.284166e-02
1.868233e-02 2.201100e-03 -1.332881e-02
-1.866192e-02 2.229739e-03 -1.332060e-02
-1.627388e-03 3.774712e-03 -2.415785e-02
1.973926e-03 -1.196856e-02 1.350906e-02
1.174320e-02 -2.490675e-03 1.403867e-02
9.984622e-03 1.791981e-02 7.847591e-04
-6.250368e-03 -1.150499e-02 -2.077960e-02
-4.013350e-04 -2.231192e-04 1.781228e-02
-1.235169e-02 -1.576128e-02 -9.861095e-03
6.097907e-03 -2.007911e-02 -4.531389e-03
-4.746504e-04 4.962335e-03 -2.389200e-02
7.342520e-03 -8.587166e-03 1.403775e-02
-1.191572e-02 -5.261496e-03 -2.003968e-02
4.320018e-03 1.087450e-02 1.419294e-02
4.893352e-03 1.016384e-02 1.433333e-02
1.895602e-02 -8.854249e-03 -5.101697e-03
-1.875656e-02 -8.982973e-03 -4.585439e-03
-1.012292e-02 6.989715e-03 1.389210e-02
4.994336e-05 -1.664793e-04 1.795737e-02
5.277305e-03 9.633484e-03 -2.139669e-02
-2.050199e-03 -1.279316e-02 1.278265e-02
-9.327706e-03 7.062703e-03 -2.077616e-02
9.147481e-03 7.475280e-03 -2.075938e-02
1.194731e-03 -8.561497e-04 -2.445675e-02
-9.983898e-03 1.835680e-02 -1.316199e-03
-1.486306e-02 -1.461032e-02 -1.384174e-03
-7.183025e-03 -1.917580e-02 -8.524233e-03
5.227549e-03 -1.144342e-02 1.331485e-02
4.933576e-03 8.221167e-03 -2.222429e-02
1.244041e-04 2.918038e-06 1.772535e-02
3.851534e-03 -1.034917e-02 -2.109520e-02
1.550610e-02 -5.618176e-03 -1.652426e-02
-1.542058e-02 -5.608510e-03 -1.656152e-02
-3.779975e-03 -1.843243e-03 -2.398912e-02
3.512825e-03 -1.768425e-03 -2.403016e-02
2.014571e-03 -1.356213e-02 -1.927184e-02
-1.999569e-02 3.974106e-03 -7.802977e-03
-3.835841e-03 -1.956218e-02 -1.048321e-02
-2.165442e-03 1.228306e-02 1.339701e-02
7.960396e-04 8.964017e-04 -2.451513e-02
2.533532e-04 -3.178164e-04 1.778715e-02
-2.466420e-03 -1.398967e-02 -1.864923e-02
4.745118e-03 -3.287144e-04 -2.452640e-02
1.258080e-02 1.652841e-02 -6.231105e-03
-1.074434e-03 6.411557e-03 -2.355169e-02
2.176411e-03 -5.207495e-03 -2.349071e-02
-7.516419e-03 -9.396120e-03 1.387472e-02
1.326197e-02 -1.242155e-02 -1.363296e-02
-1.251990e-02 1.294497e-03 1.375448e-02
1.254539e-02 1.295429e-03 1.382251e-02
8.352802e-03 9.246105e-03 1.351431e-02
1.539176e-04 -1.906045e-04 1.781764e-02
-1.764841e-02 1.179709e-02 -3.586447e-03
1.729841e-02 1.171285e-02 -3.769725e-03
1.816711e-05 5.490432e-04 -2.437277e-02
1.959459e-02 -7.128076e-03 -7.006010e-03
9.246790e-03 -1.194262e-04 -2.240341e-02
1.613284e-02 -1.347239e-02 -7.109381e-03
-1.066711e-02 -1.055910e-02 -1.774174e-02
-1.056245e-02 -8.070273e-03 1.294132e-02
1.042138e-02 -7.969258e-03 1.309928e-02
7.223400e-03 -1.921133e-02 -4.651013e-04
4.937367e-04 2.239434e-04 1.771087e-02
1.216556e-02 -1.668726e-02 -4.518079e-04
1.099460e-02 -4.458659e-03 1.375029e-02
-5.697617e-03 -1.938322e-02 -1.030005e-02
1.957708e-02 7.279056e-03 -6.479355e-03
-1.962684e-02 7.072618e-03 -6.407943e-03
-3.335288e-03 2.058404e-02 -7.127277e-03
-7.179230e-05 -1.818462e-02 6.982269e-03
3.759804e-04 -1.790421e-03 -2.433192e-02
-1.709336e-02 1.171689e-02 -7.201193e-03
-9.037277e-03 -8.284536e-03 1.349100e-02
5.155471e-05 1.677528e-04 1.766679e-02
-7.981757e-03 -1.007818e-02 1.332538e-02
8.228644e-03 -1.184137e-02 1.155285e-02
6.985026e-03 1.056842e-02 1.324075e-02
4.621238e-03 -1.441427e-02 1.105804e-02
2.064133e-02 -1.853944e-03 -2.610223e-03
2.052489e-02 -4.410001e-03 -3.372670e-03
-2.052453e-02 -4.437908e-03 -3.383343e-03
7.461872e-03 9.655899e-03 1.353542e-02
-6.896131e-04 1.194186e-02 -2.040525e-02
-8.679291e-04 -1.068568e-02 1.463056e-02
1.758498e-04 1.627201e-04 1.754618e-02
-5.063381e-04 9.365999e-05 1.773674e-02
-2.060544e-02 -4.037810e-03 -2.296742e-03
-5.827578e-03 -1.976924e-02 -6.566681e-03
-1.888370e-04 1.035229e-03 -2.426613e-02
-3.306915e-03 -1.127351e-02 1.381575e-02
-2.215562e-03 -3.627743e-03 -2.421798e-02
-6.549787e-04 1.429243e-03 -2.445095e-02
-1.821067e-02 1.004826e-02 -4.434366e-03
-2.080625e-02 1.266913e-03 -4.334110e-03
1.066115e-02 -1.000366e-02 1.144684e-02
2.074296e-02 9.579442e-04 -5.211775e-03
-9.117264e-07 -1.861836e-04 1.755385e-02
6.043657e-03 -1.155057e-02 -1.983830e-02
-8.791665e-03 -7.926672e-03 1.383215e-02
8.836999e-03 -7.741946e-03 1.386492e-02
1.823796e-02 1.005012e-02 -4.398230e-03
-1.754073e-03 1.465332e-03 -2.420966e-02
-4.693047e-03 -9.092903e-03 1.476033e-02
-5.302967e-03 5.521433e-03 -2.312464e-02
-1.643563e-04 3.802883e-04 -2.451984e-02
-8.756802e-03 -5.443335e-03 1.462859e-02
-1.510437e-02 -1.467065e-02 -3.664091e-03
-2.283586e-04 -3.459562e-06 1.747760e-02
1.138886e-02 4.770103e-03 1.360243e-02
-1.173871e-02 4.582097e-03 1.377296e-02
1.966701e-02 -1.950277e-03 -7.957460e-03
1.163905e-02 1.745237e-02 -3.097789e-03
7.666847e-03 1.024255e-03 -2.309439e-02
2.009568e-02 5.558120e-03 -2.887667e-03
6.744492e-03 8.070525e-03 1.453900e-02
-5.322097e-03 -1.935650e-02 -9.085950e-03
1.288389e-04 1.275829e-02 1.295724e-02
8.941162e-03 5.518850e-03 1.458310e-02
3.176644e-05 -1.406585e-04 1.750051e-02
-9.872594e-03 6.224710e-03 1.376142e-02
2.060944e-02 -3.684457e-03 -6.816048e-03
-2.059371e-02 -3.700157e-03 -6.836819e-03
1.717707e-02 6.731643e-03 -1.262314e-02
-1.487776e-02 1.444396e-02 -2.382294e-04
-1.675818e-03 1.266088e-02 1.334918e-02
-8.905623e-03 1.903229e-02 -3.967302e-03
-1.155452e-02 -1.928528e-03 1.420621e-02
-6.388494e-03 9.282053e-03 1.453158e-02
-3.648054e-03 -1.800113e-03 -2.412725e-02
-1.150644e-05 -1.342801e-04 1.746306e-02
-1.203463e-03 1.120432e-02 -2.131410e-02
-8.814666e-03 -8.859718e-04 -2.248399e-02
6.862899e-03 1.995517e-02 -2.645371e-03
1.729852e-02 -7.120752e-03 -1.277232e-02
-1.699746e-02 -7.546365e-03 -1.312169e-02
1.054287e-02 1.751164e-02 1.684902e-03
7.537654e-03 -1.762856e-02 -1.247919e-02
1.944268e-02 6.532189e-03 6.348082e-04
-1.941841e-02 6.568157e-03 6.548099e-04
8.826021e-03 8.423700e-03 -2.025752e-02
2.522703e-05 -8.767668e-05 1.765217e-02
-1.592397e-02 6.524237e-04 1.013315e-02
1.595836e-02 7.320657e-04 1.013703e-02
-1.135202e-02 1.966516e-03 1.410636e-02
-8.023465e-03 6.903363e-03 1.452440e-02
-1.649327e-04 -1.237471e-03 -2.458587e-02
-1.998655e-02 -1.258987e-03 -1.786463e-03
5.273871e-03 2.099506e-02 -2.663047e-03
-9.354807e-03 8.756002e-03 -2.023822e-02
4.875154e-03 -6.428922e-03 -2.296608e-02
1.095577e-02 2.077609e-03 1.446493e-02
8.011625e-05 3.038612e-04 1.757047e-02
8.432339e-03 1.087722e-02 -1.933408e-02
-9.379111e-03 -1.466902e-03 -2.239164e-02
7.423673e-03 -1.134268e-03 -2.295457e-02
-7.439747e-03 -1.095691e-03 -2.294257e-02
-8.425433e-03 9.193334e-03 1.332122e-02
5.545182e-04 2.670272e-03 -2.443974e-02
-1.871435e-02 9.023465e-03 -3.944907e-03
-3.262197e-04 4.196634e-03 -2.390271e-02
-3.792885e-03 1.152794e-02 1.350317e-02
-2.073888e-02 -2.499234e-04 -9.354857e-04
-4.224261e-04 -1.332737e-04 1.768200e-02
2.075908e-02 -2.637049e-04 -8.615190e-04
-9.547543e-03 -3.998642e-03 1.446288e-02
9.598040e-03 -4.131248e-03 1.445017e-02
-8.069894e-03 -1.897369e-02 8.688199e-04
-1.190934e-02 1.719568e-02 -4.085522e-03
-6.656542e-03 1.011842e-02 1.352352e-02
-7.060635e-03 -1.019268e-02 1.340578e-02
-1.632648e-02 -4.948103e-03 -1.583966e-02
-5.630506e-03 -9.530166e-03 -2.096970e-02
1.406145e-03 -5.828132e-03 -2.362546e-02
1.603549e-04 7.058543e-05 1.753926e-02
-6.575495e-03 1.992658e-02 -2.484670e-03
-9.780804e-03 4.786823e-03 1.420419e-02
9.732470e-04 1.123187e-03 -2.435213e-02
-4.964868e-04 2.694781e-04 -2.478722e-02
-2.044852e-02 1.859255e-03 1.217241e-03
2.046962e-02 1.866699e-03 1.256347e-03
-7.155077e-03 -1.064192e-02 -2.004006e-02
-1.387639e-04 7.571657e-04 -2.441692e-02
1.061349e-02 -1.675029e-02 2.740038e-03
-5.018097e-03 -1.149479e-02 1.312695e-02
-3.307261e-05 -2.222698e-04 1.726341e-02
5.049993e-04 8.101862e-04 -2.453679e-02
5.166914e-04 -4.536509e-04 -2.438900e-02
1.089409e-02 4.940982e-04 1.391904e-02
-1.020663e-02 -1.813610e-02 -3.772470e-03
-1.763555e-02 -1.154773e-02 -3.092498e-03
1.755743e-02 -1.154098e-02 -3.058382e-03
-1.663968e-02 -1.117111e-02 2.659200e-03
-1.817177e-02 -1.019254e-02 -3.675647e-03
1.807818e-02 -1.013350e-02 -3.774694e-03
-8.640126e-03 7.774864e-03 1.384777e-02
-7.288883e-04 2.010884e-04 1.750474e-02
-4.853929e-04 3.040033e-05 1.739766e-02
-7.550426e-03 8.463752e-03 1.418732e-02
-4.398603e-03 1.055824e-02 1.460009e-02
-1.371338e-02 -1.552133e-02 -6.351049e-03
1.821644e-03 -2.091178e-02 -2.986110e-03
-7.422925e-03 -1.943125e-02 -5.698999e-03
1.088779e-02 3.076112e-03 1.448892e-02
-1.078656e-02 3.141822e-03 1.446954e-02
-3.879600e-03 1.088212e-02 -2.105283e-02
8.575989e-03 8.306146e-03 1.376219e-02
-2.079416e-02 -2.789824e-03 -7.917513e-04
-1.905503e-04 -4.339593e-05 1.754324e-02
2.087741e-02 -2.784871e-03 -6.972996e-04
2.002272e-02 -5.989888e-03 -6.273426e-03
-2.000043e-02 -5.946425e-03 -6.253350e-03
1.433436e-02 -6.022624e-03 -1.752726e-02
-8.497581e-03 -6.221284e-03 1.481507e-02
8.276483e-03 -6.162686e-03 1.497393e-02
-1.521957e-04 -1.001519e-03 -2.477726e-02
1.522484e-02 1.479561e-02 -1.303701e-03
-5.946685e-05 -6.013397e-06 -2.449973e-02
6.442610e-03 2.000404e-02 -3.374016e-03
6.167971e-04 -3.063617e-04 1.739534e-02
-2.685164e-03 -1.187216e-02 1.375077e-02
4.470926e-03 -2.028222e-02 -4.314189e-03
-1.900060e-03 -1.165331e-02 1.393616e-02
4.538465e-03 -2.051663e-02 -3.523482e-03
4.787070e-03 1.221147e-03 -2.379107e-02
9.908593e-03 -1.842762e-02 -3.706675e-03
-1.932889e-02 7.692969e-03 -5.945260e-03
8.634694e-03 8.613009e-03 1.351039e-02
-8.919458e-04 -3.744838e-04 -2.423462e-02
2.717314e-04 -6.847353e-04 -2.468280e-02
-1.194831e-04 1.346029e-04 1.734703e-02
-2.709406e-03 -2.079609e-02 -4.237839e-03
3.122547e-03 1.077241e-02 1.413949e-02
1.583673e-02 5.554731e-04 -1.746757e-02
2.025510e-02 8.182720e-04 -5.651620e-04
-8.878504e-03 5.160906e-03 1.473340e-02
8.854683e-03 5.063648e-03 1.476843e-02
-1.145308e-02 5.010923e-03 -2.032567e-02
-2.552007e-03 -1.165705e-02 1.373740e-02
2.152916e-04 -5.519846e-04 -2.453333e-02
-3.957875e-03 -1.028481e-02 -2.137612e-02
1.307501e-04 -8.673300e-05 1.745328e-02
1.028392e-02 4.131947e-03 1.466831e-02
6.605240e-04 -1.487390e-02 -1.805321e-02
-1.097608e-02 -1.734589e-02 -6.019690e-03
6.669410e-03 -7.746780e-03 1.466506e-02
-1.995652e-02 1.568587e-03 -1.103672e-02
1.102645e-02 9.735323e-04 1.439899e-02
-1.099234e-02 1.056900e-03 1.442230e-02
-1.340769e-02 -1.590042e-02 5.307796e-04
-1.120560e-02 -2.565795e-04 1.461823e-02
-1.515676e-02 -1.357786e-02 4.721559e-04
1.605519e-04 1.352293e-04 1.735161e-02
1.054914e-02 4.754104e-03 1.420631e-02
7.906073e-03 7.603122e-03 1.445121e-02
-3.272884e-04 -2.104899e-02 -2.805368e-03
-8.786789e-04 1.515016e-02 -1.830117e-02
-1.777798e-02 -1.009411e-02 5.756172e-04
-4.612231e-03 8.300658e-03 1.520210e-02
-9.969929e-03 5.592230e-03 -2.101038e-02
1.818147e-02 -9.357946e-03 7.492525e-04
9.064235e-03 -1.189126e-02 -1.823664e-02
1.369991e-03 2.075837e-02 -5.811000e-03
-1.919039e-04 -9.555421e-05 1.735716e-02
1.210227e-02 -7.166464e-04 1.424597e-02
-7.668058e-03 6.314950e-03 1.509529e-02
1.075679e-02 4.720447e-03 1.423093e-02
-1.084795e-02 4.776708e-03 1.442992e-02
1.600584e-02 1.342461e-02 -4.836860e-03
-1.579409e-02 1.377659e-02 -5.497208e-03
1.683489e-02 -1.250620e-02 -4.247297e-03
-2.395700e-03 9.854319e-03 1.492291e-02
-1.298427e-02 1.588036e-02 1.095218e-03
-2.047220e-03 8.932451e-04 -2.441846e-02
3.911978e-04 6.167303e-05 1.757384e-02
2.039994e-03 8.917839e-04 -2.442645e-02
-1.800369e-02 9.252259e-03 1.810470e-03
1.802499e-02 9.233030e-03 1.859145e-03
1.340602e-02 -1.473046e-02 -1.054611e-02
-1.964856e-02 7.214827e-03 -4.558005e-03
-3.550857e-03 2.049760e-02 -5.454419e-03
-3.160422e-03 -1.122119e-02 1.394982e-02
-6.708808e-03 1.833662e-02 3.317929e-03
1.624240e-03 -2.119513e-02 -2.790870e-03
4.514021e-03 -9.251309e-03 1.482061e-02
1.031378e-04 5.131948e-05 1.747600e-02
-8.861744e-03 -1.909826e-02 -1.131891e-04
3.605903e-03 -9.923967e-03 -2.132496e-02
-1.523537e-02 1.385732e-02 -1.276989e-03
7.222397e-03 9.099922e-03 1.392679e-02
1.994941e-03 2.076727e-02 -4.419536e-03
-2.074015e-02 -1.474433e-03 -4.917663e-03
2.033983e-02 4.065198e-03 -5.489735e-04
1.037709e-02 3.367354e-03 -2.119118e-02
-1.043997e-02 3.359136e-03 -2.118799e-02
7.452799e-03 -8.484280e-03 1.461744e-02
-6.132441e-05 -2.199443e-04 1.771997e-02
-5.215544e-03 -9.767762e-03 1.419590e-02
-1.638209e-02 -1.231546e-02 6.148344e-04
1.340632e-02 -7.184498e-03 1.094788e-02
-4.194863e-04 -1.527089e-02 -1.793378e-02
-6.206774e-03 -8.121732e-03 1.480165e-02
8.881309e-03 6.799800e-03 1.418890e-02
1.441111e-02 -5.000380e-03 -1.783182e-02
-1.436569e-02 -4.952953e-03 -1.784336e-02
1.990779e-02 -5.866704e-03 -3.728954e-03
4.863719e-03 -9.295928e-03 1.468817e-02
-3.650155e-05 -4.002890e-05 1.751077e-02
2.251834e-04 2.110356e-04 1.756198e-02
-8.109248e-03 -8.349931e-03 1.411579e-02
-4.716258e-03 3.678405e-03 -2.386142e-02
-2.001329e-02 5.855964e-03 -3.298704e-03
-1.858038e-02 4.028208e-03 -1.206888e-02
9.848072e-03 -6.952263e-03 1.316178e-02
1.204569e-02 1.556858e-02 3.733372e-03
-1.994201e-03 4.164303e-04 -2.455920e-02
5.095942e-03 8.609681e-03 1.449922e-02
2.042774e-02 2.696160e-03 -2.628551e-04
2.839440e-03 1.027241e-02 1.464932e-02
-2.458264e-04 1.527435e-04 1.751628e-02
-9.750900e-03 1.744894e-02 2.214907e-03
9.480653e-04 2.079271e-02 -5.647612e-03
-5.478287e-03 9.466945e-03 1.442265e-02
-1.205626e-02 -6.457309e-03 -1.942254e-02
1.207449e-02 -6.425786e-03 -1.942945e-02
-1.676058e-02 1.261975e-02 -2.565794e-03
1.937974e-02 -6.275214e-04 -9.196195e-03
-1.139032e-02 1.558550e-02 4.790256e-03
-4.716746e-03 2.043090e-02 -2.295016e-03
-4.357180e-03 -2.017409e-02 -2.203642e-03
4.088491e-04 -4.996112e-04 1.746050e-02
-6.103211e-03 -5.324459e-04 -2.351287e-02
6.153107e-03 -5.342397e-04 -2.350461e-02
5.611521e-03 -8.901059e-03 1.459486e-02
-3.316572e-03 1.541400e-02 -1.732686e-02
-1.416280e-03 6.220213e-03 -2.396772e-02
3.350634e-03 2.078284e-02 -4.274618e-03
-9.039025e-03 -1.047529e-02 -1.964760e-02
1.407542e-02 -8.322354e-03 -1.687175e-02
1.668879e-02 1.177266e-02 9.982664e-04
-1.674804e-02 1.159440e-02 6.474119e-04
5.901056e-05 2.133555e-04 1.752970e-02
1.166935e-03 -1.614783e-02 -1.679198e-02
-2.048077e-02 -6.490193e-04 -6.767379e-03
-3.882219e-03 -9.549704e-03 -2.163432e-02
-1.257202e-02 1.726817e-03 -2.032339e-02
-8.519395e-03 -6.743860e-03 1.465300e-02
-1.947687e-02 -7.048639e-03 -4.216101e-03
-3.503454e-03 7.001728e-03 -2.320151e-02
-8.262785e-03 -6.384809e-03 1.468838e-02
-2.818491e-03 5.127500e-03 -2.406563e-02
-7.171724e-03 1.004007e-02 -2.052800e-02
3.330273e-04 1.312725e-04 1.746901e-02