# vtk DataFile Version 2.0
Electric current density generated by TTH
ASCII
DATASET UNSTRUCTURED_GRID
POINTS 1392 double
1.416181e-05 -3.468643e-21 -5.528757e-22
1.139809e-05 8.404779e-06 -5.528757e-22
1.166857e-05 -2.857976e-21 -2.244921e-06
5.580478e-06 -9.040120e-06 1.858800e-06
5.544027e-06 -1.289500e-05 -7.422516e-07
1.372953e-05 2.798059e-06 8.092698e-07
-1.146462e-05 -4.308217e-06 2.231096e-06
3.661834e-06 9.519151e-06 1.478901e-06
-6.737704e-06 -7.512683e-06 -1.344640e-06
9.277073e-06 -2.649535e-06 5.915189e-08
1.116299e-05 5.099608e-06 -2.227064e-06
5.191503e-06 -1.218485e-05 1.816386e-06
-1.239174e-05 -2.830445e-06 2.108344e-06
1.260206e-05 -3.086615e-21 -2.146807e-06
-7.203565e-07 -1.216451e-05 -2.239691e-06
-1.344557e-05 -3.988615e-07 -1.643856e-06
1.368386e-05 3.001778e-06 -8.158067e-07
6.723414e-06 6.920929e-06 8.968400e-08
-1.220012e-05 -1.247254e-06 2.228526e-06
-9.176952e-06 3.137399e-06 4.780547e-07
2.687590e-06 1.302164e-05 1.777316e-06
-1.173080e-05 -5.774707e-06 1.930031e-06
-2.482261e-07 -1.406282e-05 -6.539263e-07
-1.402500e-05 7.448616e-07 -7.174121e-07
1.341494e-05 -3.285713e-21 -1.677491e-06
-3.897901e-06 1.182743e-05 2.189592e-06
-1.387029e-05 -2.140327e-06 -7.474845e-07
-2.281667e-06 9.727352e-06 1.197987e-06
-1.233349e-05 4.781943e-06 -1.828540e-06
-2.862686e-06 -1.372400e-05 7.891090e-07
-1.247390e-05 6.400015e-06 -7.876459e-07
-2.268306e-06 1.202910e-05 2.232053e-06
-4.169180e-07 -1.337708e-05 1.705207e-06
-9.945527e-06 -9.010737e-06 1.672568e-06
-1.275931e-05 -3.538183e-06 -1.819258e-06
1.396666e-05 -3.420844e-21 -9.181211e-07
-7.407822e-06 -8.688179e-06 2.204131e-06
-9.947578e-06 -5.827648e-06 -2.225816e-06
8.305813e-06 8.019184e-06 -2.228519e-06
9.212857e-06 6.825148e-06 -2.214196e-06
3.301480e-06 9.122757e-06 -4.932070e-07
-1.135918e-06 1.318095e-05 1.827283e-06
-7.488059e-06 8.613201e-06 -2.203139e-06
6.800552e-06 -1.225260e-05 -8.051322e-07
-4.334070e-06 1.057950e-05 2.207456e-06
-9.150511e-06 -3.148411e-06 3.653592e-07
-6.635960e-07 9.624386e-06 0.000000e+00
-2.296365e-07 -1.050341e-05 -1.771795e-06
7.790087e-06 -9.977928e-06 -2.127546e-06
-6.676557e-06 9.956022e-06 -2.255763e-06
-6.557072e-06 8.609252e-06 1.980747e-06
-2.087591e-06 9.432936e-06 -2.504764e-07
-1.137524e-05 -3.385800e-06 -2.256998e-06
-9.085919e-06 -3.880917e-06 -9.984306e-07
-6.188033e-06 8.134857e-06 -1.503628e-06
1.267473e-05 1.978527e-06 2.059641e-06
1.783962e-06 9.621037e-06 -7.765993e-07
-9.645534e-06 2.158362e-07 5.672063e-08
6.992878e-06 7.499085e-06 1.539430e-06
3.779696e-06 1.086780e-05 2.221885e-06
8.716753e-06 -8.680908e-06 -2.222010e-06
-9.719547e-06 6.161241e-07 6.372566e-07
-1.127502e-05 -8.393006e-06 -6.832720e-07
4.577143e-06 8.495754e-06 -1.173533e-07
1.399043e-05 -1.477463e-06 6.432187e-07
5.363993e-06 1.296550e-05 -7.564856e-07
-1.128771e-05 7.146468e-06 -1.725544e-06
-8.798244e-06 -3.957506e-06 2.045169e-08
3.718428e-06 -9.706219e-06 -1.677491e-06
-6.166776e-06 1.260895e-05 -7.425089e-07
-9.156961e-06 -1.064187e-05 -7.338101e-07
-4.686373e-06 -1.134929e-05 -2.226044e-06
1.292241e-05 -5.485125e-06 7.362876e-07
-3.738706e-06 -1.270517e-05 -1.817025e-06
9.040531e-07 -1.348963e-05 1.576680e-06
1.292187e-05 5.494034e-06 7.275845e-07
9.825005e-06 4.712535e-06 -2.019825e-06
-4.761875e-06 1.009430e-05 -2.131357e-06
2.168524e-06 -1.006579e-05 -1.584405e-06
7.445562e-06 8.420466e-06 -2.157297e-06
1.199843e-05 -7.277321e-06 -7.519598e-07
-9.642748e-06 -7.338990e-07 3.241788e-07
1.403764e-06 -1.116062e-05 -2.159873e-06
-9.146227e-06 -9.521253e-06 1.846734e-06
-2.657945e-07 1.228941e-05 2.223731e-06
-9.340841e-06 -4.082016e-06 1.472709e-06
1.155632e-05 -5.579790e-06 2.057550e-06
8.433064e-06 -6.692684e-06 1.949180e-06
2.219873e-06 -1.384215e-05 -7.900799e-07
5.024505e-06 1.125891e-05 -2.216981e-06
-8.530662e-06 -1.115130e-05 -7.312833e-07
-6.222373e-06 1.193846e-05 1.633210e-06
-7.430851e-06 8.499436e-06 2.171951e-06
-4.877566e-06 -8.489721e-06 -7.930117e-07
1.444566e-06 1.054149e-05 1.869855e-06
9.534687e-06 1.565219e-06 -2.604038e-07
-5.086875e-06 -9.343814e-06 -1.869005e-06
6.236541e-06 -1.165291e-05 1.836618e-06
-1.132835e-05 5.276437e-06 -2.178175e-06
4.183012e-06 -1.259547e-05 -1.795999e-06
-9.465509e-06 9.460675e-06 -1.705854e-06
-8.528856e-06 -4.595121e-06 -4.268281e-07
1.196814e-05 3.008993e-06 -2.214763e-06
9.691110e-06 -1.013688e-05 7.765040e-07
8.220913e-06 1.141474e-05 6.474091e-07
1.158549e-05 6.452133e-06 -1.804264e-06
1.039702e-05 6.683703e-07 -1.699125e-06
-9.318699e-06 1.054745e-05 6.223009e-07
9.440228e-06 -7.877185e-06 2.223250e-06
-1.049357e-05 -3.711040e-06 -2.120414e-06
1.401827e-05 7.588625e-07 -7.349890e-07
2.746839e-06 1.047567e-05 -1.985027e-06
1.077684e-05 9.187853e-06 -5.528757e-22
-2.853504e-06 -9.223304e-06 -1.825145e-07
-1.899310e-06 -1.044183e-05 1.851410e-06
1.112030e-05 -8.573672e-06 7.265470e-07
-1.354778e-05 -1.003535e-06 1.507213e-06
7.623381e-07 -1.356611e-05 -1.504291e-06
-1.076833e-05 6.038594e-06 2.213711e-06
-6.653944e-06 -6.996988e-06 1.954480e-07
-7.222131e-06 6.428333e-06 -3.101341e-07
-7.743176e-06 -1.175618e-05 6.125947e-07
-7.138977e-06 1.144339e-05 1.609069e-06
7.079362e-06 1.014219e-05 -2.209073e-06
1.004111e-05 -6.766247e-06 -2.248088e-06
9.876127e-06 -5.965046e-06 -2.227290e-06
1.172607e-05 -3.704795e-06 2.222832e-06
-2.226892e-06 -1.390120e-05 -6.077951e-07
1.940098e-06 1.390123e-05 -7.431758e-07
6.208657e-06 8.521496e-06 1.800747e-06
-8.653152e-06 6.538726e-06 1.993616e-06
-8.942392e-06 -8.083695e-06 2.252294e-06
7.040421e-06 7.230541e-06 -1.345387e-06
4.402196e-06 -8.701171e-06 -6.777787e-07
5.992616e-06 9.954849e-06 -2.239207e-06
9.292457e-06 -6.174479e-06 2.129844e-06
-8.323004e-06 1.043388e-05 1.736391e-06
1.402774e-05 -7.344361e-07 -7.108749e-07
1.366556e-05 -3.141007e-06 7.823695e-07
-8.900845e-06 9.743976e-06 1.850387e-06
9.008265e-06 8.131195e-06 -2.245460e-06
9.729674e-06 -2.004749e-06 -1.101193e-06
-5.999068e-06 -7.555221e-06 1.541312e-08
1.328895e-05 -2.297625e-06 1.610558e-06
3.845271e-06 -9.170134e-06 -1.118292e-06
1.076730e-05 2.004928e-06 -2.046643e-06
9.560339e-06 6.360788e-06 2.217583e-06
-6.013369e-06 -1.273237e-05 -5.986759e-07
-8.123689e-06 -5.247172e-06 -3.262872e-07
-5.845297e-06 -1.053153e-05 2.252915e-06
1.296622e-06 9.567332e-06 1.845771e-07
-4.819435e-06 1.278640e-05 1.413419e-06
1.677904e-06 -1.339099e-05 -1.601095e-06
5.889362e-06 7.977708e-06 -1.068358e-06
1.403206e-05 -7.216303e-07 6.997578e-07
3.680530e-06 1.358252e-05 -6.291693e-07
-1.284686e-05 -5.747858e-06 -6.231960e-07
-7.234566e-06 6.752923e-06 -1.031130e-06
-1.404158e-05 2.300076e-07 7.213027e-07
1.009733e-05 2.302698e-06 -1.642916e-06
-8.386780e-07 1.125512e-05 -2.170983e-06
6.686512e-06 1.232653e-05 7.785660e-07
-1.022206e-05 7.495700e-06 2.121430e-06
-6.766224e-06 -9.024441e-06 2.168968e-06
3.304667e-06 -1.363498e-05 7.608009e-07
1.366667e-05 -3.259337e-06 -7.017793e-07
1.334570e-05 -2.278429e-06 -1.557077e-06
7.685524e-06 -1.174211e-05 7.496555e-07
1.064454e-06 9.663753e-06 -5.768995e-07
-1.360503e-06 1.393961e-05 8.245007e-07
4.132309e-06 9.851847e-06 -1.898468e-06
1.391935e-05 1.802782e-06 7.441815e-07
7.832330e-06 8.433966e-06 2.222520e-06
5.957159e-06 9.852371e-06 2.223132e-06
1.298618e-05 -3.707725e-06 1.591683e-06
-1.281941e-06 1.401665e-05 -6.194671e-07
-1.020155e-05 3.218754e-06 -1.907339e-06
2.171975e-07 1.291695e-05 -2.016591e-06
9.970366e-06 -6.585034e-06 2.256855e-06
1.182600e-05 5.478050e-06 -1.954867e-06
9.178237e-06 -3.364590e-06 -7.500840e-07
3.563528e-06 1.145735e-05 -2.255319e-06
-3.626809e-06 -9.794969e-06 1.721841e-06
-3.294328e-06 -1.304371e-05 1.642152e-06
-7.656348e-07 -1.354120e-05 -1.531460e-06
9.521407e-06 5.368556e-06 -2.036386e-06
9.700088e-06 -2.951167e-06 -1.406620e-06
4.945946e-06 1.199089e-05 1.989525e-06
1.197756e-05 1.498810e-06 -2.251141e-06
-3.194896e-06 1.369946e-05 6.470830e-07
5.053698e-06 -8.296106e-06 -5.456467e-07
1.313517e-05 2.956933e-06 -1.632092e-06
-1.109308e-05 -1.803417e-06 -2.156858e-06
5.547335e-06 -8.358968e-06 1.260870e-06
1.308281e-05 3.995528e-06 1.394768e-06
-2.192607e-06 -1.306869e-05 -1.811462e-06
7.677312e-06 -8.265398e-06 2.169422e-06
6.380006e-06 -1.020538e-05 -2.253481e-06
-1.189891e-05 2.536546e-07 -2.257285e-06
-8.696057e-06 4.183329e-06 1.107808e-07
1.068198e-05 5.305647e-06 2.257174e-06
5.085701e-06 8.258056e-06 4.780863e-07
-5.244493e-06 -1.253594e-05 -1.502888e-06
-8.838384e-06 -4.623026e-06 1.170518e-06
1.330737e-05 1.713770e-06 -1.675393e-06
-2.587461e-07 1.037413e-05 -1.662257e-06
1.087305e-05 -5.478799e-06 2.240974e-06
-1.100322e-05 -8.026960e-06 1.467197e-06
1.053539e-05 7.041004e-07 1.812355e-06
1.079914e-05 8.957591e-06 -7.581632e-07
1.300370e-05 -3.672254e-06 -1.584449e-06
-1.330441e-05 2.875790e-06 1.476820e-06
1.238139e-05 -4.038764e-06 -1.960438e-06
5.653524e-06 -1.207914e-05 -1.744757e-06
1.065841e-05 3.672250e-06 -2.167231e-06
-1.935455e-06 1.320113e-05 -1.740189e-06
-1.115155e-05 -7.326235e-06 -1.739728e-06
9.665610e-06 -9.613116e-06 -1.452784e-06
-5.859438e-06 1.216863e-05 -1.590923e-06
-9.531453e-07 1.162589e-05 2.244532e-06
1.346369e-05 7.412764e-07 1.612561e-06
-2.518271e-06 1.335849e-05 1.497247e-06
9.395703e-06 4.043536e-06 -1.512439e-06
1.010189e-05 9.925153e-06 -5.528757e-22
1.237952e-05 -4.124928e-06 1.945839e-06
-7.064653e-06 -1.070193e-05 -2.061780e-06
-9.907084e-06 -9.959767e-06 7.075998e-07
8.354297e-06 1.130929e-05 -6.690288e-07
-4.163720e-06 -1.345828e-05 -5.738492e-07
5.185316e-06 -1.077910e-05 -2.256568e-06
8.754830e-06 5.449773e-06 -1.600224e-06
-1.241063e-05 -5.096454e-06 1.676249e-06
-8.888253e-06 -6.649038e-06 2.109061e-06
-1.221883e-05 6.124111e-06 -1.409521e-06
8.679247e-06 4.224556e-06 -1.581347e-07
1.236896e-05 4.078516e-06 1.960109e-06
5.871088e-07 9.898891e-06 -1.068766e-06
-1.085055e-06 1.003302e-05 -1.344757e-06
-1.353103e-05 3.925950e-06 5.684014e-07
9.896764e-06 1.778737e-06 1.294551e-06
-1.373317e-05 3.075732e-06 -6.256134e-07
-3.356555e-06 -1.122273e-05 -2.249226e-06
1.284823e-05 4.085956e-06 -1.614316e-06
[...]
POINT_DATA 1392
VECTORS 10.000GHz_fone_imag double
1.751225e-03 -5.033513e-04 2.628486e-02
4.640451e-04 8.729772e-04 2.763560e-02
4.828263e-02 2.363996e-04 -6.437328e-03
-2.571622e-02 4.124824e-02 -3.636103e-02
4.207005e-03 -7.051484e-03 2.463957e-02
-9.612618e-03 -2.671776e-03 2.444041e-02
3.838935e-02 1.566718e-02 6.522103e-03
-1.379520e-02 -4.481719e-02 -5.439762e-02
-2.520744e-02 -3.398498e-02 -6.383341e-02
-6.013310e-03 7.429236e-04 -7.820983e-02
3.902292e-02 1.713838e-02 5.653579e-03
-1.051500e-02 2.440052e-02 1.830981e-02
3.371487e-02 7.622449e-03 1.070804e-02
3.757029e-02 -1.660449e-03 9.024214e-03
-2.942027e-03 -4.186484e-02 2.802315e-03
-2.266332e-02 1.084800e-04 1.937621e-02
9.726939e-03 2.606061e-03 2.361164e-02
9.439787e-04 -5.686955e-03 -8.210302e-02
4.341747e-02 4.293035e-03 6.045764e-03
1.809967e-02 -9.210219e-03 -8.263603e-02
-6.473210e-03 -2.384852e-02 1.952763e-02
2.801416e-02 1.498474e-02 1.710873e-02
-4.360049e-04 -7.733124e-03 2.617020e-02
-8.165871e-03 6.768104e-04 2.444206e-02
2.638105e-02 8.202328e-04 2.102261e-02
1.352228e-02 -4.061868e-02 7.739418e-03
-9.407710e-03 -3.017647e-03 2.557940e-02
4.865519e-03 -3.920142e-02 -6.542467e-02
-2.739448e-02 1.041882e-02 2.013920e-02
1.426247e-03 7.963097e-03 2.404126e-02
-7.208478e-03 4.397399e-03 2.384974e-02
7.279227e-03 -4.060655e-02 3.910815e-03
1.481099e-03 2.505318e-02 2.069663e-02
1.637914e-02 1.721701e-02 1.996950e-02
-2.553645e-02 -7.628002e-03 1.788767e-02
1.108947e-02 1.818976e-04 2.447730e-02
3.407132e-02 3.875326e-02 -1.824746e-02
-4.354082e-02 -2.633177e-02 -9.492243e-03
3.733614e-02 3.595070e-02 -1.181978e-02
4.247478e-02 3.117405e-02 -1.242275e-02
5.614641e-03 1.463356e-02 -7.722379e-02
2.254654e-03 -2.651146e-02 1.730466e-02
-3.618371e-02 4.184492e-02 -1.739440e-02
5.034337e-03 -9.190051e-03 2.410798e-02
2.056029e-02 -4.856435e-02 -1.435145e-02
1.014013e-02 5.499902e-03 -8.608181e-02
2.262931e-03 3.934490e-04 -8.167676e-02
-2.905022e-04 -5.119788e-02 -4.633065e-02
2.448801e-02 -3.091631e-02 1.072213e-02
-2.383355e-02 3.720604e-02 -8.477233e-04
3.440219e-02 -4.101410e-02 -3.389027e-02
-1.832762e-03 1.370808e-02 -8.026482e-02
-4.410272e-02 -1.309439e-02 -6.033040e-03
-3.267631e-02 -1.446038e-02 -6.952472e-02
-2.985395e-02 3.526503e-02 -4.925630e-02
-3.544282e-02 -5.375259e-03 1.391900e-02
1.960250e-03 3.001157e-02 -7.350703e-02
-6.002453e-04 1.857406e-03 -8.193091e-02
-3.128326e-02 -2.999877e-02 -5.700315e-02
-1.940544e-02 -4.757951e-02 -1.199967e-02
3.171400e-02 -3.137326e-02 6.478556e-03
2.214780e-02 -8.428639e-04 -8.306868e-02
-6.518255e-03 -5.454475e-03 2.597499e-02
2.223371e-03 6.981148e-03 -8.490393e-02
-8.816116e-03 1.087008e-03 2.619222e-02
5.027389e-03 9.394967e-03 2.536352e-02
-2.028788e-02 1.301815e-02 1.906246e-02
6.622746e-04 2.061119e-04 -8.867426e-02
1.902334e-02 -4.849769e-02 -5.005929e-02
-4.713541e-03 8.536260e-03 2.360875e-02
-6.870513e-03 -6.821996e-03 2.374113e-02
-1.623152e-02 -4.043600e-02 6.645864e-03
-9.046581e-03 3.933153e-03 2.598283e-02
-7.657544e-03 -2.779742e-02 1.834074e-02
-1.294526e-03 2.281445e-02 1.945143e-02
-8.272120e-03 -4.173162e-03 2.603288e-02
4.701691e-02 2.120003e-02 -3.053615e-02
-2.334812e-02 5.005661e-02 -2.035078e-02
1.037892e-02 -4.761850e-02 -5.266418e-02
3.306058e-02 3.914520e-02 -2.101778e-02
9.176554e-03 -4.972838e-03 2.651506e-02
1.022277e-02 1.042470e-03 -8.834644e-02
6.306923e-03 -5.401370e-02 -2.008730e-02
1.944533e-02 1.966322e-02 1.746141e-02
6.628239e-04 -3.970155e-02 4.876575e-03
4.276485e-02 1.872667e-02 -5.864424e-02
-2.911881e-02 1.434360e-02 1.307820e-02
-3.853186e-02 3.115327e-02 -2.831377e-02
5.653534e-04 -7.078667e-03 2.443919e-02
1.572036e-02 3.530036e-02 4.892154e-03
-5.033806e-03 -8.914875e-03 2.495862e-02
1.123782e-02 -2.246889e-02 2.164114e-02
3.204832e-02 -3.615199e-02 -1.624979e-02
-1.419519e-02 -2.686184e-02 -7.857666e-02
-6.463897e-03 -5.228617e-02 -3.743854e-02
7.461171e-03 3.009813e-03 -8.258168e-02
-2.166912e-02 -4.055673e-02 -4.086526e-02
-1.216295e-02 2.374979e-02 1.789750e-02
-3.469758e-02 1.793361e-02 7.273940e-03
8.740646e-03 -2.356997e-02 1.820496e-02
-1.842081e-02 1.882003e-02 1.993235e-02
-1.650757e-02 -8.199445e-03 -8.492266e-02
4.126297e-02 1.165072e-02 4.225309e-03
-7.726780e-03 5.642648e-03 2.631494e-02
-5.535430e-03 -7.471575e-03 2.379148e-02
2.439637e-02 1.430176e-02 1.772691e-02
5.200238e-02 4.100505e-03 -4.734239e-02
5.321770e-03 -6.554172e-03 2.701610e-02
-3.125871e-02 2.740796e-02 5.650075e-03
-4.881428e-02 -1.343194e-02 -2.288408e-02
7.567807e-03 7.111785e-04 2.348575e-02
1.440966e-02 5.392553e-02 -3.285242e-02
-2.370938e-04 -8.459480e-05 2.737885e-02
-4.061822e-03 -6.898553e-03 -7.707714e-02
1.202491e-02 5.191362e-02 -3.805371e-02
-6.321390e-03 7.053096e-03 2.521590e-02
2.189533e-02 1.690560e-03 2.269359e-02
1.474401e-03 -2.254476e-02 2.253821e-02
3.738087e-02 -2.139255e-02 5.984701e-03
3.822959e-03 3.007969e-03 -8.821911e-02
-1.098688e-02 8.305026e-03 -8.626908e-02
4.106203e-03 5.756417e-03 2.656946e-02
1.298539e-02 -2.040936e-02 2.179202e-02
2.207157e-02 3.072801e-02 6.084474e-03
3.712451e-02 -2.533415e-02 1.680938e-03
4.416194e-02 -2.747223e-02 -1.211046e-02
-3.836073e-02 1.360873e-02 1.369874e-03
-2.497513e-03 -8.240868e-03 2.592969e-02
-1.668186e-04 8.792756e-03 2.384322e-02
-3.061029e-02 -4.195196e-02 -4.559591e-02
4.505505e-02 -3.115627e-02 -2.787867e-02
3.366738e-02 2.809948e-02 -2.577098e-03
3.159197e-02 3.343611e-02 -6.390132e-02
8.172970e-03 -2.132770e-02 -7.828394e-02
2.652393e-02 4.029219e-02 -1.132766e-02
-4.417231e-02 2.790101e-02 -1.995799e-02
1.433338e-02 -1.704276e-02 2.063782e-02
8.519153e-03 3.464416e-04 2.450814e-02
-8.836537e-03 1.997014e-03 2.570610e-02
1.873932e-02 -2.221114e-02 1.807364e-02
3.219070e-02 3.164342e-02 -3.150133e-04
3.725367e-02 -5.915989e-03 -7.171057e-02
-5.093436e-03 2.772225e-04 -8.232664e-02
-2.384342e-02 3.873970e-03 2.177490e-02
1.350509e-02 -2.913684e-02 -6.728524e-02
5.259294e-02 1.237417e-02 -2.496629e-02
-4.420786e-02 -2.657845e-02 -1.377498e-02
-2.828491e-03 -6.524937e-03 2.451825e-02
-1.283595e-02 -4.817796e-03 -8.154416e-02
1.951655e-02 3.755314e-02 4.420880e-03
-5.561063e-04 -8.591760e-03 -8.718089e-02
7.228261e-03 -1.928516e-02 2.262185e-02
3.460051e-03 -2.432125e-02 2.233727e-02
2.093827e-02 2.697600e-02 -6.505787e-02
-9.845555e-03 -4.965579e-04 2.646001e-02
2.300933e-03 7.971689e-03 2.594979e-02
-6.944489e-03 -1.603727e-03 2.484329e-02
-2.757437e-02 2.599577e-02 -6.607967e-02
8.762334e-03 -2.941621e-04 2.488940e-02
5.071681e-02 1.145455e-02 -5.516984e-02
-3.316147e-03 5.486175e-02 -1.764149e-02
-4.211737e-03 -8.849780e-03 2.341979e-02
3.080396e-02 -2.403552e-02 1.036033e-02
3.205538e-02 4.445500e-02 -1.809131e-02
-1.150012e-03 7.673186e-03 2.615342e-02
8.244153e-03 -1.977504e-03 2.675482e-02
2.204056e-02 -3.990818e-03 1.944234e-02
-5.726652e-03 7.036305e-03 2.619375e-02
6.887010e-03 2.100370e-02 -8.290851e-02
8.800604e-04 -1.088909e-02 2.628636e-02
2.134624e-02 5.020429e-02 -3.756725e-02
-1.034441e-02 -8.766143e-04 2.594185e-02
-3.572941e-02 -3.916391e-02 -1.047498e-02
-2.698719e-02 -4.475720e-02 -1.097613e-02
-2.199771e-02 7.720453e-03 2.200527e-02
-5.024951e-04 6.973077e-03 2.349969e-02
-4.984695e-02 1.493517e-02 -3.049530e-02
7.333406e-04 3.259981e-02 1.342077e-02
-3.952010e-02 2.506278e-02 -4.837497e-03
2.787012e-02 1.247785e-02 1.246913e-02
2.267890e-02 -1.259371e-02 -7.860889e-02
1.326961e-02 4.091729e-02 -1.435248e-03
1.533354e-02 4.440342e-02 -4.736365e-02
6.177108e-03 2.309611e-02 1.998681e-02
-1.380254e-03 -2.266104e-02 2.208873e-02
4.874646e-02 2.784083e-02 -3.144883e-02
4.392812e-02 -1.324201e-02 -6.335313e-02
-1.292943e-02 -3.153339e-02 1.473821e-02
4.517067e-02 6.373835e-03 7.142558e-04
1.914460e-03 -8.486168e-03 2.602189e-02
3.865513e-03 -1.041492e-02 -7.642859e-02
2.303503e-02 5.966803e-03 2.199154e-02
-5.127859e-02 -7.917939e-03 -1.511820e-02
-2.255311e-02 3.649885e-02 -6.694587e-02
-1.974163e-02 -6.239037e-03 2.251337e-02
-3.649929e-03 -2.538743e-02 1.727075e-02
-3.341437e-02 3.599434e-02 -1.898922e-02
2.563329e-02 -4.027604e-02 -1.968520e-04
-4.806344e-02 3.576236e-03 -3.241303e-03
4.220555e-03 3.595828e-04 -8.646318e-02
-4.344938e-02 -2.085023e-02 -2.474561e-03
-9.443477e-03 -1.438902e-02 -8.553931e-02
-8.770943e-03 -1.987293e-02 2.156378e-02
3.322370e-02 1.899355e-02 -6.168253e-02
2.294759e-02 3.178050e-03 2.046858e-02
-5.123357e-04 4.745320e-02 -4.515506e-02
-4.161658e-02 2.064126e-02 3.838006e-03
1.753442e-02 1.210954e-02 2.322782e-02
-5.410521e-02 -4.334757e-03 -4.368377e-02
7.802719e-03 6.746095e-03 2.525352e-02
1.998965e-02 -6.829800e-03 2.048797e-02
1.970459e-02 -4.846555e-03 2.055925e-02
3.054843e-02 -9.740062e-03 1.707001e-02
1.124071e-02 -2.508347e-02 1.991854e-02
4.863816e-02 1.764591e-02 -2.104663e-02
-4.181492e-03 2.694813e-02 1.962753e-02
-2.202669e-02 -1.448095e-02 2.013335e-02
1.447749e-02 -1.476073e-02 2.241585e-02
-9.730485e-03 2.075785e-02 2.262900e-02
2.799924e-03 -5.180879e-02 -1.038040e-02
-2.158138e-02 -2.119115e-03 2.142054e-02
4.027148e-03 -2.101091e-02 2.296072e-02
4.463257e-02 1.872665e-02 -5.762235e-02
-2.367295e-04 -7.972723e-04 2.736897e-02
-3.124883e-02 1.132945e-02 1.719620e-02
-1.903797e-02 -2.848919e-02 1.400962e-02
5.336785e-03 6.161062e-03 2.493200e-02
5.931213e-03 7.644040e-03 2.395873e-02
-1.604058e-03 -6.756546e-03 2.657612e-02
2.038735e-02 -4.126595e-02 -1.972165e-03
3.563762e-02 2.294544e-02 -4.914103e-02
2.243254e-02 9.200778e-03 2.025004e-02
4.527812e-02 3.332919e-02 -2.411449e-02
-1.780068e-02 8.521368e-03 2.346988e-02
4.567771e-03 1.512521e-03 -8.612843e-02
-2.762940e-02 -1.028331e-02 1.564444e-02
2.967523e-03 3.811798e-02 -7.296339e-02
-4.949855e-03 4.530434e-02 -6.302635e-02
8.708721e-03 -2.711415e-03 2.624185e-02
-4.105387e-02 -1.101800e-02 -6.531436e-02
-8.429182e-03 2.425847e-03 2.642134e-02
-1.515222e-02 -4.720469e-02 -9.825077e-03
2.242221e-02 5.715094e-03 1.891309e-02
-9.288980e-03 2.388482e-02 2.154626e-02
-7.402624e-03 -5.508661e-03 2.400749e-02
-1.023218e-02 -2.277086e-02 -8.284309e-02
-4.629253e-02 1.391134e-02 -5.715465e-02
-1.046939e-03 4.077262e-03 -8.047549e-02
-4.061249e-02 -3.595729e-02 -3.690412e-02
-4.015769e-02 -2.937129e-02 -4.317864e-02
-2.750150e-02 3.194357e-02 5.769798e-03
3.220433e-02 4.191808e-02 -1.249324e-02
-2.458334e-02 2.156852e-03 -7.749264e-02
3.057809e-02 -3.625207e-02 -4.270984e-03
4.625418e-03 -4.459450e-03 2.613866e-02
4.997845e-02 1.620094e-02 -4.906371e-02
-1.330619e-03 -2.135461e-02 2.248278e-02
3.251778e-02 3.739675e-02 -3.586340e-02
4.984627e-02 2.666213e-04 -1.235057e-02
3.494238e-02 -1.607827e-03 -6.781007e-02
-2.847145e-02 2.531268e-04 -7.007499e-02
-4.011545e-02 3.698871e-02 -2.279086e-02
1.818416e-02 -1.006162e-02 1.874561e-02
4.606817e-03 -5.260406e-03 2.557400e-02
-3.868031e-02 3.164843e-02 -5.639566e-02
7.413003e-03 1.137524e-03 2.561659e-02
-2.638236e-02 4.011756e-02 -2.125445e-03
1.806872e-02 -3.465900e-03 -8.133331e-02
-2.120222e-02 4.754524e-02 -4.849227e-02
-3.022032e-02 -1.598326e-02 -6.616367e-02
-2.497959e-03 2.246853e-02 -8.062797e-02
-3.729522e-03 8.156775e-03 2.671699e-02
-8.707851e-04 -7.815656e-03 2.638259e-02
-3.725850e-02 -2.837212e-02 -6.131157e-02
2.192726e-04 -7.587220e-03 -8.087111e-02
1.549617e-02 1.327666e-02 2.224256e-02
-8.682426e-04 -2.107627e-02 -8.383635e-02
6.211053e-03 -4.926376e-02 -2.809129e-02
3.404088e-02 -3.022269e-02 2.761792e-03
3.576812e-03 -7.000463e-04 -8.355505e-02
-9.057201e-03 -6.713610e-05 2.644805e-02
-2.087904e-02 -3.000398e-02 1.284557e-02
-4.854877e-03 6.636071e-03 -9.010219e-02
-2.041422e-02 -1.121533e-02 2.135615e-02
-7.573397e-03 1.673807e-03 -8.066418e-02
2.102539e-02 8.973698e-03 2.233272e-02
-3.718497e-02 -1.316907e-02 1.080918e-02
-2.247039e-02 -1.097504e-02 -7.492215e-02
-4.745945e-02 2.149561e-02 -1.154084e-02
3.992531e-02 3.658020e-02 -2.399110e-02
-5.865095e-03 -2.171135e-03 -8.338914e-02
5.033916e-03 3.870491e-02 6.375737e-03
-3.202992e-02 -4.161382e-02 -3.975310e-02
5.021338e-02 9.007500e-03 -6.446199e-03
6.641981e-03 5.570390e-03 2.577321e-02
4.145595e-02 -1.218465e-02 6.208949e-03
3.096517e-03 -6.046927e-03 2.390142e-02
-6.378827e-03 4.924272e-02 -6.324722e-03
2.663951e-02 4.745985e-02 -4.111919e-02
3.915830e-03 9.576119e-03 2.365426e-02
6.962086e-03 -2.694488e-03 2.648367e-02
-4.131944e-03 5.310401e-02 -4.684988e-02
6.348240e-03 -1.736219e-03 2.550772e-02
-9.559355e-03 -1.727285e-02 2.173761e-02
7.065138e-03 -3.991393e-03 2.625916e-02
-2.002760e-03 -8.110627e-03 2.527505e-02
7.169656e-03 5.029995e-02 -1.494845e-02
-1.812527e-02 1.594476e-02 2.187898e-02
-8.236999e-03 2.210857e-02 2.062713e-02
-5.972256e-03 1.891707e-02 -8.304378e-02
-5.103221e-02 7.072820e-03 -5.326440e-02
1.511765e-02 -1.606667e-02 2.192432e-02
1.972257e-02 5.122633e-02 -2.781653e-02
2.268148e-03 -3.766012e-02 -6.639163e-02
-6.652503e-03 -4.108395e-02 -6.198025e-02
1.714245e-02 -1.547030e-02 2.230693e-02
-6.931766e-03 -1.344315e-02 -7.734354e-02
6.089500e-03 -1.051169e-03 2.559290e-02
1.933771e-02 -1.688208e-04 2.398914e-02
-1.142254e-02 3.253575e-02 -6.420992e-02
4.443577e-02 -1.493444e-02 -1.085505e-02
2.460447e-02 2.938041e-02 1.264518e-02
4.970856e-02 -9.494882e-03 -5.014015e-02
4.611067e-02 9.293808e-03 -6.013824e-03
9.726627e-03 3.470195e-03 2.445143e-02
1.292142e-02 1.743238e-02 1.999815e-02
7.210077e-03 2.245184e-03 2.561481e-02
4.003916e-02 1.590094e-02 3.993692e-03
-5.084093e-02 -1.257342e-02 -2.936532e-02
-5.277183e-03 5.593610e-03 2.573138e-02
1.371755e-02 -1.798079e-02 2.200575e-02
9.410432e-03 4.708736e-02 -9.707817e-03
5.394322e-02 3.530906e-04 -2.969036e-02
-7.848271e-03 -4.618789e-02 -5.932184e-03
4.686447e-04 4.428298e-04 2.730056e-02
4.442414e-02 2.911478e-02 -1.720466e-02
-1.189975e-02 1.462078e-02 2.136533e-02
-2.752575e-02 -2.529278e-02 7.219553e-03
-1.041268e-02 3.161476e-02 -6.903505e-02
1.717635e-02 4.701838e-02 -5.864960e-03
-1.971437e-02 -8.113021e-03 2.268715e-02
-1.015299e-02 4.573419e-02 -2.254878e-04
1.075862e-02 2.870006e-02 -6.661136e-02
2.778057e-02 -2.280557e-02 9.776341e-03
-2.189567e-02 3.866936e-02 -6.426887e-02
8.623171e-04 7.131534e-03 2.448848e-02
-3.465442e-02 -3.293454e-02 -1.415754e-02
4.255894e-02 1.425519e-02 4.351553e-03
-1.488950e-02 -1.875950e-02 -7.453545e-02
6.630322e-03 3.383565e-03 2.543859e-02
1.287623e-02 3.435270e-02 6.582931e-03
-1.299660e-02 3.946003e-02 8.451453e-03
-9.783883e-03 -1.686164e-02 -8.541940e-02
-4.303348e-02 -4.828772e-03 6.186563e-03
1.488244e-02 2.141011e-02 1.816030e-02
-2.348009e-02 3.010593e-02 9.329368e-03
2.145008e-03 -9.082528e-03 2.603564e-02
1.153849e-03 -5.628701e-02 -2.528886e-02
3.539371e-02 -2.245040e-03 1.226847e-02
-2.130120e-02 -4.165732e-03 2.264368e-02
2.221703e-02 1.256933e-02 -8.110445e-02
-1.843944e-03 -5.169416e-04 -8.646716e-02
5.839373e-03 3.353812e-02 1.330947e-02
-1.621227e-02 -4.733656e-02 -5.482930e-02
-1.600143e-02 -1.533200e-02 2.211411e-02
2.326120e-02 2.282539e-02 -7.055355e-02
-4.780433e-02 -6.031024e-03 -1.431057e-02
1.936249e-02 -9.197528e-03 1.979770e-02
5.328606e-02 1.303077e-02 -1.224351e-02
4.495457e-02 -1.868228e-02 -2.814776e-03
-6.391727e-03 4.389497e-02 4.472510e-03
2.379081e-02 4.312471e-02 -5.729660e-02
3.111356e-02 -3.838747e-02 -9.674024e-03
1.150403e-03 7.747055e-03 2.625884e-02
1.579926e-02 -3.659842e-02 -6.982193e-02
3.307690e-02 -3.899759e-02 -5.211445e-02
-2.560319e-02 -6.138041e-03 1.709525e-02
-7.779419e-03 1.675552e-04 2.631243e-02
2.951794e-03 -1.802622e-03 -8.581375e-02
5.097109e-02 -4.861239e-03 -1.019348e-02
2.981928e-02 -3.724358e-02 -1.832555e-03
-1.741093e-02 1.265148e-02 1.985193e-02
-2.619311e-02 1.786694e-02 -6.966029e-02
-3.241386e-02 -2.659906e-02 -6.844626e-02
-1.334596e-02 1.322798e-02 -8.428922e-02
-9.185704e-03 -4.909490e-02 -5.658185e-03
1.368951e-02 1.452771e-02 2.222987e-02
4.009827e-02 2.654200e-03 8.493880e-03
-1.105327e-02 1.914708e-02 2.058579e-02
2.542871e-03 8.227487e-03 2.545180e-02
-3.206187e-02 4.084964e-02 -1.325716e-02
-1.069437e-02 -1.312430e-02 2.173023e-02
-7.102301e-03 -1.832598e-03 2.647301e-02
-5.026022e-02 -1.787240e-02 -1.543205e-02
-4.910870e-03 -5.347250e-03 2.695033e-02
-1.998903e-02 5.130437e-02 -2.742909e-02
-3.214408e-02 -2.306465e-02 8.541696e-03
-1.382083e-02 -4.978736e-02 -2.732879e-02
2.985217e-02 1.861695e-02 1.428357e-02
4.429298e-02 -2.305326e-02 -4.540783e-04
-3.855802e-03 3.423604e-02 9.576669e-03
-1.736440e-02 4.454039e-02 -8.109970e-03
-4.617066e-03 -3.140673e-03 2.430552e-02
-1.832726e-02 -3.474892e-02 -6.928252e-02
-7.294157e-03 -4.135459e-04 2.675503e-02
-4.360472e-04 -1.969890e-02 2.189527e-02
2.126349e-02 -1.462529e-02 -8.182307e-02
-3.914200e-02 -3.925631e-02 -2.769335e-02
1.232372e-03 1.152668e-03 -7.836427e-02
-3.777902e-03 5.825504e-03 2.665717e-02
-3.140185e-02 9.187681e-03 1.667827e-02
3.388214e-02 -2.174248e-02 -7.103300e-02
4.789444e-02 -1.777448e-02 -1.069702e-02
-8.215093e-05 5.482005e-02 -2.416597e-02
3.727854e-03 5.330907e-03 2.402326e-02
1.295643e-02 1.992643e-03 -8.563307e-02
3.946630e-02 2.538820e-02 -4.224882e-03
-1.817367e-02 -2.373275e-02 1.842352e-02
-1.527427e-02 4.438977e-02 -9.512774e-03
-1.559997e-02 -3.645113e-02 5.192096e-03
9.334046e-03 -2.519013e-03 2.598953e-02
-5.890233e-03 3.186405e-03 2.599230e-02
-1.726191e-02 9.347020e-04 2.165587e-02
3.849387e-02 -2.807613e-02 -7.457819e-03
-5.517791e-02 -6.801847e-03 -2.939381e-02
-3.448440e-03 -6.756905e-04 -8.131191e-02
-7.666740e-04 5.049577e-03 2.397461e-02
-2.243293e-02 -4.446719e-02 -7.001625e-03
4.126757e-02 -2.091365e-02 -6.472384e-02
-5.399823e-03 -3.998196e-03 2.476698e-02
4.903143e-02 2.137870e-02 -1.385828e-02
-1.934800e-02 3.792003e-02 3.893711e-03
-1.066888e-02 -5.222838e-02 -2.542281e-02
7.379403e-03 2.086656e-03 2.409486e-02
2.887947e-02 -4.198869e-02 -8.424034e-03
-3.796912e-02 -1.291114e-02 9.720332e-03
-2.350118e-02 -3.260344e-02 1.093380e-02
2.001133e-02 4.327503e-02 -5.996372e-02
-9.161680e-04 5.719487e-04 2.699289e-02
1.473267e-02 -4.565211e-02 -1.297684e-02
-4.015104e-04 -5.290497e-02 -1.151067e-02
-1.292515e-02 -4.943914e-02 -9.433132e-03
-2.756002e-02 -4.714246e-02 -1.634743e-02
-8.605217e-03 -4.904978e-02 -1.585882e-02
1.255112e-02 -8.873379e-03 -8.007312e-02
-4.275822e-03 -1.869697e-03 -7.948702e-02
-4.657125e-02 -1.084298e-02 -1.209288e-02
-5.466964e-02 5.046803e-03 -1.720229e-02
-3.825161e-02 -2.025224e-02 3.615087e-04
-6.179112e-05 -4.394387e-04 2.769453e-02
2.051496e-02 4.310061e-02 -3.909951e-03
3.567038e-02 -4.286263e-02 -2.626376e-02
-3.601021e-02 -2.102811e-02 3.034255e-03
-2.720369e-02 -3.383985e-02 -3.009022e-04
3.773049e-02 -2.115990e-02 6.133288e-03
-3.740985e-02 1.977982e-02 7.711953e-03
-4.081079e-02 2.409864e-02 -1.333435e-04
-2.871127e-02 3.661822e-02 2.414032e-03
-1.067225e-02 4.549780e-02 2.036415e-03
6.426039e-03 4.186407e-02 7.079813e-03
5.065285e-05 -3.124899e-04 2.747397e-02
2.594562e-04 4.166436e-02 4.635982e-03
4.620083e-02 3.095020e-02 -3.379652e-02
-2.211374e-02 -3.626726e-02 4.022478e-03
8.926005e-03 3.965941e-02 8.706747e-03
-4.028571e-02 1.018511e-02 7.533901e-03
2.045143e-02 -1.106914e-02 -7.965839e-02
-5.075893e-02 -1.094995e-02 -4.233558e-02
2.511233e-02 -7.887140e-03 -8.099795e-02
1.499870e-02 -2.636960e-02 -7.945491e-02
5.102613e-02 -1.148786e-02 -4.911507e-02
-8.712288e-05 -8.745023e-05 2.505258e-02
-4.942422e-02 1.114212e-02 -5.487460e-02
-1.102110e-02 2.541008e-02 -7.451987e-02
-3.239135e-03 -7.090692e-03 -8.509761e-02
2.337024e-02 2.995028e-03 -8.303686e-02
2.041013e-02 -3.403442e-02 7.755512e-03
-6.231980e-03 3.731209e-02 1.136778e-02
1.299348e-02 3.926901e-02 -6.894571e-02
7.006806e-03 7.863799e-03 -8.808185e-02
-2.316518e-04 -1.358898e-02 -8.546383e-02
-3.396526e-02 3.766363e-03 1.556886e-02
-3.075418e-04 -6.752730e-06 2.692671e-02
1.908556e-02 3.170590e-02 1.157981e-02
9.838099e-03 -3.399492e-02 1.199421e-02
3.144180e-02 1.276934e-02 1.223583e-02
1.525961e-02 -3.071133e-02 1.034856e-02
2.928424e-02 -4.952848e-03 1.624408e-02
2.690265e-02 2.581611e-02 1.335591e-02
4.921136e-02 1.856653e-02 -3.187134e-02
-2.339667e-02 2.086917e-02 1.269934e-02
-1.810367e-02 -2.772065e-03 2.082764e-02