# vtk DataFile Version 2.0
Electric current density generated by TTH
ASCII
DATASET UNSTRUCTURED_GRID
POINTS 1617 double
1.764925e-05 -4.322819e-21 -4.962589e-22
1.540804e-05 8.607448e-06 -4.962589e-22
1.373174e-05 -1.108761e-05 -4.962589e-22
-4.458306e-07 1.632648e-05 -1.897863e-06
-1.374146e-05 -4.659571e-07 7.708575e-07
1.658667e-05 -2.129749e-06 1.701705e-06
1.658667e-05 2.129749e-06 1.701705e-06
-7.227861e-06 -1.590078e-05 -8.410267e-07
-7.227861e-06 1.590078e-05 -8.410267e-07
2.907757e-06 1.355884e-05 1.010797e-06
2.907757e-06 -1.355884e-05 1.010797e-06
1.468225e-05 -7.294851e-06 -1.873499e-06
1.468225e-05 7.294851e-06 -1.873499e-06
1.433703e-05 -1.029298e-05 -4.962589e-22
9.442846e-06 1.047328e-05 1.338058e-06
9.442846e-06 -1.047328e-05 1.338058e-06
5.015262e-06 -1.674821e-05 8.037617e-07
5.015262e-06 1.674821e-05 8.037617e-07
-1.179884e-05 -6.784413e-06 2.320746e-07
-1.179884e-05 6.784413e-06 2.320746e-07
-1.395724e-05 -4.270406e-06 1.746448e-06
1.137519e-05 -1.326618e-05 -8.213322e-07
1.137519e-05 1.326618e-05 -8.213322e-07
5.562944e-06 1.311102e-05 -1.482823e-06
1.489640e-05 -9.465373e-06 -4.962589e-22
5.562944e-06 -1.311102e-05 -1.482823e-06
-1.720372e-05 3.015552e-06 -8.419812e-07
-1.721406e-05 -2.992308e-06 -8.283003e-07
-9.062666e-06 -1.107963e-05 1.546411e-06
-9.062666e-06 1.107963e-05 1.546411e-06
-1.429586e-05 -5.060624e-06 1.973693e-06
-1.646696e-05 -8.185310e-07 -1.832594e-06
-4.990863e-06 1.266760e-05 -2.719431e-07
-4.990863e-06 -1.266760e-05 -2.719431e-07
1.212568e-05 1.263643e-05 7.299769e-07
1.540804e-05 -8.607448e-06 -4.962589e-22
1.212568e-05 -1.263643e-05 7.299769e-07
-1.306935e-05 -1.159242e-05 8.337565e-07
-1.306935e-05 1.159242e-05 8.337565e-07
1.396185e-05 -1.054574e-05 -7.704925e-07
1.396185e-05 1.054574e-05 -7.704925e-07
-1.374416e-05 -1.945767e-06 -1.034867e-06
-1.058616e-05 1.391039e-05 -8.096641e-07
-1.058616e-05 -1.391039e-05 -8.096641e-07
1.423707e-05 -8.061758e-06 -1.886946e-06
1.423707e-05 8.061758e-06 -1.886946e-06
1.587033e-05 -7.721951e-06 -4.962589e-22
1.083891e-05 9.333737e-06 -1.537789e-06
1.083891e-05 -9.333737e-06 -1.537789e-06
-1.189215e-05 7.733125e-06 1.427605e-06
-1.189215e-05 -7.733125e-06 1.427605e-06
5.016265e-06 1.675506e-05 -7.877223e-07
5.016265e-06 -1.675506e-05 -7.877223e-07
-1.480469e-05 1.290226e-06 1.877255e-06
7.157351e-06 1.286872e-05 1.816304e-06
7.157351e-06 -1.286872e-05 1.816304e-06
1.701698e-07 1.479650e-05 1.850277e-06
1.628178e-05 -6.811719e-06 -4.962589e-22
1.701698e-07 -1.479650e-05 1.850277e-06
-2.798382e-06 1.513349e-05 -2.012680e-06
-2.798382e-06 -1.513349e-05 -2.012680e-06
-1.079914e-05 8.498123e-06 7.524651e-07
-1.079914e-05 -8.498123e-06 7.524651e-07
-6.606167e-06 -1.619937e-05 7.763787e-07
-6.606167e-06 1.619937e-05 7.763787e-07
-1.371087e-05 -4.780667e-06 -1.699788e-06
-1.368198e-05 4.816107e-06 -1.689598e-06
-1.593393e-05 -7.165026e-06 8.314881e-07
1.664108e-05 -5.879666e-06 -4.962589e-22
1.538800e-05 5.706202e-06 -1.866278e-06
1.538800e-05 -5.706202e-06 -1.866278e-06
-1.045184e-05 9.924014e-06 1.624867e-06
-1.045184e-05 -9.924014e-06 1.624867e-06
1.744254e-05 -8.722513e-07 8.456392e-07
1.744254e-05 -8.722513e-07 -8.456392e-07
1.744254e-05 8.722513e-07 -8.456392e-07
1.744254e-05 8.722513e-07 8.456392e-07
1.552488e-05 -8.105027e-06 -7.298226e-07
1.552488e-05 8.105027e-06 -7.298226e-07
1.694707e-05 -4.928779e-06 -4.962589e-22
-1.605154e-05 8.594063e-08 1.980269e-06
1.667576e-05 5.366150e-06 -7.176654e-07
1.667576e-05 -5.366150e-06 -7.176654e-07
-5.487974e-06 1.660906e-05 7.820075e-07
-5.487974e-06 -1.660906e-05 7.820075e-07
1.099953e-05 -1.197428e-05 -1.923578e-06
1.099953e-05 1.197428e-05 -1.923578e-06
-1.411641e-05 2.557074e-06 1.573066e-06
-1.427027e-05 5.174673e-06 1.976975e-06
-1.565566e-05 4.956419e-06 -1.862199e-06
1.719877e-05 -3.962104e-06 -4.962589e-22
-1.561693e-05 -5.028785e-06 -1.868510e-06
-1.573274e-05 7.689898e-06 7.342310e-07
-1.147814e-05 -9.538915e-06 1.901854e-06
-1.147814e-05 9.538915e-06 1.901854e-06
-1.422970e-05 -1.021592e-05 7.197018e-07
-1.422970e-05 1.021592e-05 7.197018e-07
6.164006e-06 1.557795e-05 -1.681745e-06
6.164006e-06 -1.557795e-05 -1.681745e-06
-9.223654e-06 -1.002482e-05 3.206207e-07
-9.223654e-06 1.002482e-05 3.206207e-07
1.739538e-05 -2.982737e-06 -4.962589e-22
1.437942e-05 8.504316e-07 1.618736e-06
1.437942e-05 -8.504316e-07 1.618736e-06
-2.364399e-06 -1.352260e-05 7.161011e-07
-2.364399e-06 1.352260e-05 7.161011e-07
1.283728e-05 -4.555467e-06 3.148958e-07
1.283728e-05 4.555467e-06 3.148958e-07
-1.563548e-05 -7.816269e-06 8.098824e-07
-1.323693e-05 -3.115374e-06 8.091786e-08
-1.465173e-05 1.822840e-06 -1.835294e-06
-7.312021e-06 -1.167045e-05 -8.235225e-07
1.489640e-05 9.465373e-06 -4.962589e-22
1.753627e-05 -1.993815e-06 -4.962589e-22
-7.312021e-06 1.167045e-05 -8.235225e-07
-1.379654e-05 4.313777e-06 1.655662e-06
1.074280e-05 1.377125e-05 8.423961e-07
1.074280e-05 -1.377125e-05 8.423961e-07
5.492362e-06 1.286690e-05 1.199373e-06
5.492362e-06 -1.286690e-05 1.199373e-06
-1.288963e-05 8.908946e-06 -2.025615e-06
-1.288963e-05 -8.908946e-06 -2.025615e-06
-9.240735e-06 -1.485291e-05 7.805638e-07
-9.240735e-06 1.485291e-05 7.805638e-07
1.762098e-05 -9.985070e-07 -4.962589e-22
4.759594e-06 1.420054e-05 1.920333e-06
4.759594e-06 -1.420054e-05 1.920333e-06
1.362162e-05 1.962344e-06 -8.014771e-07
1.362162e-05 -1.962344e-06 -8.014771e-07
1.429423e-05 3.271513e-06 1.784649e-06
1.429423e-05 -3.271513e-06 1.784649e-06
1.483076e-05 -4.324966e-06 -2.018594e-06
1.483076e-05 4.324966e-06 -2.018594e-06
1.326204e-05 3.749693e-06 8.457331e-07
1.326204e-05 -3.749693e-06 8.457331e-07
1.741717e-05 -4.265975e-21 9.415899e-07
1.205334e-05 6.982728e-06 1.112721e-06
1.205334e-05 -6.982728e-06 1.112721e-06
3.457548e-06 1.537780e-05 2.021385e-06
3.457548e-06 -1.537780e-05 2.021385e-06
-3.541438e-06 1.314151e-05 -2.321932e-07
-3.541438e-06 -1.314151e-05 -2.321932e-07
-6.467233e-06 -1.627641e-05 -7.273705e-07
-6.467233e-06 1.627641e-05 -7.273705e-07
-8.678282e-07 -1.477797e-05 1.852922e-06
-8.678282e-07 1.477797e-05 1.852922e-06
1.677409e-05 -4.108467e-21 1.667473e-06
1.448744e-05 -9.847109e-06 -7.195327e-07
1.448744e-05 9.847109e-06 -7.195327e-07
-1.175746e-05 -1.057614e-05 -2.017089e-06
-1.175746e-05 1.057614e-05 -2.017089e-06
-4.038153e-06 1.547075e-05 1.992806e-06
-4.038153e-06 -1.547075e-05 1.992806e-06
1.766960e-06 -1.530013e-05 2.014010e-06
1.766960e-06 1.530013e-05 2.014010e-06
-9.938741e-06 -1.441387e-05 7.426518e-07
-9.938741e-06 1.441387e-05 7.426518e-07
1.586734e-05 -3.886377e-21 2.011358e-06
1.436062e-05 9.945549e-06 8.369732e-07
1.436062e-05 -9.945549e-06 8.369732e-07
3.206206e-06 -1.723109e-05 -6.935636e-07
3.206206e-06 1.723109e-05 -6.935636e-07
-1.297217e-05 -4.659876e-06 8.496660e-07
-1.299088e-05 4.673109e-06 8.959248e-07
-9.687367e-06 -9.739836e-06 -7.405173e-07
-9.687367e-06 9.739836e-06 -7.405173e-07
-1.749816e-05 1.329963e-07 7.664989e-07
-4.278844e-06 1.306306e-05 -7.626154e-07
1.490464e-05 -3.650584e-21 1.894465e-06
-4.278844e-06 -1.306306e-05 -7.626154e-07
-1.419833e-05 9.142164e-06 1.583584e-06
-1.419833e-05 -9.142164e-06 1.583584e-06
-1.634217e-05 1.894941e-06 -1.848976e-06
-1.047706e-05 1.086728e-05 -1.956160e-06
-1.047706e-05 -1.086728e-05 -1.956160e-06
1.186846e-05 -8.407144e-06 1.715119e-06
1.186846e-05 8.407144e-06 1.715119e-06
6.507958e-06 1.281276e-05 -1.592782e-06
6.507958e-06 -1.281276e-05 -1.592782e-06
1.410654e-05 -3.455105e-21 1.343573e-06
1.415266e-05 -6.553588e-06 -2.025954e-06
1.415266e-05 6.553588e-06 -2.025954e-06
-2.099370e-06 1.450597e-05 1.781014e-06
-2.099370e-06 -1.450597e-05 1.781014e-06
-4.169057e-06 -1.318078e-05 9.326388e-07
-4.169057e-06 1.318078e-05 9.326388e-07
-7.886333e-06 -1.210535e-05 1.650281e-06
-7.886333e-06 1.210535e-05 1.650281e-06
-9.232477e-06 1.392482e-05 -1.711551e-06
-9.232477e-06 -1.392482e-05 -1.711551e-06
1.365586e-05 -3.344721e-21 4.848848e-07
-7.145688e-06 -1.259864e-05 1.675603e-06
-7.145688e-06 1.259864e-05 1.675603e-06
-1.517209e-05 -6.578242e-06 1.808423e-06
-1.457629e-05 3.695347e-06 1.939627e-06
-1.530285e-05 4.018543e-06 2.016376e-06
-8.975237e-07 1.745420e-05 8.169192e-07
-8.975237e-07 -1.745420e-05 8.169192e-07
1.325087e-05 -4.026931e-06 -9.790903e-07
1.325087e-05 4.026931e-06 -9.790903e-07
-5.062486e-06 -1.405951e-05 1.908635e-06
1.365586e-05 -3.344721e-21 -4.848848e-07
-5.062486e-06 1.405951e-05 1.908635e-06
8.174037e-06 1.107488e-05 -8.072319e-07
8.174037e-06 -1.107488e-05 -8.072319e-07
1.580753e-05 -6.260475e-06 -1.484448e-06
1.580753e-05 6.260475e-06 -1.484448e-06
-1.491545e-05 -2.167326e-07 1.899116e-06
-1.647209e-05 3.384350e-06 -1.637631e-06
-1.195244e-05 1.182152e-05 1.641394e-06
-1.195244e-05 -1.182152e-05 1.641394e-06
-2.125628e-07 -1.625146e-05 1.925783e-06
1.410654e-05 -3.455105e-21 -1.343573e-06
-2.125628e-07 1.625146e-05 1.925783e-06
-1.049016e-05 1.289831e-05 -1.760759e-06
-1.049016e-05 -1.289831e-05 -1.760759e-06
1.391890e-05 -5.135255e-06 -1.866987e-06
1.391890e-05 5.135255e-06 -1.866987e-06
-6.803034e-06 1.498843e-05 -1.845179e-06
-6.803034e-06 -1.498843e-05 -1.845179e-06
6.993252e-06 1.178430e-05 6.471474e-07
6.993252e-06 -1.178430e-05 6.471474e-07
-1.407749e-05 8.902432e-06 -1.742969e-06
1.433703e-05 1.029298e-05 -4.962589e-22
1.490464e-05 -3.650584e-21 -1.894465e-06
-1.407749e-05 -8.902432e-06 -1.742969e-06
1.223251e-05 9.870569e-06 -2.023897e-06
1.223251e-05 -9.870569e-06 -2.023897e-06
1.323983e-05 6.659207e-06 -1.860246e-06
1.323983e-05 -6.659207e-06 -1.860246e-06
-1.654366e-05 -5.777392e-06 7.028440e-07
1.083066e-05 -1.069192e-05 1.985437e-06
1.083066e-05 1.069192e-05 1.985437e-06
-9.300497e-06 -1.195243e-05 -1.968822e-06
-9.300497e-06 1.195243e-05 -1.968822e-06
1.586734e-05 -3.886377e-21 -2.011358e-06
-7.976906e-06 -1.114381e-05 6.514860e-07
-7.976906e-06 1.114381e-05 6.514860e-07
-8.430934e-06 1.077347e-05 -5.747648e-07
-8.430934e-06 -1.077347e-05 -5.747648e-07
-6.388647e-06 -1.548021e-05 1.686053e-06
-6.388647e-06 1.548021e-05 1.686053e-06
1.573130e-05 -4.895542e-06 -1.838139e-06
[...]
POINT_DATA 1617
VECTORS 10.000GHz_fone_imag double
-1.476973e-04 4.129147e-04 2.039760e-02
-1.700704e-04 -5.224910e-04 2.009737e-02
-1.118545e-03 2.945496e-04 2.187615e-02
-1.615698e-03 2.916505e-02 9.226437e-03
2.109909e-02 5.702799e-04 -4.640761e-02
-2.368305e-02 2.016756e-03 1.334673e-02
-2.252420e-02 -1.389353e-03 1.340612e-02
-4.772791e-03 -9.493985e-03 2.085985e-02
-4.773620e-03 9.493954e-03 2.085929e-02
-3.556835e-03 -2.382532e-02 -4.562675e-02
-3.546879e-03 2.382910e-02 -4.562586e-02
2.453418e-02 -1.073539e-02 8.927300e-03
2.442664e-02 1.063779e-02 8.984632e-03
-6.655783e-04 3.845861e-04 2.021617e-02
-1.665018e-02 -1.939657e-02 -3.566626e-02
-2.213975e-02 2.169399e-02 -3.473747e-02
-1.318933e-03 7.490776e-03 2.068193e-02
-1.317303e-03 -7.488636e-03 2.067767e-02
5.541160e-03 2.324924e-03 -5.201299e-02
4.904783e-03 -1.443708e-03 -5.301488e-02
3.267252e-02 1.124204e-02 -1.978790e-02
6.098421e-03 -8.732684e-03 2.097265e-02
6.095728e-03 8.585412e-03 2.048504e-02
1.356326e-02 3.090300e-02 -3.368267e-02
8.451431e-04 -8.440676e-04 2.049304e-02
1.343001e-02 -3.093964e-02 -3.307331e-02
-9.418652e-03 2.451577e-03 1.960778e-02
-1.055733e-02 -1.384942e-03 1.968892e-02
1.849321e-02 2.697310e-02 -3.109716e-02
1.849868e-02 -2.697832e-02 -3.107205e-02
3.355055e-02 1.057217e-02 -1.139170e-02
-2.710453e-02 -1.685817e-03 1.163162e-02
-2.416255e-03 6.052113e-03 -5.357410e-02
-2.416208e-03 -6.052526e-03 -5.357383e-02
-6.572948e-03 -5.696630e-03 2.055488e-02
-3.543278e-04 3.274912e-04 2.009232e-02
-6.342959e-03 5.740132e-03 2.009010e-02
7.360410e-03 6.909837e-03 2.138129e-02
6.980759e-03 -6.440877e-03 2.138073e-02
7.491976e-03 -4.934216e-03 2.162898e-02
7.476732e-03 4.884085e-03 2.168085e-02
-2.310160e-02 -3.936542e-03 -4.079784e-02
-7.141554e-03 7.019868e-03 2.016988e-02
-7.140638e-03 -7.022085e-03 2.016828e-02
2.333316e-02 -1.466105e-02 8.931052e-03
2.330537e-02 1.467174e-02 9.076117e-03
-8.878287e-04 1.061541e-03 2.103133e-02
2.404575e-02 2.039462e-02 -3.029498e-02
2.274530e-02 -1.874307e-02 -2.936900e-02
2.698218e-02 -1.691814e-02 -2.886972e-02
2.776106e-02 1.815769e-02 -3.371698e-02
2.154615e-03 9.216754e-03 2.142122e-02
2.153568e-03 -9.217525e-03 2.141922e-02
3.483772e-02 -1.629610e-03 -1.715613e-02
-1.947372e-02 -3.188933e-02 -2.031963e-02
-1.741560e-02 3.334690e-02 -1.930417e-02
2.347239e-03 -3.482737e-02 -1.826718e-02
-3.042574e-04 2.642750e-05 2.050656e-02
2.347620e-03 3.482559e-02 -1.827205e-02
-6.921896e-03 3.603786e-02 -6.816048e-03
-6.922004e-03 -3.603819e-02 -6.815410e-03
1.501517e-02 -1.187735e-02 -4.875488e-02
1.278151e-02 1.268591e-02 -4.676206e-02
3.364277e-03 8.956444e-03 1.996427e-02
3.363653e-03 -8.956481e-03 1.996389e-02
-3.108258e-02 -1.057660e-02 -2.286473e-02
-3.212465e-02 1.089413e-02 -2.286846e-02
8.443603e-03 4.121673e-03 1.887898e-02
-1.451983e-03 1.095485e-03 2.130363e-02
2.565697e-02 8.982491e-03 1.077778e-02
2.565356e-02 -8.976964e-03 1.078273e-02
2.672729e-02 -2.289689e-02 -2.623237e-02
2.697024e-02 2.297314e-02 -2.638170e-02
-9.929385e-03 -9.548355e-05 2.149515e-02
9.547891e-03 -2.163892e-04 2.158456e-02
1.007103e-02 -4.545503e-05 2.154089e-02
-8.588286e-03 7.708846e-04 2.034902e-02
7.570056e-03 -3.960625e-03 2.176297e-02
7.686166e-03 3.716047e-03 2.195820e-02
-6.570134e-04 -6.870439e-04 2.190287e-02
3.200682e-02 -3.521301e-05 4.668167e-03
8.265841e-03 2.907269e-03 2.215948e-02
8.256246e-03 -2.890438e-03 2.214350e-02
2.052316e-03 -8.127503e-03 2.023474e-02
2.052773e-03 8.127392e-03 2.023484e-02
1.814655e-02 -2.250306e-02 7.788705e-03
1.890314e-02 2.244614e-02 6.700692e-03
3.202993e-02 -5.747595e-03 -2.695107e-02
3.441572e-02 -1.166347e-02 -7.649514e-03
-2.469493e-02 7.221722e-03 1.016336e-02
-1.116019e-04 1.700202e-04 2.353023e-02
-2.689130e-02 -7.601486e-03 1.088828e-02
7.231477e-03 -4.766691e-03 2.081658e-02
2.570251e-02 2.141864e-02 -1.512083e-02
2.780899e-02 -2.395593e-02 -1.647089e-02
7.488304e-03 5.270228e-03 2.120808e-02
7.474494e-03 -4.962810e-03 2.194395e-02
8.882782e-03 2.193901e-02 1.474569e-02
8.906807e-03 -2.193648e-02 1.474224e-02
6.162868e-03 5.596801e-03 -5.318932e-02
6.121957e-03 -5.591339e-03 -5.320877e-02
1.415752e-04 5.625845e-05 2.124529e-02
-3.207943e-02 -1.687752e-03 -2.417961e-02
-3.262786e-02 1.761598e-03 -2.854797e-02
6.170381e-03 1.851867e-02 -4.539552e-02
6.169738e-03 -1.851755e-02 -4.539479e-02
-8.134494e-03 2.532467e-03 -4.878428e-02
-8.099120e-03 -2.506720e-03 -4.877682e-02
8.466988e-03 3.778715e-03 1.833154e-02
9.238364e-04 8.660071e-05 -5.468569e-02
-3.435795e-02 4.269965e-03 -1.671185e-02
-7.928818e-03 -1.539429e-02 -4.674648e-02
8.762186e-04 9.195692e-04 2.048461e-02
-2.732215e-04 1.131421e-04 2.262019e-02
-7.930961e-03 1.539514e-02 -4.674875e-02
3.481602e-02 -1.109245e-02 -2.841559e-02
-4.967883e-03 -7.244633e-03 1.927947e-02
-5.977229e-03 7.826776e-03 2.138758e-02
-1.000959e-02 -2.664558e-02 -3.943138e-02
-9.788072e-03 2.684860e-02 -4.078215e-02
-2.747084e-02 1.973680e-02 3.212985e-04
-2.859392e-02 -1.988371e-02 -1.284102e-03
4.552617e-03 7.921139e-03 1.939081e-02
4.551295e-03 -7.921978e-03 1.938896e-02
1.017494e-04 -1.848633e-04 2.044654e-02
-9.336896e-03 -3.398597e-02 -1.344600e-02
-9.397170e-03 3.397973e-02 -1.351751e-02
1.882862e-02 1.671321e-03 -4.771833e-02
1.879502e-02 -1.903017e-03 -4.735576e-02
-3.595023e-02 -8.571840e-03 -2.261430e-02
-3.588921e-02 8.743665e-03 -2.268611e-02
3.582336e-02 -1.039286e-02 -5.941834e-03
3.584917e-02 1.041573e-02 -5.955173e-03
-2.019176e-02 -5.447405e-03 -4.200981e-02
-2.019119e-02 5.425566e-03 -4.198910e-02
-1.113238e-02 -3.370682e-04 2.121117e-02
-2.315608e-02 -1.052387e-02 -4.112528e-02
-2.313683e-02 1.054852e-02 -4.111977e-02
-6.996009e-03 -3.102339e-02 -1.639410e-03
-6.997082e-03 3.102396e-02 -1.641432e-03
-9.700400e-04 7.148483e-03 -5.155566e-02
-9.704016e-04 -7.149008e-03 -5.155714e-02
-3.467085e-03 -8.824107e-03 2.173771e-02
-3.467572e-03 8.823880e-03 2.173763e-02
1.231791e-03 3.535427e-02 -1.585214e-02
1.229316e-03 -3.535336e-02 -1.585468e-02
-2.368861e-02 -4.978378e-04 1.452985e-02
6.520647e-03 -4.811560e-03 2.171132e-02
6.518259e-03 4.812090e-03 2.168161e-02
-2.449162e-02 -2.281065e-02 1.987979e-03
-2.432362e-02 2.287043e-02 1.915899e-03
7.031285e-03 -2.943678e-02 2.430134e-03
7.031473e-03 2.943659e-02 2.432780e-03
-3.429631e-03 3.586966e-02 -6.241863e-03
-3.429090e-03 -3.586825e-02 -6.241979e-03
5.183265e-03 7.759288e-03 1.957596e-02
5.183662e-03 -7.761048e-03 1.957084e-02
-3.144155e-02 6.626601e-04 1.887609e-03
-8.150902e-03 -6.026523e-03 2.140551e-02
-8.141096e-03 5.985366e-03 2.141241e-02
1.654709e-03 -8.670784e-03 2.146128e-02
1.654372e-03 8.670197e-03 2.146194e-02
1.813081e-02 7.480668e-03 -4.559945e-02
1.893385e-02 -7.539787e-03 -4.118757e-02
-1.392626e-02 -1.351585e-02 -4.699123e-02
-1.387504e-02 1.351107e-02 -4.695070e-02
1.002852e-02 -6.785353e-04 2.084958e-02
-6.396502e-03 1.643262e-02 -4.852053e-02
-3.733029e-02 1.045382e-03 -1.427428e-02
-6.397418e-03 -1.643525e-02 -4.852208e-02
1.607585e-02 -1.035660e-02 1.462367e-02
1.725551e-02 1.026825e-02 1.567940e-02
-2.648160e-02 2.951878e-03 1.011817e-02
-2.620432e-02 2.595063e-02 -9.708582e-03
-2.615722e-02 -2.602054e-02 -9.686604e-03
-3.026281e-02 2.074356e-02 -2.619931e-02
-3.037786e-02 -2.068692e-02 -2.630289e-02
1.469857e-02 2.877587e-02 -2.726442e-02
1.473415e-02 -2.940981e-02 -2.712486e-02
-2.854244e-02 -1.893576e-03 -3.817606e-02
3.158734e-02 -1.500783e-02 -1.159991e-03
3.161190e-02 1.504067e-02 -1.179222e-03
3.767846e-03 -3.670479e-02 -2.134467e-02
3.768774e-03 3.670658e-02 -2.134318e-02
6.420351e-03 2.130255e-02 -4.671596e-02
6.420393e-03 -2.130053e-02 -4.671380e-02
1.970210e-02 2.722024e-02 -2.647711e-02
1.969995e-02 -2.721963e-02 -2.647916e-02
-1.254277e-02 2.030993e-02 1.365251e-02
-1.254336e-02 -2.031083e-02 1.365172e-02
-1.051587e-02 -2.353114e-04 -4.807894e-02
1.575473e-02 3.096538e-02 -2.179605e-02
1.575478e-02 -3.096604e-02 -2.179482e-02
2.427668e-02 9.933855e-03 1.206334e-02
3.446434e-02 -1.035703e-02 -1.485743e-02
3.284004e-02 -8.798582e-03 2.341571e-03
1.428145e-03 -9.304576e-03 2.043105e-02
1.429526e-03 9.304866e-03 2.043038e-02
2.494864e-02 -6.356493e-03 -4.370921e-02
2.492085e-02 6.376142e-03 -4.365956e-02
1.134458e-02 3.544238e-02 -1.479210e-02
1.067690e-02 1.091620e-03 -4.993227e-02
1.134429e-02 -3.544114e-02 -1.479260e-02
1.128887e-02 1.208466e-02 -4.423990e-02
1.246508e-02 -1.586139e-02 -4.698260e-02
1.786323e-02 -7.169005e-03 1.655554e-02
1.787656e-02 7.176742e-03 1.653399e-02
3.737867e-02 4.578174e-04 -1.605877e-02
-2.260351e-02 5.180764e-03 1.548551e-02
1.549537e-02 -1.483212e-02 1.311304e-02
1.527360e-02 1.508594e-02 1.290339e-02
-5.118768e-04 2.966169e-02 8.170278e-03
3.071018e-02 -4.194231e-04 -3.771165e-02
-5.153747e-04 -2.966145e-02 8.172365e-03
-1.639266e-02 2.005948e-02 1.249532e-02
-1.639067e-02 -2.006173e-02 1.249781e-02
3.136136e-02 -1.265985e-02 -1.801084e-02
3.136262e-02 1.266155e-02 -1.801695e-02
-1.020671e-02 2.247651e-02 1.239292e-02
-1.020645e-02 -2.247642e-02 1.239268e-02
-6.388438e-03 -1.305394e-02 -4.416890e-02
-7.006939e-03 1.154764e-02 -4.538002e-02
-2.155220e-02 1.383544e-02 1.293801e-02
-7.064701e-04 -4.201233e-04 2.019495e-02
3.810623e-02 -2.022618e-04 -1.568421e-02
-1.965481e-02 -1.289724e-02 1.210100e-02
2.736989e-02 2.138732e-02 -2.595923e-04
2.756589e-02 -2.150841e-02 -4.568575e-04
3.310656e-02 1.862335e-02 -1.899129e-02
3.313283e-02 -1.860969e-02 -1.895348e-02
8.456199e-03 3.379822e-03 2.002160e-02
-2.703354e-02 2.610024e-02 -8.651495e-03
-2.555249e-02 -2.695788e-02 -9.995036e-03
-2.290841e-02 -2.903204e-02 -9.568802e-03
-2.291385e-02 2.902462e-02 -9.572520e-03
2.953057e-02 8.421041e-04 2.715447e-03
9.037061e-03 1.181548e-02 -5.139066e-02
9.032415e-03 -1.181512e-02 -5.139179e-02
-8.807699e-03 1.158344e-02 -4.558472e-02
-8.811343e-03 -1.159219e-02 -4.558876e-02
9.170652e-03 1.995701e-02 1.509230e-02
9.170272e-03 -1.995677e-02 1.509147e-02
2.450845e-02 -7.776601e-03 1.135917e-02
2.449594e-02 7.776720e-03 1.132254e-02
-9.787838e-03 2.111688e-02 1.242145e-02
-9.919710e-03 -2.090709e-02 1.239112e-02
2.388929e-02 -3.041200e-04 1.411654e-02
-5.008974e-03 7.412266e-03 2.140746e-02
-4.678342e-03 -6.142729e-03 1.968501e-02
-2.018056e-03 -9.665277e-03 2.143461e-02
-2.018850e-03 9.666275e-03 2.143518e-02
-4.276072e-03 1.985881e-02 1.762602e-02
-4.277273e-03 -1.985483e-02 1.763038e-02
2.360391e-03 -2.256482e-02 1.554022e-02
2.361088e-03 2.256341e-02 1.554077e-02
1.412133e-02 2.770840e-02 -3.598367e-02
1.412091e-02 -2.770704e-02 -3.598348e-02
1.152103e-02 -2.706134e-04 2.131663e-02
-1.643251e-02 -1.770248e-02 1.171841e-02
-1.628883e-02 1.772757e-02 1.168018e-02
-2.285304e-02 1.145215e-02 1.266045e-02
-2.001950e-02 -1.063950e-02 1.252536e-02
-1.824261e-02 -6.194306e-03 1.661284e-02
-1.915017e-02 4.614354e-03 1.533503e-02
1.930393e-02 -1.069836e-02 1.489011e-02
1.921011e-02 1.076313e-02 1.571449e-02
1.034720e-02 -1.308698e-02 1.900242e-02
1.034731e-02 1.310302e-02 1.900242e-02
1.068157e-03 2.304941e-03 -4.946953e-02
1.153517e-02 -2.076015e-02 1.274696e-02
1.142200e-02 1.912589e-02 1.245656e-02
4.299119e-03 2.433022e-02 1.220534e-02
4.299765e-03 -2.432876e-02 1.220552e-02
-7.834425e-03 -4.123518e-03 2.182712e-02
-6.566692e-03 3.789850e-03 2.055808e-02
-3.489817e-02 -1.632312e-02 -1.975062e-02
-3.489429e-02 1.632893e-02 -1.974338e-02
2.879050e-02 2.031597e-02 -7.945057e-03
2.991410e-02 -2.044170e-02 -6.932897e-03
1.069011e-03 -2.303798e-03 -4.946811e-02
-6.530032e-03 1.072504e-03 2.077002e-02
-8.436199e-03 -4.964995e-04 2.241168e-02
-1.942892e-02 -2.812162e-02 -1.512587e-02
-1.943016e-02 2.812064e-02 -1.512883e-02
-6.016932e-04 -8.397854e-03 2.230316e-02
-6.018259e-04 8.399359e-03 2.230356e-02
-1.424708e-02 3.437834e-02 -1.041182e-02
-1.424646e-02 -3.437844e-02 -1.040984e-02
-2.458997e-02 -8.169032e-03 1.194029e-02
-2.459492e-02 8.152174e-03 1.194883e-02
-2.558002e-03 3.492500e-06 -5.284158e-02
-3.163475e-02 -2.024659e-02 -9.898877e-03
-3.160520e-02 2.021547e-02 -9.905969e-03
-5.942286e-03 7.113718e-03 1.934153e-02
-5.908440e-03 -7.083545e-03 1.929027e-02
8.687023e-03 -7.059738e-04 2.120153e-02
8.749524e-03 7.749428e-04 2.142734e-02
-2.452081e-02 2.955088e-03 -4.294386e-02
1.609544e-02 2.800759e-02 4.189934e-03
1.609517e-02 -2.800692e-02 4.187750e-03
3.046619e-02 -1.660679e-03 5.403865e-03
2.425677e-02 2.438346e-02 -5.760984e-03
-5.968076e-03 1.360040e-03 2.132545e-02
-7.402716e-03 -4.126512e-03 2.029620e-02
2.450033e-02 -2.496221e-02 -3.221316e-03
2.362812e-02 2.242409e-02 -2.209582e-03
-3.463890e-02 -3.854680e-03 -1.276193e-02
-5.041343e-04 -9.151880e-03 2.143579e-02
-5.050782e-04 9.151100e-03 2.143637e-02
-1.610662e-03 -9.048013e-03 1.877559e-02
-1.610272e-03 9.047502e-03 1.877584e-02
-5.981687e-03 3.202150e-02 -2.305079e-02
2.507275e-02 -2.499134e-02 -4.249144e-03
-5.982149e-03 -3.202243e-02 -2.304995e-02
-2.850593e-02 -1.612319e-02 5.705277e-03
-2.498491e-02 1.379382e-02 3.748297e-03
-4.349512e-03 -2.586107e-02 1.295589e-02
-4.349290e-03 2.586160e-02 1.295560e-02
8.050754e-03 1.882754e-02 -4.446207e-02
8.040131e-03 -1.889421e-02 -4.454248e-02
3.386388e-03 2.228293e-02 1.345868e-02
3.387097e-03 -2.228274e-02 1.345699e-02
-4.672596e-03 7.154854e-03 2.038017e-02
5.166162e-03 -4.470055e-03 2.143918e-02
-4.672308e-03 -7.157145e-03 2.038062e-02
1.804163e-02 1.075473e-02 1.341587e-02
1.807862e-02 -1.080928e-02 1.341104e-02
-1.504115e-02 3.056851e-02 -1.048145e-02
-1.504069e-02 -3.056941e-02 -1.048205e-02
-2.044586e-02 2.469832e-02 -4.710707e-04
-2.044008e-02 -2.471964e-02 -4.647608e-04
2.469865e-03 -6.207677e-03 2.027168e-02
2.508438e-03 6.165531e-03 2.025143e-02
2.831646e-02 1.689321e-02 -2.270438e-02
-1.128826e-03 -5.120640e-04 2.144146e-02
2.061134e-02 -1.398744e-02 -4.253273e-02
2.867846e-02 -1.657494e-02 -2.454404e-02
-1.836049e-02 -2.803397e-02 -7.290287e-03
-2.075597e-02 2.997151e-02 -6.327046e-03
3.044641e-02 -2.222761e-02 -2.061094e-02
3.032144e-02 2.241558e-02 -2.073270e-02
-7.408807e-03 5.768277e-03 1.963836e-02
-6.742935e-03 -5.758949e-03 2.077238e-02
1.473770e-02 -1.231823e-02 1.701088e-02
1.494273e-02 1.234997e-02 1.703372e-02
1.748086e-03 2.132204e-02 -4.346843e-02
-2.935933e-04 -2.768388e-03 -4.948374e-02
1.750038e-03 -2.132020e-02 -4.346756e-02
-4.990509e-03 2.397314e-02 1.272670e-02
-4.989667e-03 -2.397314e-02 1.272522e-02
-1.365711e-02 5.327192e-03 -4.562023e-02
-1.357949e-02 -7.295525e-03 -4.591404e-02
-8.170104e-03 1.183471e-04 2.129379e-02
-8.350089e-03 -1.426868e-04 2.144737e-02
-2.647505e-02 -2.925881e-04 -3.773884e-02
-2.727459e-02 2.482562e-02 -2.380046e-02
-2.495749e-02 -2.328691e-02 -2.233655e-02
5.163158e-03 4.470910e-03 2.145344e-02
9.451987e-03 -2.015729e-02 1.305289e-02
9.427875e-03 2.037879e-02 1.298983e-02
7.285512e-03 3.172723e-02 -3.545938e-02
7.291927e-03 -3.172601e-02 -3.546176e-02
2.804739e-03 4.168586e-03 -5.219560e-02
3.208979e-03 -1.147014e-03 -5.117007e-02
2.018538e-02 -2.840658e-02 -3.142871e-05
2.032457e-02 2.807744e-02 3.433162e-04
2.030314e-02 5.314546e-03 1.543140e-02
2.034398e-02 -5.302303e-03 1.549314e-02
2.049859e-02 1.294975e-02 -4.296885e-02
-3.330911e-02 -6.064113e-03 -3.239627e-02
-3.298772e-02 6.052548e-03 -3.255695e-02
-7.533703e-03 -2.928501e-03 2.038325e-02
-7.526669e-03 2.944415e-03 2.035369e-02
7.791609e-03 2.354286e-03 2.107523e-02
8.902906e-03 -1.154008e-04 2.126371e-02
9.447162e-03 7.684026e-04 2.120998e-02
-5.784857e-03 -5.207068e-03 2.191434e-02
-5.660742e-03 5.473052e-03 2.167870e-02
-6.664043e-03 5.842428e-03 -5.349015e-02
-2.933133e-04 2.767664e-03 -4.948351e-02
-7.105198e-03 -5.526031e-03 -5.341336e-02
2.033223e-03 7.786774e-03 2.154298e-02
2.032601e-03 -7.786996e-03 2.154337e-02
3.459742e-02 -2.723721e-03 -2.819393e-02
2.485088e-03 -1.680881e-02 -4.874819e-02
2.483361e-03 1.680765e-02 -4.874717e-02
7.860482e-03 -2.399377e-03 2.143715e-02
-3.562385e-02 -8.192660e-03 -2.329037e-02
1.079026e-02 1.964265e-02 -4.699267e-02
1.078935e-02 -1.964159e-02 -4.699236e-02
-2.966369e-02 -1.584189e-02 -5.322034e-03
-4.046075e-03 1.906357e-02 -4.804479e-02
-4.046380e-03 -1.906479e-02 -4.804549e-02
2.279669e-02 2.584578e-02 1.417409e-04
2.279171e-02 -2.585983e-02 1.304573e-04
3.084590e-03 8.156637e-03 -4.794305e-02
2.903653e-03 -4.706324e-03 -4.787459e-02
2.070536e-02 -2.772102e-03 1.302128e-02
-1.657273e-03 -7.795348e-03 1.925639e-02
-1.657129e-03 7.794520e-03 1.925649e-02
-1.987087e-02 -1.797392e-02 -4.201788e-02
-2.966077e-02 1.583468e-02 -5.310637e-03
-1.744382e-02 1.831886e-02 -3.906064e-02
-1.890721e-02 8.170795e-03 1.602520e-02
-2.024527e-02 -7.336490e-03 1.608444e-02
-1.145839e-02 -2.930806e-02 -3.300014e-02
-1.143851e-02 2.931643e-02 -3.305563e-02
-1.845176e-02 1.918650e-02 1.129252e-02
-1.813651e-02 -1.852236e-02 1.091729e-02
2.322539e-02 -1.823174e-02 5.028955e-03
2.418478e-02 2.068064e-02 5.796700e-03
1.466443e-02 -2.119925e-02 1.278099e-02
2.473749e-02 1.158860e-02 8.498417e-03
1.466569e-02 2.120298e-02 1.278313e-02
-2.665540e-03 -7.448429e-04 -4.947663e-02
-7.675095e-03 4.164419e-03 2.146565e-02
-7.634355e-03 -4.195449e-03 2.149097e-02
1.247931e-03 -1.846371e-02 1.716873e-02
1.247214e-03 1.846416e-02 1.716924e-02
8.446708e-03 -6.966221e-03 -4.778501e-02
8.676590e-03 7.096390e-03 -4.789108e-02
-7.436775e-03 -3.533993e-03 2.096333e-02
-7.391719e-03 3.482498e-03 2.093058e-02
2.474024e-02 -1.155580e-02 8.526543e-03
1.950750e-02 5.928128e-04 1.717113e-02
-1.881155e-02 -7.857725e-04 1.767300e-02
-1.969310e-02 3.920412e-04 1.720533e-02
1.896656e-02 -9.160747e-04 1.760257e-02
3.272745e-02 -1.200624e-03 -3.328905e-02
3.246837e-02 1.477218e-03 -3.400730e-02
1.160611e-02 -1.665802e-02 1.481597e-02
1.164987e-02 1.682839e-02 1.639674e-02
1.646015e-02 1.885374e-03 -5.026374e-02
2.037102e-02 1.502267e-02 -4.143272e-02
-4.209275e-03 -7.946025e-03 -5.313274e-02
2.039556e-02 -1.506367e-02 -4.143527e-02
1.469490e-03 -2.132578e-02 -4.070834e-02
1.467536e-03 2.132596e-02 -4.070914e-02
-1.836672e-04 -3.271322e-02 -2.435430e-03
-1.825515e-04 3.271335e-02 -2.429479e-03
-2.420248e-02 -2.032565e-02 5.263824e-03
-2.287500e-02 2.088313e-02 5.006829e-03
1.452531e-02 1.617876e-02 1.566991e-02
1.521258e-02 -1.597722e-02 1.557604e-02
3.410775e-02 -7.656332e-03 -1.941473e-03
4.833494e-04 -7.452513e-05 2.046616e-02
-1.936418e-03 6.520914e-03 -5.076157e-02
3.436814e-02 7.629793e-03 -1.925809e-03
-3.862894e-03 -1.678513e-02 1.569917e-02
-3.863477e-03 1.678614e-02 1.569925e-02
3.013884e-02 8.665222e-03 5.920617e-03
-1.770776e-02 -1.046481e-02 -4.602195e-02
-1.594941e-02 1.068921e-02 -4.343219e-02
8.730255e-03 1.519300e-02 1.796418e-02
8.729890e-03 -1.519264e-02 1.796132e-02
-9.103387e-03 -3.357862e-06 2.112996e-02
-8.674261e-03 -8.148892e-04 2.152193e-02
-8.135891e-03 -1.183568e-02 -4.971001e-02
-8.078712e-03 -3.422760e-03 2.148988e-02
-7.156563e-03 3.938544e-03 1.966476e-02
4.919338e-03 -5.252511e-03 2.141394e-02
4.652582e-03 4.274824e-03 2.145640e-02
-6.515305e-03 -1.929670e-02 1.586246e-02
-6.515753e-03 1.929675e-02 1.586241e-02
-1.502232e-02 1.060817e-02 1.639799e-02
-1.306070e-02 -8.748304e-03 1.677969e-02
-1.886478e-02 -2.051269e-02 -3.651921e-02
-1.887570e-02 2.050054e-02 -3.654408e-02
-9.628753e-03 1.045411e-02 -5.051426e-02
5.746365e-03 -3.487573e-02 -1.979285e-02
5.743242e-03 3.487641e-02 -1.979412e-02
-2.393784e-03 6.631437e-03 2.195723e-02
-2.357197e-03 -6.649934e-03 2.194036e-02
-3.533904e-03 -2.139345e-03 -5.280232e-02
-3.783182e-03 4.734892e-03 -5.216355e-02
2.025381e-02 -2.800983e-02 -1.732414e-02
2.025669e-02 2.801943e-02 -1.732935e-02
3.076718e-02 1.360076e-02 1.155793e-04
3.076497e-02 -1.360133e-02 1.221756e-04
-1.636373e-02 -5.471458e-03 1.828175e-02
4.113012e-03 5.961661e-03 2.179939e-02
4.098912e-03 -5.947467e-03 2.177390e-02
-3.753619e-02 -5.242877e-03 -1.238264e-02
-3.753830e-02 5.711519e-03 -1.167663e-02
1.230279e-02 -5.193099e-03 -5.050005e-02
1.013400e-02 2.351544e-03 -5.063904e-02
1.989072e-02 2.755056e-03 1.431630e-02
-1.050965e-02 -1.418388e-03 -5.038579e-02
5.660646e-03 1.760109e-02 1.795252e-02
5.660303e-03 -1.760142e-02 1.795219e-02
-1.635628e-02 5.419920e-03 1.829051e-02
5.678014e-03 2.340428e-02 1.341469e-02
5.677850e-03 -2.340548e-02 1.341397e-02