# vtk DataFile Version 2.0
Electric current density generated by TTH
ASCII
DATASET UNSTRUCTURED_GRID
POINTS 9935 double
4.031759e-05 -9.874961e-21 -1.282494e-22
4.020891e-05 2.958256e-06 -1.282494e-22
2.786198e-05 2.914135e-05 -1.282494e-22
3.882660e-05 -7.548609e-06 -4.651819e-07
-3.698465e-05 -1.406554e-05 -4.728164e-07
-3.567342e-05 1.688340e-05 4.089598e-07
-3.567555e-05 1.707343e-05 -4.636030e-07
-3.567341e-05 -1.688340e-05 -4.089596e-07
-3.568484e-05 -1.706867e-05 4.668712e-07
-3.838735e-05 9.423301e-06 4.504713e-07
-3.833858e-05 8.513712e-06 -4.748380e-08
-3.838735e-05 -9.423301e-06 -4.504713e-07
-3.833858e-05 -8.513712e-06 4.748380e-08
2.762326e-05 2.936773e-05 -1.282494e-22
-3.667882e-05 -1.505409e-05 5.028525e-07
-3.668697e-05 1.500191e-05 -4.991362e-07
3.683710e-05 -1.426240e-05 4.344908e-07
3.619437e-05 -1.534704e-05 2.085084e-07
3.908776e-05 6.600264e-06 -5.008036e-07
3.908776e-05 -6.600264e-06 -5.008036e-07
2.477485e-05 3.080798e-05 -4.544367e-07
2.411693e-05 3.145799e-05 -5.000873e-07
1.359981e-05 -3.712517e-05 -4.566439e-07
1.271033e-05 -3.754825e-05 -5.008319e-07
2.738270e-05 2.959215e-05 -1.282494e-22
1.113741e-05 3.793054e-05 -4.532892e-07
1.022626e-05 3.791756e-05 4.578004e-08
1.538857e-05 3.641373e-05 -4.532892e-07
1.358803e-05 3.712321e-05 -4.532892e-07
1.773119e-05 3.533232e-05 -4.532892e-07
1.999827e-05 -3.410039e-05 -4.532892e-07
1.999827e-05 3.410039e-05 -4.532892e-07
2.217486e-05 3.273391e-05 -4.566439e-07
2.305721e-05 3.228395e-05 -5.092766e-07
2.217486e-05 -3.273391e-05 -4.566439e-07
2.714032e-05 2.981461e-05 -1.282494e-22
2.305332e-05 -3.229346e-05 -5.105556e-07
1.529778e-05 -3.645350e-05 -4.541083e-07
1.628060e-05 -3.614155e-05 -5.002363e-07
1.831736e-05 -3.503866e-05 -4.566439e-07
1.750141e-05 -3.560298e-05 -5.092263e-07
2.482504e-05 -3.072364e-05 -4.330897e-07
2.618345e-05 2.962062e-05 -4.546438e-07
2.704196e-05 2.898578e-05 -5.009063e-07
1.115519e-05 -3.789419e-05 -4.346574e-07
1.022005e-05 -3.792056e-05 5.852351e-08
2.689614e-05 3.003508e-05 -1.282494e-22
3.856709e-05 -9.134413e-06 4.985996e-07
3.856021e-05 9.132783e-06 4.962756e-07
4.497214e-06 3.935905e-05 -4.921362e-07
4.497214e-06 -3.935905e-05 -4.921362e-07
-3.952045e-05 -2.745536e-06 -4.923392e-07
3.376856e-05 -2.068838e-05 4.871913e-07
3.009821e-05 -2.552277e-05 -4.056029e-07
3.009821e-05 2.552277e-05 -4.056029e-07
3.907516e-05 -6.729002e-06 5.035260e-07
3.907515e-05 6.729024e-06 5.035254e-07
2.665016e-05 3.025354e-05 -1.282494e-22
3.634935e-05 -1.568563e-05 -4.819687e-07
-3.628857e-05 -1.591377e-05 -4.954686e-07
-3.631101e-05 1.587173e-05 4.967158e-07
3.453206e-05 -1.957460e-05 -5.140218e-07
3.526621e-05 -1.826804e-05 -5.179058e-07
3.524902e-05 1.826574e-05 -5.152106e-07
3.798599e-05 -1.043670e-05 -3.375260e-07
-3.948708e-05 -4.152507e-06 5.159724e-07
5.919911e-06 3.926102e-05 5.159733e-07
5.919911e-06 -3.926102e-05 5.159733e-07
2.640241e-05 3.047000e-05 -1.282494e-22
-3.930637e-05 5.640520e-06 -5.166806e-07
-3.930924e-05 -5.576240e-06 5.156163e-07
7.334183e-06 3.901949e-05 5.156167e-07
7.334183e-06 -3.901949e-05 5.156167e-07
4.423130e-06 -3.945180e-05 5.149297e-07
4.423130e-06 3.945180e-05 5.149297e-07
-3.961083e-05 -2.650829e-06 5.150126e-07
3.377531e-05 -2.086325e-05 -5.150168e-07
-3.968462e-05 -1.226957e-06 5.157574e-07
3.300787e-05 -2.206481e-05 -5.157598e-07
2.615289e-05 3.068443e-05 -1.282494e-22
3.621192e-05 1.561089e-05 -3.798117e-07
-3.974163e-05 2.874267e-07 5.210993e-07
3.714872e-05 1.298811e-05 -2.835349e-07
3.675149e-05 -1.419001e-05 -3.400402e-07
2.410699e-05 -3.101297e-05 1.021888e-07
1.291566e-05 3.709407e-05 9.084386e-08
1.586063e-05 3.593360e-05 9.076999e-08
1.817063e-05 3.482259e-05 9.084386e-08
2.040352e-05 3.356308e-05 9.084385e-08
2.040381e-05 -3.356289e-05 9.076999e-08
2.590164e-05 3.089681e-05 -1.282494e-22
3.804181e-05 -1.133888e-05 -5.143162e-07
3.589291e-05 1.713848e-05 -5.232641e-07
3.590433e-05 -1.711051e-05 -5.231976e-07
3.228679e-05 -2.244766e-05 -2.297644e-07
1.192159e-05 -3.785754e-05 -5.132470e-07
2.964425e-05 -2.640539e-05 -5.149695e-07
2.965990e-05 2.638642e-05 -5.147982e-07
-2.403069e-06 -3.952583e-05 4.858915e-07
-2.380943e-06 -3.922630e-05 -1.693461e-07
-1.780002e-05 3.537889e-05 4.880869e-07
2.564867e-05 3.110714e-05 -1.282494e-22
-1.777021e-05 3.506302e-05 -1.973823e-07
-2.704637e-05 2.893095e-05 4.880869e-07
-2.692878e-05 2.863628e-05 -1.973823e-07
-1.936382e-05 -3.456964e-05 -4.950728e-07
-1.919383e-05 -3.430441e-05 1.973823e-07
-1.037891e-05 3.821837e-05 4.873932e-07
-1.029839e-05 3.793598e-05 -1.973823e-07
-2.209699e-05 -3.286260e-05 4.867048e-07
-2.191825e-05 -3.263106e-05 -1.973823e-07
-2.938338e-05 2.654891e-05 -4.867048e-07
4.018343e-05 3.286258e-06 -1.282494e-22
2.539398e-05 3.131539e-05 -1.282494e-22
-2.919811e-05 2.631408e-05 1.898503e-07
-2.208678e-05 3.287157e-05 4.873932e-07
-2.192609e-05 3.262579e-05 -1.973823e-07
-2.072590e-05 3.374613e-05 4.873861e-07
-2.056904e-05 3.349792e-05 -1.973823e-07
-1.348977e-05 3.725645e-05 -4.950697e-07
-1.336514e-05 3.696713e-05 1.973823e-07
-2.350685e-05 3.187372e-05 -4.880869e-07
-2.328788e-05 3.166384e-05 1.886736e-07
-2.478738e-05 -3.088838e-05 -4.880869e-07
2.513760e-05 3.152156e-05 -1.282494e-22
-2.456002e-05 -3.068761e-05 1.886736e-07
-2.340918e-05 -3.194332e-05 4.873932e-07
-2.327856e-05 -3.167653e-05 -2.004261e-07
-1.193104e-05 3.776261e-05 4.873867e-07
-1.184618e-05 3.748151e-05 -1.973823e-07
-1.932262e-05 3.459268e-05 -4.950728e-07
-1.918559e-05 3.430902e-05 1.973823e-07
-2.828671e-05 2.771692e-05 -4.873932e-07
-2.804122e-05 2.754966e-05 2.004261e-07
-2.071345e-05 -3.375175e-05 4.867048e-07
2.487956e-05 3.172563e-05 -1.282494e-22
-2.061718e-05 -3.347150e-05 -2.039158e-07
-3.046037e-05 -2.530599e-05 4.867043e-07
-3.023560e-05 -2.510304e-05 -1.686852e-07
-3.497874e-05 -1.861245e-05 4.947166e-07
-3.472181e-05 -1.842834e-05 -1.977440e-07
-8.694832e-06 3.863814e-05 -4.880864e-07
-8.742470e-06 3.832447e-05 1.973829e-07
-1.191577e-05 -3.776562e-05 4.867054e-07
-1.188412e-05 -3.746677e-05 -1.908541e-07
-3.146722e-05 2.404250e-05 -4.867043e-07
2.461985e-05 3.192759e-05 -1.282494e-22
-3.123435e-05 2.384888e-05 1.686852e-07
-2.592208e-05 2.993783e-05 4.867054e-07
-2.576711e-05 2.968841e-05 -2.020074e-07
-1.643759e-05 3.602823e-05 4.867054e-07
-1.633383e-05 3.575474e-05 -1.973817e-07
-2.722259e-05 -2.876520e-05 4.880871e-07
-2.695316e-05 -2.862329e-05 -2.143265e-07
-1.499818e-05 -3.667521e-05 -4.950702e-07
-1.486185e-05 -3.639122e-05 1.973817e-07
-3.331552e-05 2.141122e-05 4.873866e-07
2.435850e-05 3.212742e-05 -1.282494e-22
-3.306627e-05 2.125601e-05 -1.973829e-07
-1.790758e-05 -3.532254e-05 4.873815e-07
-1.777862e-05 -3.505876e-05 -1.973817e-07
-4.046653e-06 -3.939353e-05 4.866941e-07
-3.997884e-06 -3.910515e-05 -1.973933e-07
-4.037292e-06 3.940337e-05 -4.901101e-07
-3.972208e-06 3.910364e-05 1.869798e-07
-7.228750e-06 -3.892897e-05 4.841124e-07
-7.131584e-06 -3.866813e-05 -2.231221e-07
-3.241875e-05 -2.275465e-05 -4.892686e-07
2.409554e-05 3.232511e-05 -1.282494e-22
-3.215898e-05 -2.260459e-05 1.965004e-07
-3.495442e-05 1.862627e-05 -4.892686e-07
-3.466350e-05 1.852477e-05 1.819952e-07
-2.939800e-05 -2.654256e-05 4.892686e-07
-2.917564e-05 -2.634180e-05 -1.946271e-07
-7.231124e-06 3.894176e-05 -4.892686e-07
-7.159591e-06 3.866438e-05 2.260733e-07
-3.419966e-05 -1.998136e-05 -4.898510e-07
-3.389444e-05 -1.990816e-05 1.965121e-07
-1.037777e-05 -3.821023e-05 4.841124e-07
2.383097e-05 3.252065e-05 -1.282494e-22
-1.119936e-05 -3.818001e-05 5.235914e-07
-1.030326e-05 -3.793589e-05 -2.002780e-07
-3.329869e-05 -2.137539e-05 4.728534e-07
-3.309133e-05 -2.123407e-05 -2.187070e-07
-8.810592e-06 -3.860173e-05 4.841124e-07
-9.640913e-06 -3.859305e-05 5.234047e-07
-8.058734e-06 -3.895417e-05 5.234047e-07
-8.736582e-06 -3.830221e-05 -1.269031e-07
-5.636728e-06 3.920430e-05 -4.892687e-07
-5.594092e-06 3.890777e-05 1.946270e-07
2.356481e-05 3.271403e-05 -1.282494e-22
-2.593736e-05 -2.993331e-05 -4.892691e-07
-2.576731e-05 -2.967735e-05 1.810978e-07
-1.496538e-05 3.665729e-05 4.841118e-07
-1.577689e-05 3.652695e-05 5.235900e-07
-1.485794e-05 3.639411e-05 -2.002787e-07
-2.469484e-05 3.096635e-05 -4.892691e-07
-2.453537e-05 3.070366e-05 1.810978e-07
-3.045617e-05 2.532137e-05 -4.892691e-07
-3.024331e-05 2.511388e-05 2.025748e-07
-1.644812e-05 -3.601637e-05 4.841118e-07
2.329708e-05 3.290523e-05 -1.282494e-22
-1.725365e-05 -3.585304e-05 5.235900e-07
-1.633003e-05 -3.575779e-05 -2.002787e-07
-3.145331e-05 -2.405014e-05 4.841118e-07
-3.111479e-05 -2.479935e-05 5.235913e-07
-3.122749e-05 -2.387746e-05 -2.002787e-07
-1.346215e-05 -3.724943e-05 4.892691e-07
-1.339533e-05 -3.694949e-05 -1.810980e-07
-2.829090e-05 -2.771957e-05 4.892691e-07
-2.807691e-05 -2.750991e-05 -1.946266e-07
-3.415438e-05 2.002993e-05 4.841118e-07
2.302780e-05 3.309423e-05 -1.282494e-22
-3.390986e-05 2.081463e-05 5.235899e-07
-3.390916e-05 1.988612e-05 -2.002787e-07
-3.240811e-05 2.274718e-05 -4.841118e-07
-3.210043e-05 2.350959e-05 -5.235913e-07
-3.217543e-05 2.258387e-05 2.002787e-07
-5.634873e-06 -3.919143e-05 4.841117e-07
-6.463140e-06 -3.925046e-05 5.234048e-07
-4.868900e-06 -3.948954e-05 5.235902e-07
-5.583630e-06 -3.893171e-05 -2.428564e-07
-2.447529e-06 3.951586e-05 4.829254e-07
4.015528e-05 3.614041e-06 -1.282494e-22
2.275699e-05 3.328104e-05 -1.282494e-22
-2.405589e-06 3.923690e-05 -2.012565e-07
-8.341715e-07 3.962221e-05 -4.976067e-07
-8.513913e-07 3.929636e-05 1.888172e-07
-7.990176e-07 -3.959310e-05 4.868276e-07
-8.019426e-07 -3.960047e-05 -4.897054e-07
-3.915088e-05 6.921516e-06 -5.223814e-07
-3.915088e-05 -6.921516e-06 5.223814e-07
8.671986e-06 -3.880052e-05 5.223681e-07
8.670868e-06 3.880099e-05 5.223832e-07
-2.900883e-05 2.712747e-05 -5.178772e-07
2.248466e-05 3.346562e-05 -1.282494e-22
-2.272296e-05 -3.257421e-05 5.178772e-07
-2.137540e-05 3.347393e-05 5.178772e-07
-1.107885e-05 3.814015e-05 5.178772e-07
3.827035e-05 1.062665e-05 -5.181255e-07
3.756254e-05 -1.296146e-05 -5.203910e-07
-1.620205e-06 -3.970847e-05 5.209840e-07
-3.297214e-06 3.964330e-05 5.234365e-07
[...]
POINT_DATA 9935
VECTORS 10.000GHz_fone_imag double
5.606763e-05 1.073458e-05 2.297347e-02
1.759596e-04 1.083242e-04 2.286149e-02
2.481405e-04 3.528682e-05 2.291086e-02
2.164471e-02 -4.059564e-03 -1.157807e-02
-2.058323e-02 -7.869726e-03 -1.131370e-02
1.703913e-02 -8.351444e-03 -1.591207e-02
-1.966194e-02 9.416941e-03 -1.207421e-02
-1.709310e-02 -8.404854e-03 -1.605704e-02
1.975117e-02 9.280731e-03 -1.182189e-02
2.021924e-02 -4.876569e-03 -1.351940e-02
-2.365645e-03 5.149004e-04 -2.553066e-02
-2.032998e-02 -4.863679e-03 -1.334563e-02
2.552138e-03 5.727323e-04 -2.541747e-02
-2.389426e-05 2.354353e-04 2.294507e-02
2.163660e-02 8.902480e-03 -7.245075e-03
-2.157062e-02 8.723430e-03 -8.027897e-03
-1.909279e-02 7.500740e-03 -1.394226e-02
-8.395387e-03 3.618763e-03 -2.355423e-02
2.306766e-02 3.868485e-03 -7.830913e-03
2.305624e-02 -3.870736e-03 -7.861944e-03
1.321809e-02 1.683887e-02 -1.254518e-02
1.407783e-02 1.843719e-02 -7.936718e-03
7.069953e-03 -2.029141e-02 -1.256627e-02
7.394147e-03 -2.206753e-02 -7.444208e-03
7.637284e-05 -4.295991e-05 2.296428e-02
6.099649e-03 2.023662e-02 -1.285994e-02
-6.478536e-04 -1.902740e-03 -2.537320e-02
8.113438e-03 1.930531e-02 -1.285438e-02
7.287804e-03 1.969459e-02 -1.274593e-02
9.478812e-03 1.883347e-02 -1.273092e-02
1.046754e-02 -1.816953e-02 -1.278510e-02
1.073975e-02 1.778092e-02 -1.284756e-02
1.230078e-02 1.748554e-02 -1.265502e-02
1.371598e-02 1.902162e-02 -6.389740e-03
1.226074e-02 -1.749416e-02 -1.258053e-02
-2.294928e-04 5.481511e-05 2.312738e-02
1.373691e-02 -1.917797e-02 -6.014884e-03
8.198587e-03 -1.968326e-02 -1.271481e-02
9.599322e-03 -2.111067e-02 -7.741069e-03
9.634906e-03 -1.918844e-02 -1.259888e-02
1.028001e-02 -2.109393e-02 -6.429495e-03
1.255543e-02 -1.594158e-02 -1.433986e-02
1.405717e-02 1.586294e-02 -1.289423e-02
1.588679e-02 1.681628e-02 -7.974729e-03
5.806540e-03 -1.980105e-02 -1.442818e-02
-5.942625e-04 2.599989e-03 -2.505811e-02
1.759238e-05 -1.635469e-04 2.320174e-02
-2.237114e-02 5.377520e-03 -8.101870e-03
-2.248711e-02 -5.185259e-03 -8.342263e-03
2.844436e-03 2.255206e-02 -9.167606e-03
2.844933e-03 -2.255201e-02 -9.166818e-03
-2.282095e-02 -1.765440e-03 -9.017742e-03
-1.927804e-02 1.191212e-02 -9.300420e-03
1.431138e-02 -1.247117e-02 -1.618076e-02
1.432994e-02 1.247357e-02 -1.616486e-02
-2.292903e-02 4.266573e-03 -7.572420e-03
-2.295226e-02 -4.248686e-03 -7.553171e-03
2.212341e-04 9.673461e-05 2.297398e-02
2.070699e-02 -8.777074e-03 -9.801330e-03
-2.133774e-02 -9.326680e-03 -8.363245e-03
2.129849e-02 -9.240177e-03 -8.379675e-03
2.088035e-02 -1.175584e-02 -5.217002e-03
2.148544e-02 -1.141574e-02 -3.956944e-03
2.129165e-02 1.074374e-02 -4.938579e-03
1.553268e-02 -4.358509e-03 -1.949582e-02
2.397814e-02 2.743241e-03 -4.603032e-03
-3.788681e-03 -2.383218e-02 -4.600976e-03
-3.788319e-03 2.383179e-02 -4.600555e-03
-1.841146e-04 9.662827e-05 2.313826e-02
-2.351040e-02 3.470199e-03 -4.892388e-03
2.373631e-02 3.586168e-03 -4.968915e-03
-4.650204e-03 -2.355914e-02 -4.975522e-03
-4.650984e-03 2.356169e-02 -4.972805e-03
-2.629779e-03 2.384955e-02 -5.332084e-03
-2.629172e-03 -2.384957e-02 -5.332938e-03
2.404808e-02 1.540590e-03 -5.121843e-03
2.049989e-02 -1.270534e-02 -5.124295e-03
2.413713e-02 9.435041e-04 -4.588025e-03
1.980443e-02 -1.338792e-02 -4.851258e-03
-2.805505e-05 2.258554e-05 2.279287e-02
1.621032e-02 6.979913e-03 -1.804498e-02
2.396394e-02 -2.320299e-04 -3.288221e-03
1.289554e-02 4.478103e-03 -2.118072e-02
1.491931e-02 -5.966911e-03 -1.942582e-02
-3.117812e-03 3.786216e-03 -2.494356e-02
-1.448011e-03 -3.914638e-03 -2.509836e-02
-1.575384e-03 -3.883971e-03 -2.507192e-02
-1.890141e-03 -3.863958e-03 -2.508082e-02
-2.003763e-03 -3.700806e-03 -2.504850e-02
-2.085152e-03 3.566129e-03 -2.498913e-02
1.451300e-04 -4.424573e-05 2.283337e-02
2.283921e-02 -6.798761e-03 -5.580836e-03
2.193153e-02 1.047121e-02 -1.687832e-03
2.189030e-02 -1.038535e-02 -1.486471e-03
8.891387e-03 -6.249475e-03 -2.286635e-02
7.091157e-03 -2.267257e-02 -5.200979e-03
1.795395e-02 -1.587782e-02 -4.999337e-03
1.784455e-02 1.596176e-02 -4.998449e-03
1.526853e-03 2.246526e-02 -9.697656e-03
-8.877594e-04 -7.968950e-03 -2.357770e-02
1.021036e-02 -2.043696e-02 -9.426719e-03
-1.499084e-06 9.482882e-05 2.318006e-02
-4.183424e-03 8.133877e-03 -2.324966e-02
1.580512e-02 -1.678498e-02 -9.228356e-03
-5.990280e-03 6.933123e-03 -2.329185e-02
-1.094467e-02 -1.998144e-02 -8.493480e-03
4.187814e-03 7.992369e-03 -2.346263e-02
6.064357e-03 -2.172356e-02 -9.642567e-03
-2.519548e-03 9.071144e-03 -2.346034e-02
1.251166e-02 1.866748e-02 -9.442670e-03
-5.348421e-03 -8.042570e-03 -2.341960e-02
-1.689957e-02 1.492780e-02 -9.505913e-03
-4.540685e-05 4.894420e-05 2.306950e-02
2.482062e-05 -5.568367e-05 2.290342e-02
6.745986e-03 -5.710202e-03 -2.342806e-02
1.258089e-02 -1.893372e-02 -9.487681e-03
-5.312036e-03 7.820133e-03 -2.356900e-02
1.196315e-02 -1.912834e-02 -9.540751e-03
-4.868930e-03 7.992456e-03 -2.354314e-02
-7.588760e-03 2.156027e-02 -8.471644e-03
3.081852e-03 -8.715400e-03 -2.357398e-02
-1.347025e-02 1.847305e-02 -9.313467e-03
5.478969e-03 -7.203591e-03 -2.339840e-02
-1.421848e-02 -1.790134e-02 -9.320814e-03
1.795160e-04 5.302110e-05 2.309966e-02
5.767997e-03 6.955476e-03 -2.339284e-02
1.335711e-02 1.831997e-02 -9.515681e-03
-5.759628e-03 -7.723993e-03 -2.332569e-02
6.726960e-03 -2.170985e-02 -9.460994e-03
-2.840526e-03 8.989755e-03 -2.358150e-02
-1.129036e-02 1.978665e-02 -8.493958e-03
4.621501e-03 -7.758262e-03 -2.346337e-02
-1.614293e-02 1.579045e-02 -9.534611e-03
6.691054e-03 -6.619795e-03 -2.352212e-02
1.187448e-02 1.909429e-02 -9.293709e-03
-6.535812e-05 1.130879e-05 2.309466e-02
-4.956097e-03 -8.088889e-03 -2.334497e-02
1.732688e-02 1.444799e-02 -9.372872e-03
-6.045914e-03 -5.328827e-03 -2.362562e-02
2.016680e-02 1.073909e-02 -8.408739e-03
-8.115787e-03 -4.432037e-03 -2.350291e-02
-5.134618e-03 2.231986e-02 -9.207327e-03
1.931917e-03 -9.017512e-03 -2.337544e-02
6.862923e-03 2.147023e-02 -9.508205e-03
-2.939426e-03 -8.688345e-03 -2.348298e-02
-1.792733e-02 1.376195e-02 -9.369168e-03
2.432677e-04 2.939123e-04 2.301411e-02
6.335549e-03 -5.107632e-03 -2.364772e-02
1.483775e-02 -1.698888e-02 -9.180915e-03
-6.097129e-03 7.033102e-03 -2.351770e-02
9.380421e-03 -2.041432e-02 -9.521172e-03
-4.046879e-03 8.402893e-03 -2.346421e-02
1.563820e-02 1.655490e-02 -9.472023e-03
-6.925326e-03 -7.169304e-03 -2.316166e-02
-8.450204e-03 -2.121422e-02 -8.479943e-03
3.499888e-03 8.550189e-03 -2.348243e-02
1.910574e-02 -1.211252e-02 -9.489282e-03
-1.924524e-04 9.830257e-06 2.286719e-02
-7.860666e-03 5.043174e-03 -2.347114e-02
1.013164e-02 2.014363e-02 -9.482316e-03
-4.372242e-03 -8.297075e-03 -2.346868e-02
2.242386e-03 2.235224e-02 -9.545645e-03
-7.464155e-04 -9.259245e-03 -2.347147e-02
-2.421339e-03 2.261710e-02 -8.966613e-03
8.130990e-04 -9.153104e-03 -2.354758e-02
4.074752e-03 2.191288e-02 -1.005239e-02
-1.912612e-03 -1.016579e-02 -2.319018e-02
-1.887026e-02 -1.320879e-02 -9.345991e-03
1.501910e-08 -6.956994e-05 2.294119e-02
8.142069e-03 5.516836e-03 -2.336035e-02
-2.043833e-02 1.076816e-02 -9.167958e-03
7.718151e-03 -4.075267e-03 -2.349033e-02
1.696118e-02 1.533915e-02 -9.362502e-03
-7.456309e-03 -6.626524e-03 -2.331201e-02
-4.023666e-03 2.229492e-02 -9.465630e-03
1.805838e-03 -1.031089e-02 -2.267111e-02
-1.976104e-02 -1.142833e-02 -9.289385e-03
8.371441e-03 4.581091e-03 -2.342715e-02
5.915623e-03 2.184621e-02 -9.590293e-03
1.084086e-04 2.225627e-04 2.293387e-02
6.595560e-03 2.245346e-02 -9.418607e-04
-2.567836e-03 -9.164760e-03 -2.320820e-02
1.871890e-02 1.192258e-02 -1.118204e-02
-8.619996e-03 -5.473676e-03 -2.317461e-02
5.041152e-03 2.183423e-02 -9.865501e-03
5.852506e-03 2.337408e-02 -1.420318e-03
4.877002e-03 2.360937e-02 -1.749343e-03
-1.205355e-03 -5.441279e-03 -2.451990e-02
-3.268388e-03 2.239478e-02 -9.535945e-03
1.301977e-03 -9.080855e-03 -2.358604e-02
-1.500172e-04 -9.560529e-05 2.289307e-02
-1.517714e-02 -1.711783e-02 -9.523810e-03
5.989314e-03 6.604255e-03 -2.371492e-02
8.592197e-03 -2.099584e-02 -9.689964e-03
9.059213e-03 -2.148987e-02 -1.029255e-03
-3.477181e-03 8.114831e-03 -2.368394e-02
-1.453423e-02 1.769951e-02 -9.364361e-03
5.730237e-03 -6.802623e-03 -2.370872e-02
-1.748526e-02 1.460371e-02 -9.326779e-03
7.180430e-03 -5.975465e-03 -2.350357e-02
9.519965e-03 2.053690e-02 -9.871050e-03
2.710218e-04 1.722417e-04 2.300517e-02
9.896085e-03 2.102867e-02 -9.309277e-04
-3.893544e-03 -8.025987e-03 -2.357622e-02
1.791905e-02 1.385791e-02 -9.753573e-03
1.834619e-02 1.457074e-02 -1.056115e-03
-6.905661e-03 -5.553423e-03 -2.374132e-02
8.019888e-03 2.144322e-02 -9.314407e-03
-3.223581e-03 -8.246468e-03 -2.374025e-02
1.615816e-02 1.592075e-02 -9.048892e-03
-6.545597e-03 -6.325233e-03 -2.350329e-02
1.949414e-02 -1.152184e-02 -9.774458e-03
1.134435e-04 1.159220e-05 2.311028e-02
1.991651e-02 -1.208075e-02 -9.264061e-04
-7.428853e-03 4.742022e-03 -2.358293e-02
-1.848255e-02 1.309311e-02 -9.745060e-03
-1.888921e-02 1.382934e-02 -1.061299e-03
7.222276e-03 -5.412691e-03 -2.380169e-02
3.045598e-03 2.232250e-02 -1.006670e-02
3.876427e-03 2.384165e-02 -1.540792e-03
3.051107e-03 2.311933e-02 -9.849005e-04
-1.460795e-03 -1.144687e-02 -2.226824e-02
1.326020e-03 -2.242082e-02 -9.868412e-03
2.370809e-06 -1.872443e-04 2.296739e-02
-2.260439e-05 2.426802e-04 2.316439e-02
-7.931528e-04 9.159840e-03 -2.366400e-02
-5.772197e-05 2.313577e-02 -8.042492e-03
2.810768e-04 -9.165829e-03 -2.368900e-02
6.355522e-04 2.269152e-02 -9.423647e-03
-3.819818e-04 -2.299149e-02 -8.999148e-03
-2.372285e-02 4.249343e-03 -2.377444e-03
2.374500e-02 4.255687e-03 -2.389143e-03
-5.329979e-03 2.353010e-02 -2.402040e-03
-5.343143e-03 -2.354204e-02 -2.420395e-03
-1.735119e-02 1.614560e-02 -4.018843e-03
-2.343013e-04 -2.489662e-05 2.300145e-02
1.352108e-02 1.944843e-02 -3.981391e-03
1.260927e-02 -2.003632e-02 -3.854245e-03
6.655046e-03 -2.283475e-02 -3.910669e-03
2.300143e-02 6.515563e-03 -4.439155e-03
2.263779e-02 -7.941206e-03 -3.249330e-03
9.315646e-04 2.375079e-02 -3.242017e-03
2.039302e-03 -2.420066e-02 -1.574236e-03
2.112180e-02 -1.166241e-02 -1.531515e-03
-2.005136e-02 1.351129e-02 -1.570964e-03
1.958267e-02 1.424997e-02 -1.542411e-03
-1.835136e-04 -5.949931e-04 2.312097e-02
2.060823e-02 1.272155e-02 -1.584816e-03
2.001540e-02 1.345983e-02 -2.319167e-03
8.563714e-03 -2.262276e-02 -1.440530e-03
9.431975e-03 2.224086e-02 -1.407184e-03
1.022347e-03 -2.404187e-02 -1.956130e-03
4.220395e-05 2.420886e-02 -3.937806e-04
5.388428e-04 2.313440e-02 -7.783870e-03
9.315255e-04 1.783809e-02 -1.770340e-02
1.594269e-03 2.396056e-02 -2.837509e-03
3.684665e-05 -2.423211e-02 -4.865073e-04
3.265247e-04 2.960217e-04 2.299362e-02
8.387037e-04 -2.316945e-02 -7.728321e-03
9.460815e-04 -1.780364e-02 -1.774612e-02
1.603560e-03 -2.396515e-02 -2.845343e-03
-2.024245e-02 1.320698e-02 -1.374223e-03
-8.607018e-03 -2.250616e-02 -2.013992e-03
1.608094e-02 1.793653e-02 -2.059088e-03
1.535247e-02 -1.859934e-02 -2.025894e-03
-5.899893e-03 2.343501e-02 -2.106575e-03
2.106869e-02 1.172923e-02 -1.330011e-03
-1.226168e-02 2.082746e-02 -2.048018e-03
1.756214e-04 1.618818e-04 2.295315e-02
1.211821e-02 2.082457e-02 -2.118306e-03
-1.385718e-02 1.977544e-02 -2.128921e-03
-7.695468e-03 2.288165e-02 -2.166129e-03
-1.460170e-02 -1.928482e-02 -2.098608e-03
-1.131032e-02 -2.136812e-02 -2.011183e-03
1.702966e-02 -1.709965e-02 -2.084704e-03
1.140950e-02 -2.123628e-02 -2.077731e-03
1.667844e-02 -9.513691e-03 -1.612788e-02
1.911354e-02 1.828292e-03 -1.556757e-02
-2.468181e-03 1.930357e-02 -1.540264e-02
-4.962133e-05 3.131954e-04 2.295743e-02
-2.469633e-03 -1.930370e-02 -1.540310e-02
1.985611e-03 5.791596e-04 -2.549823e-02
-2.258271e-02 7.762815e-03 -5.234436e-03
-2.293295e-02 7.731607e-03 -1.553625e-03
-2.299591e-02 -7.981805e-04 -8.480968e-03
-4.728390e-03 -4.758561e-03 -2.459404e-02
1.654725e-02 1.674287e-02 -6.424385e-03
5.134863e-03 2.316424e-02 -6.183110e-03
5.148174e-03 -2.317349e-02 -6.151056e-03
-2.338879e-02 -4.114281e-03 -6.147552e-03
1.922142e-04 1.191374e-04 2.298567e-02
2.341748e-02 -4.114859e-03 -6.154176e-03
1.414781e-02 4.175050e-03 -2.048737e-02
2.061068e-02 -7.886340e-04 -1.355579e-02
2.407143e-02 -6.299952e-04 1.654144e-03
-1.198889e-02 3.010328e-03 -2.231259e-02
1.204762e-02 3.064667e-03 -2.249993e-02
-1.644920e-02 1.721885e-02 -4.502623e-03
-1.672868e-02 1.750228e-02 -1.795619e-03
2.189318e-02 -1.077818e-02 -2.760697e-04
-2.199220e-02 -1.069817e-02 -2.460235e-04
-1.266589e-04 3.025034e-04 2.295697e-02
-1.498411e-02 -1.849565e-02 -3.734970e-03
-1.562408e-02 -1.826268e-02 -3.040711e-03
-1.606666e-02 4.696497e-03 -1.885783e-02
-1.306019e-02 -1.987441e-02 -5.626740e-03
-1.266877e-02 -2.017026e-02 -4.941019e-03
-1.307077e-02 1.989890e-02 -5.648108e-03
-1.274714e-02 2.013085e-02 -4.772915e-03
-1.112876e-02 2.102514e-02 -4.695027e-03
-1.199423e-02 2.083179e-02 -3.099369e-03
-1.039076e-02 -2.142878e-02 -5.034219e-03
-3.157163e-04 -4.293141e-04 2.308165e-02
-9.869973e-03 -2.174957e-02 -4.815570e-03
-8.271807e-03 2.233218e-02 -4.690017e-03
-9.197439e-03 2.218835e-02 -3.264595e-03
-8.465018e-03 -2.237060e-02 -4.059150e-03
-9.095735e-03 -2.221941e-02 -3.189500e-03
-6.995860e-03 -2.304842e-02 -3.763667e-03
-7.643697e-03 -2.268134e-02 -4.814280e-03
-1.188884e-02 -2.067868e-02 -5.064321e-03
-1.126413e-02 -2.103459e-02 -4.902156e-03
-2.322173e-02 8.024235e-04 -7.925522e-03
1.215911e-05 -1.126662e-04 2.294673e-02
-2.140270e-02 1.005217e-02 -6.475832e-03
-2.100082e-02 -1.000217e-02 -7.468992e-03
-2.162030e-02 -9.643349e-03 -5.371086e-03
-9.495974e-03 1.055885e-02 -2.065651e-02
2.305029e-02 7.200264e-03 -2.632072e-03
-1.897533e-02 2.251934e-04 -1.646474e-02
-1.890483e-02 1.494637e-02 -5.312833e-04
-1.893653e-02 -1.497014e-02 -7.476736e-04
-1.045829e-02 2.172487e-02 -1.860281e-03
-1.003624e-02 2.182912e-02 1.308930e-03
5.507394e-04 7.432355e-05 2.303926e-02
1.261680e-04 -2.083973e-05 2.317074e-02
-7.535262e-03 2.285926e-02 -1.835322e-03
-7.132740e-03 2.270469e-02 1.270289e-03
-1.418967e-02 1.949384e-02 -1.833231e-03
-1.441368e-02 1.933100e-02 1.171364e-03
-1.417605e-02 -1.947901e-02 -1.769365e-03
-1.446221e-02 -1.919020e-02 1.238877e-03
-1.562514e-02 1.845646e-02 -2.312513e-03
2.297413e-02 -7.556069e-03 -2.095709e-03
1.118490e-02 -1.285304e-02 -1.804827e-02
1.511745e-02 -1.778447e-02 -7.287815e-03
1.247835e-04 1.303741e-04 2.282764e-02
-1.961488e-02 4.067344e-03 -1.488343e-02
-1.945541e-02 -4.279453e-03 -1.509499e-02
4.156580e-03 2.268123e-02 -8.449198e-03
3.611840e-03 2.235498e-02 -9.266236e-03
4.156898e-03 -2.268225e-02 -8.445681e-03
3.612133e-03 -2.235469e-02 -9.265675e-03
-2.284598e-02 -3.132993e-03 -8.444550e-03
-2.248620e-02 -2.611727e-03 -9.262162e-03
2.330349e-02 -3.366394e-03 -7.307695e-03
-2.355360e-02 -1.264931e-03 4.164834e-03
2.985569e-04 1.879345e-04 2.289038e-02
-2.356825e-02 1.264896e-03 4.217729e-03
1.957010e-02 1.326668e-02 4.878595e-03
1.258365e-02 8.913134e-03 -1.980927e-02
1.744782e-02 1.268990e-02 -1.245685e-02
1.925060e-02 -1.351135e-02 3.909695e-03
-1.689362e-03 2.348015e-02 4.399993e-03
-1.685180e-03 -2.348346e-02 4.398113e-03
1.848751e-02 1.458407e-02 3.980556e-03
1.860074e-02 -1.448176e-02 4.359059e-03
1.907949e-02 -1.460918e-02 -5.264494e-04
2.403582e-05 2.985359e-04 2.299871e-02
2.205432e-02 -9.894627e-03 1.090338e-03
-2.331511e-02 2.501112e-03 5.224782e-03
-2.320960e-02 1.515920e-03 5.520626e-03
2.046701e-02 1.162894e-02 5.142279e-03
2.015120e-02 1.263808e-02 3.751177e-03
2.050787e-02 1.285214e-02 -2.679624e-04
-2.038887e-02 1.073712e-02 -8.272638e-03
-2.010649e-02 1.089737e-02 -8.742642e-03
-2.146329e-02 1.075654e-02 -3.593656e-03
-2.056832e-02 -1.061356e-02 -8.668330e-03
7.206753e-06 3.412180e-04 2.308134e-02
-2.103020e-02 -1.153430e-02 3.320454e-04
-2.148780e-02 -1.078201e-02 -3.465037e-03
-2.238677e-04 2.383855e-02 -4.834053e-03
-2.162026e-04 -2.401387e-02 -4.685543e-03
2.141294e-04 -2.386139e-02 -4.496678e-03
1.277837e-02 4.066599e-03 -2.169801e-02
-1.453579e-02 -4.772565e-03 -2.013391e-02
-2.093074e-02 -7.100812e-03 -1.095122e-02
-1.571999e-02 1.841793e-02 -4.209506e-03
2.413063e-02 -2.816836e-03 2.145176e-03
8.338138e-05 2.673914e-04 2.302174e-02
-1.755760e-02 -1.587120e-02 -5.441482e-03
-3.487603e-03 -2.848548e-03 -2.481465e-02
-1.752651e-02 1.585142e-02 -5.528638e-03
-3.402678e-03 2.796257e-03 -2.486930e-02
-5.206174e-03 -6.040667e-03 -2.401604e-02
2.252441e-02 -8.547026e-03 -1.849156e-05
4.131832e-03 -1.759963e-03 -2.495736e-02
-2.301120e-02 -6.538183e-03 -3.853103e-03
-2.312222e-02 -5.952310e-03 -4.997643e-03
2.273925e-02 3.096770e-03 -9.180906e-03
-2.061377e-04 -2.202628e-04 2.308086e-02
2.264115e-02 2.162205e-03 -9.725967e-03
2.264394e-02 -3.147609e-03 -9.567342e-03
2.275754e-02 -2.303474e-03 -9.383361e-03
-2.399060e-02 -2.407877e-03 -2.653222e-03
-2.386078e-02 -3.328784e-03 -2.280235e-03
-2.398099e-02 2.419910e-03 -2.389275e-03
-2.386383e-02 3.319034e-03 -2.547619e-03
-1.301579e-02 -1.254732e-02 -1.725330e-02
-1.335651e-02 1.248549e-02 -1.709972e-02
1.901358e-02 -4.542738e-04 1.402556e-02
-1.234075e-04 -5.380612e-05 2.292276e-02
2.379495e-02 -1.228646e-03 2.170472e-03
1.891800e-02 5.183006e-04 1.395257e-02
2.382189e-02 1.171014e-03 2.285063e-03
-1.977224e-02 -1.185939e-02 -8.005673e-03
-2.081653e-02 -1.207971e-02 1.820637e-03
2.265066e-03 2.386100e-02 -4.868928e-03
2.266387e-03 -2.386222e-02 -4.868346e-03
1.645935e-02 -1.764657e-02 -2.609102e-03
-1.969749e-02 -1.378426e-02 -2.022146e-03
-9.474844e-03 1.180530e-02 -2.013896e-02
3.834497e-05 -3.524676e-04 2.304680e-02
-7.165993e-03 -1.233895e-02 -2.097036e-02
-6.438351e-03 -1.272585e-02 -2.100478e-02
-4.853803e-03 -1.334129e-02 -2.112339e-02
2.316853e-02 -1.977762e-03 -7.687770e-03
2.399407e-02 -2.109266e-03 1.172543e-03
-9.420613e-03 -1.058798e-02 -2.108122e-02
6.882893e-03 -1.547371e-03 -2.394578e-02
2.353566e-02 -5.498118e-03 -2.540625e-03
-2.202021e-02 -6.887331e-03 -6.981212e-03
-2.284749e-02 -7.839148e-03 -2.092193e-03
3.330320e-05 2.007210e-04 2.289722e-02
-2.302146e-02 -6.642221e-03 1.585175e-03
1.001537e-02 3.936166e-03 -2.310297e-02
-9.990548e-03 4.048361e-03 -2.297642e-02
7.722176e-03 1.725317e-03 -2.393144e-02
2.363368e-02 5.390103e-03 -2.481499e-03
-7.188584e-03 1.231969e-02 -2.102621e-02
-5.486090e-03 -1.307232e-02 -2.100541e-02
-2.193670e-02 7.870603e-03 -7.029039e-03
-2.179709e-02 8.091911e-03 -7.751285e-03
-2.249966e-02 7.266254e-03 3.773249e-03
6.497374e-05 -1.343091e-05 2.298980e-02
2.846238e-04 9.695229e-05 2.292595e-02
2.301334e-02 -6.593715e-03 -3.341047e-03
2.308237e-02 -5.967120e-03 -5.295988e-03
-2.360375e-02 -1.161425e-03 4.094099e-03
2.305376e-02 -1.644659e-03 -8.514055e-03
2.301594e-02 1.629057e-03 -8.548192e-03
-1.757383e-02 -1.337048e-02 -1.076753e-02
-1.737045e-02 1.329627e-02 -1.112874e-02
-1.866121e-02 -1.178442e-02 -1.119049e-02
2.262080e-02 -7.702759e-03 1.827137e-03
-2.312525e-02 6.079122e-03 2.411740e-03
1.833285e-05 3.809789e-04 2.295469e-02
-2.122645e-02 1.119626e-03 -1.251397e-02
-2.124499e-02 -1.103104e-03 -1.246357e-02
-2.215796e-02 9.043357e-03 3.111282e-03
5.869204e-03 -2.369806e-03 -2.468488e-02
1.464818e-02 -1.888152e-02 8.930064e-04
1.441241e-02 -1.916953e-02 -2.767134e-03
1.324353e-02 -1.513464e-03 -2.162449e-02
6.546666e-03 -2.303446e-02 2.872268e-03
5.291257e-03 -2.159137e-02 -1.117244e-02
9.172619e-05 -2.408391e-02 1.217667e-03
-1.972825e-05 1.379189e-04 2.306225e-02
1.720929e-02 1.653446e-02 2.569623e-03
1.419908e-04 2.370424e-02 3.852208e-03
-3.288675e-04 -1.854105e-03 -2.548751e-02
-3.289747e-04 1.854286e-03 -2.548573e-02
1.869826e-03 2.465040e-04 -2.547664e-02
-2.014270e-03 1.492646e-04 -2.569337e-02
2.323181e-02 -5.210037e-03 4.154869e-03
2.220491e-02 -4.444168e-03 -1.002040e-02
-2.332454e-02 -5.272543e-03 4.248952e-03
-2.222687e-02 -4.431535e-03 -1.011622e-02
1.094182e-04 3.845375e-04 2.311916e-02
1.750159e-02 -1.650228e-02 -9.196228e-04
2.294337e-02 -4.872599e-03 4.955907e-03
2.302869e-02 4.925996e-03 4.912212e-03
7.123816e-03 2.259336e-02 3.750884e-03
8.656563e-03 2.207105e-02 2.681511e-03
1.010734e-02 2.136387e-02 3.765854e-03
6.197649e-03 2.302310e-02 3.843809e-03
5.425027e-03 2.211500e-02 -9.548908e-03
1.113221e-02 2.087945e-02 3.970249e-03