# vtk DataFile Version 2.0
Electric current density generated by TTH
ASCII
DATASET UNSTRUCTURED_GRID
POINTS 3651 double
-5.966681e-06 3.067535e-05 -2.754532e-22
2.932000e-05 9.488465e-06 8.869363e-07
2.932000e-05 -9.488465e-06 8.869363e-07
4.047965e-06 2.897331e-05 7.115438e-07
4.047965e-06 -2.897331e-05 7.115438e-07
-2.198008e-05 -1.949738e-05 8.432244e-07
-2.110390e-05 -2.021057e-05 6.675688e-07
1.441359e-05 2.722348e-05 8.971979e-07
1.441359e-05 -2.722348e-05 8.971979e-07
2.580390e-05 -1.416030e-05 -8.867423e-07
2.580390e-05 1.416030e-05 -8.867423e-07
-6.658403e-06 3.053267e-05 -2.754532e-22
-2.986012e-05 -7.504379e-06 -9.083771e-07
-2.986012e-05 7.504379e-06 -9.083771e-07
-9.064358e-07 -2.926674e-05 7.422973e-07
-9.064358e-07 2.926674e-05 7.422973e-07
-2.823019e-05 -7.158424e-06 5.106891e-07
1.363548e-05 -2.563685e-05 2.840584e-07
1.363548e-05 2.563685e-05 2.840584e-07
-2.072496e-05 2.028631e-05 -1.315244e-09
2.381462e-05 -1.732690e-05 -8.997622e-07
2.381462e-05 1.732690e-05 -8.997622e-07
-7.346725e-06 3.037439e-05 -2.754532e-22
-3.067982e-05 -3.602771e-06 -8.243469e-07
2.899028e-05 1.047742e-05 -8.803032e-07
2.899028e-05 -1.047742e-05 -8.803032e-07
2.792106e-05 8.629124e-06 -6.723155e-07
2.792106e-05 -8.629124e-06 -6.723155e-07
-2.209142e-05 2.157460e-05 -8.352616e-07
2.318115e-05 1.803361e-05 8.326421e-07
2.318115e-05 -1.803361e-05 8.326421e-07
-3.060719e-05 3.444272e-06 -8.997162e-07
4.732176e-07 2.929149e-05 7.585224e-07
-8.031293e-06 3.020060e-05 -2.754532e-22
4.732176e-07 -2.929149e-05 7.585224e-07
-1.743194e-05 2.370669e-05 -8.803777e-07
-2.988258e-05 7.519571e-06 8.892136e-07
2.828286e-05 8.791158e-06 1.003358e-06
2.828286e-05 -8.791158e-06 1.003358e-06
1.521691e-05 -2.477916e-05 -4.103314e-07
1.521691e-05 2.477916e-05 -4.103314e-07
-2.987242e-05 -7.571331e-06 8.870183e-07
-1.555762e-05 -2.662730e-05 -8.692967e-07
-1.555762e-05 2.662730e-05 -8.692967e-07
-8.711759e-06 3.001139e-05 -2.754532e-22
1.815564e-05 2.316616e-05 -8.859855e-07
1.815564e-05 -2.316616e-05 -8.859855e-07
-2.937778e-05 9.364658e-06 -8.732939e-07
-2.937778e-05 -9.364658e-06 -8.732939e-07
-2.820388e-05 -8.386610e-06 -8.792179e-07
-2.820235e-05 8.394668e-06 -8.798845e-07
1.153412e-05 2.695771e-05 -7.862985e-07
1.153412e-05 -2.695771e-05 -7.862985e-07
-2.876685e-05 -5.900947e-06 -8.291562e-07
2.903535e-05 4.055107e-06 -7.817533e-07
-9.387776e-06 2.980684e-05 -2.754532e-22
2.903535e-05 -4.055107e-06 -7.817533e-07
1.760298e-05 -2.334071e-05 6.860017e-07
1.760298e-05 2.334071e-05 6.860017e-07
1.777115e-05 -2.516799e-05 -8.926047e-07
1.857962e-05 -2.451645e-05 -9.277279e-07
1.777115e-05 2.516799e-05 -8.926047e-07
1.857962e-05 2.451645e-05 -9.277279e-07
-2.689196e-05 -1.171128e-05 -7.962328e-07
-2.689196e-05 1.171128e-05 -7.962328e-07
-2.908886e-05 5.941329e-06 -1.036579e-06
-1.005900e-05 2.958707e-05 -2.754532e-22
2.938386e-05 -5.692044e-06 1.107495e-06
2.938386e-05 5.692044e-06 1.107495e-06
-3.071145e-05 -3.214111e-06 8.348242e-07
-1.568016e-05 2.482885e-05 -8.289447e-07
-3.018732e-05 -6.598348e-06 -8.155172e-07
-2.334372e-05 -1.815575e-05 9.794639e-07
-2.334372e-05 1.815575e-05 9.794639e-07
-2.838899e-05 -7.050786e-06 -7.075501e-07
-2.366062e-05 -1.717032e-05 -6.858007e-07
-2.366062e-05 1.717032e-05 -6.858007e-07
-1.072508e-05 2.935219e-05 -2.754532e-22
-2.841657e-05 7.024657e-06 -7.321350e-07
3.016670e-06 2.920413e-05 -8.233221e-07
3.016670e-06 -2.920413e-05 -8.233221e-07
-2.867032e-05 -4.818241e-06 3.942403e-07
2.405604e-05 1.663108e-05 6.998169e-07
2.405604e-05 -1.663108e-05 6.998169e-07
-1.296325e-05 -2.801046e-05 -8.476446e-07
-1.286969e-05 2.810627e-05 -8.033593e-07
5.323871e-06 -3.008767e-05 1.039406e-06
5.323871e-06 3.008767e-05 1.039406e-06
-1.138568e-05 2.910231e-05 -2.754532e-22
1.984231e-05 -2.116182e-05 1.363721e-07
1.984231e-05 2.116182e-05 1.363721e-07
-2.007076e-06 -3.083861e-05 -8.118761e-07
-2.007076e-06 3.083861e-05 -8.118761e-07
-2.254527e-07 -3.087368e-05 8.390239e-07
-2.254527e-07 3.087368e-05 8.390239e-07
-2.078395e-05 -2.115427e-05 1.021856e-06
-2.917489e-05 -3.872531e-06 -8.842823e-07
-2.448231e-05 -1.633333e-05 -8.841560e-07
-2.448231e-05 1.633333e-05 -8.841560e-07
-1.204047e-05 2.883757e-05 -2.754532e-22
2.518164e-05 -1.507017e-05 8.111379e-07
2.518164e-05 1.507017e-05 8.111379e-07
2.777431e-05 1.347725e-05 8.417138e-07
2.777431e-05 -1.347725e-05 8.417138e-07
-2.621106e-05 -1.344791e-05 9.061675e-07
-2.621106e-05 1.344791e-05 9.061675e-07
-3.031299e-05 -1.794485e-06 -1.098622e-06
-3.081846e-05 7.628239e-07 8.784013e-07
-2.093453e-05 2.266617e-05 8.563267e-07
-1.470469e-05 -2.709485e-05 8.784114e-07
-1.268911e-05 2.855809e-05 -2.754532e-22
-1.770257e-05 2.528413e-05 8.471314e-07
-1.093392e-05 -2.886378e-05 8.471215e-07
-1.411905e-05 2.744670e-05 8.471215e-07
-1.219950e-05 2.835209e-05 8.471215e-07
-1.027883e-05 2.910351e-05 8.471215e-07
-1.592051e-05 2.644251e-05 8.471215e-07
-1.283713e-05 -2.806914e-05 8.471215e-07
-1.933738e-05 2.400885e-05 8.784083e-07
-1.650668e-05 -2.603637e-05 8.783564e-07
-2.476694e-05 1.836461e-05 8.744809e-07
-1.333127e-05 2.826403e-05 -2.754532e-22
1.045848e-05 2.766226e-05 -9.796531e-07
1.045848e-05 -2.766226e-05 -9.796531e-07
-2.088891e-05 -2.017871e-05 -3.063534e-07
7.679805e-06 2.817822e-05 6.473759e-07
7.679805e-06 -2.817822e-05 6.473759e-07
-2.612748e-05 1.640940e-05 8.576519e-07
-2.612748e-05 -1.640940e-05 8.576519e-07
-2.071525e-05 2.282643e-05 -8.808859e-07
-1.741357e-05 -2.379547e-05 -9.253981e-07
-6.258552e-06 -2.881277e-05 9.240844e-07
-1.396661e-05 2.795553e-05 -2.754532e-22
2.116280e-05 -2.000152e-05 5.017776e-07
2.116280e-05 2.000152e-05 5.017776e-07
-2.632515e-05 1.604359e-05 -8.777424e-07
-2.632515e-05 -1.604359e-05 -8.777424e-07
-2.250888e-05 -2.111594e-05 8.490397e-07
-3.021883e-05 6.500911e-06 -8.057584e-07
-7.629392e-06 -2.860880e-05 9.987456e-07
3.021920e-05 -6.618336e-06 -7.803565e-07
3.021920e-05 6.618336e-06 -7.803565e-07
3.064167e-05 -3.718627e-06 -8.461085e-07
-1.459483e-05 2.763276e-05 -2.754532e-22
3.064167e-05 3.718627e-06 -8.461085e-07
-1.906076e-05 2.232867e-05 -8.217423e-07
-2.383354e-06 -2.896335e-05 -3.631300e-07
-2.383354e-06 2.896335e-05 -3.631300e-07
-9.264447e-06 -2.947298e-05 8.204893e-07
-1.156477e-05 2.866755e-05 -8.036630e-07
-1.156477e-05 -2.866755e-05 -8.036630e-07
1.017982e-05 2.910657e-05 -8.723649e-07
1.017982e-05 -2.910657e-05 -8.723649e-07
-2.201904e-05 1.984083e-05 -1.014102e-06
-1.521559e-05 2.729586e-05 -2.754532e-22
1.942872e-05 2.221085e-05 9.406797e-07
1.942872e-05 -2.221085e-05 9.406797e-07
-8.894767e-06 2.823028e-05 9.933858e-07
-9.546232e-06 -2.802149e-05 9.957839e-07
-1.264859e-05 2.676768e-05 9.972052e-07
-1.325029e-05 -2.647499e-05 9.972050e-07
-6.931993e-06 -3.014663e-05 7.825458e-07
-1.492655e-05 -2.587546e-05 -1.095670e-06
-1.502652e-05 2.579362e-05 -1.090681e-06
1.295202e-05 -2.802258e-05 8.421227e-07
-1.582857e-05 2.694503e-05 -2.754532e-22
1.295202e-05 2.802258e-05 8.421227e-07
-4.808897e-06 -3.053689e-05 -8.027943e-07
-4.808897e-06 3.053689e-05 -8.027943e-07
2.200037e-05 2.175315e-05 -7.767645e-07
2.200037e-05 -2.175315e-05 -7.767645e-07
-4.096232e-06 3.066562e-05 7.777163e-07
-4.133175e-06 -3.064915e-05 7.894638e-07
3.077061e-05 2.933673e-06 8.058047e-07
3.077061e-05 -2.933673e-06 8.058047e-07
1.576036e-06 3.086479e-05 8.107711e-07
-1.643347e-05 2.658043e-05 -2.754532e-22
1.576036e-06 -3.086479e-05 8.107711e-07
-3.089005e-05 -1.437998e-08 -8.248841e-07
-9.996980e-06 2.917921e-05 -8.651044e-07
-1.001524e-05 -2.922957e-05 -8.176496e-07
-2.442567e-05 -1.580621e-05 4.473550e-07
-2.442567e-05 1.580621e-05 4.473550e-07
-2.519493e-05 -1.442581e-05 -2.644470e-07
-2.519493e-05 1.442581e-05 -2.644470e-07
-3.817447e-06 -2.915799e-05 -8.649225e-07
-3.817447e-06 2.915799e-05 -8.649225e-07
-1.702998e-05 2.620225e-05 -2.754532e-22
2.674454e-05 1.543680e-05 8.342220e-07
2.674454e-05 -1.543680e-05 8.342220e-07
-5.045222e-06 2.857952e-05 2.133713e-07
-5.074535e-06 -2.857224e-05 2.023890e-07
-2.973979e-05 2.285471e-06 1.084383e-06
6.316863e-07 -3.086239e-05 -8.440329e-07
6.316863e-07 3.086239e-05 -8.440329e-07
-2.866328e-05 4.442573e-06 1.006447e-07
2.750226e-05 9.252335e-06 -1.883890e-07
2.750226e-05 -9.252335e-06 -1.883890e-07
-1.761779e-05 2.581069e-05 -2.754532e-22
1.153237e-05 -2.868037e-05 -8.038687e-07
1.153237e-05 2.868037e-05 -8.038687e-07
-2.382183e-05 -1.968852e-05 -8.108007e-07
-2.371119e-05 1.985866e-05 -7.872697e-07
2.764114e-05 1.379486e-05 -8.228454e-07
2.764114e-05 -1.379486e-05 -8.228454e-07
1.493798e-05 -2.551629e-05 9.762289e-07
1.493798e-05 2.551629e-05 9.762289e-07
7.396181e-06 -2.857977e-05 -9.484503e-07
7.396181e-06 2.857977e-05 -9.484503e-07
-1.819659e-05 2.540595e-05 -2.754532e-22
1.411001e-05 -2.752815e-05 -7.822097e-07
1.411001e-05 2.752815e-05 -7.822097e-07
-2.260569e-05 -1.817974e-05 -1.335895e-07
-2.258048e-05 1.821161e-05 -1.365575e-07
-1.115988e-05 -2.767682e-05 -1.088289e-06
-1.106796e-05 2.770299e-05 -1.085647e-06
5.586227e-06 -2.907230e-05 -9.964007e-07
5.586227e-06 2.907230e-05 -9.964007e-07
-7.669563e-06 2.996871e-05 -7.813007e-07
-7.642307e-06 -3.000761e-05 -7.479393e-07
-1.876611e-05 2.498823e-05 -2.754532e-22
-2.396304e-05 -1.802336e-05 -1.115730e-06
-2.396160e-05 1.802477e-05 -1.115691e-06
1.270120e-05 2.607449e-05 -7.397834e-08
1.270120e-05 -2.607449e-05 -7.397834e-08
-2.307495e-05 -1.891113e-05 -1.086229e-06
5.584906e-06 -2.856967e-05 4.839008e-07
5.584906e-06 2.856967e-05 4.839008e-07
2.577585e-05 1.706453e-05 -8.033380e-07
2.577585e-05 -1.706453e-05 -8.033380e-07
-3.083626e-05 2.505980e-06 7.777932e-07
-1.932603e-05 2.455774e-05 -2.754532e-22
2.105470e-05 -2.022024e-05 -6.266253e-07
2.105470e-05 2.022024e-05 -6.266253e-07
1.645548e-05 2.500692e-05 1.108421e-06
1.645548e-05 -2.500692e-05 1.108421e-06
1.989081e-05 -2.372595e-05 -7.532808e-07
1.989081e-05 2.372595e-05 -7.532808e-07
2.991624e-05 -7.913120e-06 7.702330e-07
2.991624e-05 7.913120e-06 7.702330e-07
-2.916045e-05 7.283194e-06 1.122479e-06
2.945002e-05 4.957997e-06 -1.093875e-06
-1.987609e-05 2.411471e-05 -2.754532e-22
[...]
POINT_DATA 3651
VECTORS 10.000GHz_fone_imag double
2.536859e+10 5.395864e+09 -5.019755e+08
8.316513e+09 -2.578047e+10 -2.496292e+08
-8.315877e+09 -2.577890e+10 2.493548e+08
3.229106e+10 -5.743288e+09 2.029204e+08
-3.230226e+10 -5.741686e+09 -2.036868e+08
-2.151312e+10 2.360124e+10 5.564782e+08
-2.395099e+10 2.435123e+10 -3.827370e+08
2.382954e+10 -1.257188e+10 -4.360277e+07
-2.383119e+10 -1.257418e+10 4.348295e+07
-1.557501e+10 -2.818072e+10 3.837989e+08
1.557567e+10 -2.818095e+10 -3.842116e+08
2.421491e+10 5.537494e+09 -8.461289e+08
-6.530190e+09 2.567024e+10 6.566730e+08
6.212501e+09 2.631785e+10 -5.211991e+08
-3.476275e+10 -4.104312e+08 4.466559e+08
3.440152e+10 -4.326904e+08 -4.475891e+08
-7.754814e+09 3.250454e+10 3.229851e+08
-2.944358e+10 -1.630926e+10 7.471024e+08
2.944445e+10 -1.630967e+10 -7.472010e+08
2.468530e+10 2.361364e+10 1.595108e+09
-1.980512e+10 -2.616782e+10 -6.213152e+08
1.980279e+10 -2.616387e+10 6.210383e+08
2.488972e+10 6.051119e+09 -3.919350e+08
-3.398068e+09 2.776674e+10 1.622543e+07
1.020772e+10 -2.487036e+10 -3.718439e+08
-1.020578e+10 -2.487007e+10 3.732576e+08
1.118695e+10 -3.160255e+10 -1.588180e+09
-1.118420e+10 -3.160914e+10 1.585086e+09
1.792473e+10 1.845043e+10 -1.387072e+08
2.082119e+10 -2.502237e+10 1.990376e+09
-2.082284e+10 -2.501683e+10 -1.994963e+09
3.101485e+09 2.734678e+10 1.087503e+08
3.255226e+10 -4.078760e+08 3.583484e+08
2.606472e+10 5.797298e+09 -4.750712e+08
-3.257196e+10 -4.134129e+08 -3.501947e+08
2.585286e+10 1.977158e+10 2.075551e+08
6.288148e+09 2.686440e+10 -7.114928e+08
1.064295e+10 -3.078019e+10 3.627247e+08
-1.064184e+10 -3.078025e+10 -3.621749e+08
-2.907915e+10 -1.700661e+10 -1.055594e+09
2.908039e+10 -1.700819e+10 1.057145e+09
-6.450822e+09 2.595785e+10 7.395835e+08
-2.440826e+10 1.391240e+10 -9.797831e+07
2.293430e+10 1.337664e+10 1.011955e+09
2.398686e+10 7.763960e+09 4.056667e+08
2.587831e+10 -1.940865e+10 1.308938e+09
-2.587866e+10 -1.941099e+10 -1.310216e+09
1.046424e+10 2.857186e+10 -1.680245e+09
-8.629096e+09 2.568965e+10 5.489735e+08
-7.833689e+09 3.302766e+10 1.957292e+09
1.007815e+10 3.154737e+10 -2.597788e+09
2.990688e+10 -1.166094e+10 -3.307316e+08
-2.990822e+10 -1.165359e+10 3.358863e+08
-6.376149e+09 3.248364e+10 -4.772716e+08
3.146873e+09 -3.258995e+10 1.442370e+09
2.446007e+10 7.414740e+09 7.638659e+07
-3.148221e+09 -3.258980e+10 -1.441053e+09
-2.498280e+10 -1.887358e+10 -8.050526e+08
2.498186e+10 -1.887111e+10 8.059303e+08
-2.245915e+10 -1.592507e+10 1.044087e+09
-2.280335e+10 -1.651827e+10 -4.903881e+08
2.245556e+10 -1.591983e+10 -1.044464e+09
2.280449e+10 -1.651796e+10 4.909402e+08
-1.408812e+10 3.044595e+10 -1.935877e+08
1.406608e+10 3.062554e+10 2.016318e+08
4.800977e+09 2.956887e+10 -1.797747e+09
2.573427e+10 8.194394e+09 -3.392740e+07
-5.088957e+09 -2.939154e+10 1.329785e+07
5.086303e+09 -2.938860e+10 -1.452888e+07
-3.522934e+09 2.713072e+10 2.080769e+08
2.614966e+10 1.760596e+10 -1.122368e+07
-5.493829e+09 2.649913e+10 -1.426319e+08
-2.015601e+10 2.508195e+10 1.583558e+09
1.951388e+10 2.536261e+10 2.261115e+06
-7.911108e+09 3.253145e+10 7.537853e+08
-2.507605e+10 3.358346e+10 3.727826e+08
2.078951e+10 2.462680e+10 3.156531e+08
2.390870e+10 9.914017e+09 2.030630e+08
8.140709e+09 3.086549e+10 6.919907e+08
3.313431e+10 -3.292702e+09 -1.483626e+09
-3.313575e+10 -3.294034e+09 1.482630e+09
-4.496950e+09 3.471373e+10 2.061268e+09
1.790680e+10 -2.725601e+10 7.611681e+08
-1.790720e+10 -2.725597e+10 -7.616162e+08
-2.448908e+10 1.128523e+10 6.642463e+08
2.382503e+10 1.212271e+10 -5.666641e+08
-2.852760e+10 -5.323490e+09 -5.626153e+08
2.852656e+10 -5.324549e+09 5.632797e+08
2.405791e+10 8.421726e+09 1.967135e+08
-2.677958e+10 -2.471471e+10 1.880639e+09
2.677247e+10 -2.470544e+10 -1.862694e+09
-2.593494e+10 9.276158e+08 -1.753589e+08
2.687745e+10 1.041712e+09 8.289202e+07
-2.672722e+10 -3.668785e+08 5.074437e+08
2.664195e+10 -3.746827e+08 -4.389648e+08
-2.285404e+10 2.220983e+10 -6.636698e+08
-6.470692e+09 3.192142e+10 -7.521827e+08
-1.800106e+10 2.674898e+10 -9.333763e+08
1.942131e+10 2.742301e+10 1.466560e+09
2.456664e+10 1.046442e+10 -1.298614e+08
-1.752820e+10 -2.900463e+10 -1.230088e+09
1.753269e+10 -2.900742e+10 1.232173e+09
1.149317e+10 -2.667665e+10 2.013513e+09
-1.149445e+10 -2.668137e+10 -2.014410e+09
-1.288973e+10 2.947589e+10 -1.825589e+09
1.292268e+10 2.948804e+10 1.809684e+09
-2.078707e+09 3.086191e+10 9.591036e+08
1.648256e+09 2.788994e+10 3.896706e+08
1.944719e+10 1.828064e+10 3.388101e+08
-2.442998e+10 1.406295e+10 3.671246e+08
2.399614e+10 1.022973e+10 7.984830e+08
2.202294e+10 1.533525e+10 3.887360e+07
-2.632261e+10 9.938252e+09 1.814991e+08
2.290476e+10 1.208402e+10 -7.007303e+08
2.451595e+10 1.083706e+10 3.041782e+08
2.702057e+10 8.698024e+09 3.334859e+08
2.317738e+10 1.526818e+10 -3.182049e+08
-2.365653e+10 1.132793e+10 -2.190330e+08
2.211436e+10 1.729148e+10 3.889259e+08
-2.162723e+10 1.523944e+10 -5.212585e+08
1.695802e+10 2.111380e+10 -7.466211e+08
2.370461e+10 1.149658e+10 2.306433e+08
2.979416e+10 -1.078997e+10 -3.548015e+08
-2.978621e+10 -1.078894e+10 3.512335e+08
-2.544049e+10 2.286133e+10 9.062336e+08
3.131059e+10 -7.930346e+09 4.452279e+08
-3.131115e+10 -7.930141e+09 -4.449476e+08
1.531555e+10 2.491886e+10 1.509445e+08
-1.490835e+10 2.498556e+10 2.003244e+08
1.990512e+10 1.788616e+10 -2.250830e+08
-2.786154e+10 1.963331e+10 -3.422804e+07
-3.182907e+10 5.940153e+09 -5.294220e+08
2.308025e+10 1.118102e+10 3.230230e+08
-2.405666e+10 -2.401352e+10 -2.217842e+07
2.405291e+10 -2.402364e+10 1.592036e+06
1.427959e+10 2.294547e+10 -3.901901e+08
-1.374752e+10 2.370938e+10 -3.933291e+08
-2.028184e+10 1.958902e+10 -7.692792e+08
5.240306e+09 2.711275e+10 5.735806e+08
-3.187634e+10 8.220717e+09 4.393675e+08
-4.663188e+09 -2.662186e+10 1.124334e+09
4.658332e+09 -2.661833e+10 -1.128901e+09
-4.435507e+09 -2.727608e+10 9.754254e+08
2.252431e+10 1.200071e+10 -7.742503e+07
4.433607e+09 -2.728257e+10 -9.723388e+08
2.706082e+10 2.515336e+10 -6.484343e+08
-3.440177e+10 2.670843e+09 -3.467492e+08
3.388384e+10 2.117108e+09 -2.873151e+08
-2.565726e+10 7.757667e+09 -9.807965e+05
2.484385e+10 9.949994e+09 -5.864789e+08
-2.466008e+10 9.862325e+09 -1.171565e+09
2.534596e+10 -9.799442e+09 -8.132840e+08
-2.534628e+10 -9.799207e+09 8.130098e+08
2.136903e+10 2.360896e+10 2.345062e+08
2.273597e+10 1.233891e+10 1.057176e+09
2.628525e+10 -2.092341e+10 -5.787313e+08
-2.628657e+10 -2.093729e+10 5.811929e+08
3.132868e+10 1.113709e+10 8.462570e+08
-3.001478e+10 1.029792e+10 -2.287793e+08
2.901635e+10 1.402355e+10 6.253992e+08
-2.921378e+10 1.562254e+10 -1.116083e+08
-2.656472e+10 6.544623e+09 6.201533e+08
-2.690933e+10 1.706544e+10 -5.200604e+08
2.618924e+10 1.623907e+10 1.054254e+09
-2.428153e+10 -1.151357e+10 -4.832286e+08
2.202113e+10 1.252047e+10 1.399493e+08
2.427719e+10 -1.151146e+10 4.825244e+08
-2.695020e+10 4.050727e+09 5.670265e+08
2.627618e+10 4.559226e+09 -1.517249e+09
1.992921e+10 -1.939521e+10 2.344701e+08
-1.996121e+10 -1.942735e+10 -2.318753e+08
2.540844e+10 2.176205e+09 1.229045e+09
-2.654572e+10 2.333888e+09 3.010684e+06
1.632235e+09 -2.700534e+10 2.802535e+08
-1.641301e+09 -2.701267e+10 -2.739100e+08
3.036511e+10 -2.456286e+09 3.599800e+07
2.163601e+10 1.414732e+10 6.297549e+07
-3.035894e+10 -2.454163e+09 -3.445555e+07
-3.213159e+08 2.641727e+10 -2.828339e+08
2.781353e+10 9.531727e+09 -1.433715e+08
-2.594169e+10 9.301894e+09 4.164714e+08
-1.769993e+10 2.937992e+10 3.320834e+08
1.883399e+10 2.934366e+10 -8.374941e+08
-1.643546e+10 3.039177e+10 1.589492e+09
1.656189e+10 3.064770e+10 -1.643335e+09
-3.250609e+10 5.997458e+09 5.783268e+08
3.217360e+10 3.980018e+09 9.083642e+08
2.204593e+10 1.394625e+10 3.635772e+08
1.389782e+10 -2.331584e+10 4.975522e+08
-1.389790e+10 -2.331676e+10 -4.973656e+08
3.327051e+10 6.621233e+09 1.195032e+09
-3.342590e+10 6.694452e+09 -5.932284e+08
2.665672e+09 3.131559e+10 -1.199006e+07
-2.741880e+10 -1.140882e+09 8.027118e+08
2.742183e+10 -1.144981e+09 -8.058264e+08
3.876319e+09 3.313941e+10 7.789644e+08
1.027293e+10 -3.241386e+10 -1.162115e+08
-1.027381e+10 -3.241504e+10 1.159926e+08
2.220791e+10 1.369398e+10 -2.089246e+08
-2.346679e+10 -1.073644e+10 1.458108e+09
2.346601e+10 -1.073740e+10 -1.459088e+09
-1.665930e+10 2.047131e+10 -1.121235e+09
1.624174e+10 2.069888e+10 8.828192e+08
1.160174e+10 -2.390962e+10 -1.745234e+09
-1.159781e+10 -2.390334e+10 1.745649e+09
-2.606234e+10 -1.612862e+10 6.553465e+08
2.606274e+10 -1.612946e+10 -6.554435e+08
-3.236844e+10 -6.308149e+09 -1.427326e+09
3.237387e+10 -6.307911e+09 1.424700e+09
2.188999e+10 1.639661e+10 6.314156e+08
-2.402605e+10 -1.108563e+10 1.127565e+09
2.402738e+10 -1.108638e+10 -1.127069e+09
-2.194048e+10 2.808114e+10 1.252714e+08
2.177818e+10 2.725994e+10 -3.391771e+08
-2.812926e+10 1.203352e+10 -1.281359e+09
3.013059e+10 1.075738e+10 -4.757027e+08
-3.033658e+10 -4.938453e+09 -1.881545e+08
3.033501e+10 -4.937883e+09 1.886421e+08
2.699847e+10 5.957005e+09 -1.030748e+09
-2.587347e+10 6.514788e+09 4.474605e+08
2.024372e+10 1.612207e+10 4.048629e+08
-1.932940e+10 2.664442e+10 -1.545874e+09
1.954839e+10 2.462407e+10 2.594219e+08
3.086170e+10 -1.466198e+10 -7.749388e+08
-3.086066e+10 -1.466163e+10 7.745465e+08
-2.000378e+10 2.397943e+10 -5.182065e+08
-3.302713e+10 -5.918960e+09 -1.035841e+09
3.302754e+10 -5.918880e+09 1.036018e+09
1.522927e+10 -2.270437e+10 4.296925e+08
-1.522891e+10 -2.270415e+10 -4.295244e+08
2.614231e+09 2.585603e+10 -1.569953e+09
2.027138e+10 1.547447e+10 -2.390872e+08
-2.252221e+10 -2.340493e+10 4.573163e+08
2.248873e+10 -2.336961e+10 -4.708465e+08
2.578494e+10 -1.718764e+10 -6.601460e+08
-2.578572e+10 -1.718888e+10 6.600239e+08
-2.081775e+10 -1.652229e+10 4.207034e+08
2.082437e+10 -1.652420e+10 -4.191150e+08
-6.865433e+09 -2.582573e+10 3.350249e+08
6.868805e+09 -2.583764e+10 -3.358954e+08
8.521219e+09 2.904557e+10 2.733313e+08
4.690262e+09 -2.989138e+10 -7.133761e+08
2.086866e+10 1.719446e+10 8.333063e+08
6.251020e+09 -3.223135e+10 9.651034e+08
-4.690267e+09 -2.988929e+10 7.137108e+08
-6.253683e+09 -3.223865e+10 -9.616440e+08
2.253425e+10 2.587896e+10 -9.442497e+08
2.088204e+09 3.352914e+10 1.746063e+09
-2.123531e+10 -2.404093e+10 4.364924e+08
2.122993e+10 -2.403064e+10 -4.426508e+08
-2.801046e+10 -1.602888e+10 -3.408382e+08
2.801168e+10 -1.603007e+10 3.410142e+08
2.701357e+10 2.576646e+09 1.629675e+07
1.925638e+10 1.669034e+10 4.770192e+08
-2.587068e+10 3.620849e+09 1.468879e+09
1.216290e+09 3.139133e+10 -2.732659e+08
-1.726510e+10 -2.046222e+10 -1.699302e+09
1.725399e+10 -2.044689e+10 1.702466e+09
-1.495519e+10 2.638504e+10 4.186126e+08
1.508813e+10 2.656713e+10 -4.305720e+08
-1.457620e+10 2.821289e+10 3.308307e+08
1.460182e+10 2.818389e+10 -3.209838e+08
-5.862708e+08 -3.072585e+10 2.550653e+08
5.728869e+08 -3.104813e+10 -6.503632e+08
2.089721e+10 1.800808e+10 2.442274e+09
1.851268e+07 -3.316016e+10 1.019258e+08
1.041176e+08 -3.289827e+10 -1.210802e+08
-2.321116e+10 1.620298e+10 6.092298e+08
2.231086e+10 1.575109e+10 -1.198524e+09
-2.402255e+10 -1.739149e+10 8.239591e+08
2.402112e+10 -1.739124e+10 -8.243602e+08
-1.102576e+10 2.549286e+10 3.417076e+08
1.122196e+10 2.385303e+10 -4.792495e+08
-2.650450e+10 1.794474e+10 1.715868e+09
2.696274e+10 -1.846494e+10 -4.881939e+08
1.765888e+10 1.875871e+10 1.217067e+09
-2.696436e+10 -1.846540e+10 4.878462e+08
-2.906633e+10 1.927753e+10 -7.060459e+08
2.774494e+10 1.997312e+10 3.778616e+08
2.548780e+10 2.283338e+10 1.300123e+09
2.160743e+10 -1.640371e+10 1.301499e+09
-2.160588e+10 -1.640293e+10 -1.301508e+09
-3.027908e+10 7.349634e+09 5.310700e+08
3.172484e+10 6.467961e+09 -9.415728e+08
-2.141916e+10 2.287757e+10 2.447430e+08
3.106354e+09 -3.172184e+10 1.690432e+08
1.893299e+10 1.742079e+10 6.907508e+08
-3.109638e+09 -3.170828e+10 -1.707621e+08
3.175519e+10 -9.645011e+09 2.278209e+08
-3.175559e+10 -9.645369e+09 -2.280028e+08
1.335823e+10 2.336406e+10 -6.166954e+08
-1.267245e+10 2.338108e+10 1.459106e+09
-3.868095e+09 2.830126e+10 -3.381346e+08
2.710840e+10 -1.370806e+10 1.541604e+09
-2.710207e+10 -1.371155e+10 -1.541596e+09
6.810829e+09 -2.596896e+10 3.460775e+08
-6.850407e+09 -2.604178e+10 -3.455615e+08
1.888801e+10 1.923974e+10 3.422372e+08
2.285130e+10 -1.409033e+10 -6.880035e+08
-2.284958e+10 -1.409044e+10 6.878535e+08
2.896655e+09 3.202680e+10 -6.316857e+08
1.600307e+10 2.056552e+10 -1.186107e+09
-9.960294e+09 2.488670e+10 -2.366080e+08
1.020503e+10 2.470931e+10 -5.412477e+08
-6.350514e+09 3.197645e+10 -3.401005e+08
-3.107799e+10 5.965313e+09 5.895558e+08
2.946862e+10 3.676921e+09 -1.056825e+09
7.738978e+09 2.671302e+10 4.371292e+08
1.624670e+10 1.945843e+10 1.624594e+08
2.201501e+09 2.721236e+10 -1.750180e+08
2.614278e+10 3.605325e+09 1.654435e+09
-2.621916e+10 2.597108e+09 5.690282e+08
-3.162328e+10 1.484675e+10 -1.587259e+07
3.099817e+10 1.489972e+10 4.131244e+08
3.184355e+10 1.043892e+10 -1.176643e+09
3.358759e+10 -4.525771e+09 3.020377e+08
-3.358740e+10 -4.526405e+09 -3.026057e+08
-1.920477e+10 1.854270e+10 -9.019979e+08
-1.195299e+10 2.814239e+10 -2.816658e+07
1.761216e+10 1.886007e+10 -4.055241e+08
1.183670e+10 2.835403e+10 7.615804e+06
1.954255e+09 2.687852e+10 -5.001785e+08
-3.198110e+10 1.088020e+10 -3.862207e+08
2.678591e+10 -3.849465e+09 -2.609982e+08
-2.678403e+10 -3.849990e+09 2.612248e+08
-8.234814e+08 2.713213e+10 7.704848e+08
-8.028723e+09 2.886506e+10 2.205808e+07
-2.060386e+10 2.483689e+10 2.670637e+08
-1.043693e+10 -2.524003e+10 6.954402e+08
1.043687e+10 -2.524137e+10 -6.950318e+08
1.693375e+10 2.010558e+10 -1.079879e+08
-2.914111e+10 -8.834620e+09 1.784689e+09
2.914287e+10 -8.836580e+09 -1.785167e+09
-2.980595e+10 2.096706e+10 -1.098748e+09
-2.522307e+10 1.693156e+10 -2.080906e+09
-5.555502e+09 -3.380248e+10 2.355175e+08
5.556445e+09 -3.380536e+10 -2.337518e+08
3.390079e+10 -3.945434e+09 -1.017711e+09
-3.390836e+10 -3.944169e+09 1.017560e+09
9.290164e+09 -2.506579e+10 -1.842099e+08
-9.290734e+09 -2.506541e+10 1.852152e+08
1.652998e+10 1.961591e+10 -6.375716e+07
-5.567137e+09 3.251972e+10 2.059385e+08
-2.447977e+10 -1.173312e+10 4.724490e+08
2.447906e+10 -1.173229e+10 -4.720869e+08
1.420362e+10 -2.224670e+10 8.873606e+08
-1.420387e+10 -2.224631e+10 -8.868365e+08
2.577050e+10 2.264874e+10 -4.231599e+08
1.293333e+10 -3.122380e+10 -1.952534e+08
-1.293261e+10 -3.122429e+10 1.947160e+08
-1.206046e+10 -2.720995e+10 7.787285e+08
1.206043e+10 -2.720749e+10 -7.778863e+08
1.623931e+10 2.090295e+10 5.246000e+08
-5.289769e+09 -2.500851e+10 -1.382043e+09
5.289255e+09 -2.500844e+10 1.382992e+09
-2.146592e+10 2.491298e+10 -2.638997e+08
-2.693439e+10 -1.648395e+10 -7.834898e+08
2.693374e+10 -1.648285e+10 7.831302e+08
-1.485492e+10 -3.077710e+10 2.476482e+09
1.485407e+10 -3.077641e+10 -2.476164e+09
2.266360e+10 1.434731e+10 4.545544e+08
-2.282078e+10 1.441871e+10 5.844090e+08
1.956436e+10 2.332237e+10 -1.023713e+09
1.517784e+10 2.117774e+10 3.616465e+08
4.395973e+09 2.546498e+10 -1.082953e+09
1.691673e+10 -2.686893e+10 1.041931e+08
-1.691500e+10 -2.686917e+10 -1.036995e+08
2.188580e+10 2.347499e+10 3.968922e+08
1.734914e+10 2.028686e+10 9.980649e+06
4.872110e+09 -2.642271e+10 -6.071428e+08
-4.862645e+09 -2.643137e+10 6.191328e+08
2.646082e+10 -1.617464e+10 -1.147370e+08
-2.646047e+10 -1.617461e+10 1.146816e+08
2.626022e+10 -1.078347e+10 3.737413e+08
1.619005e+10 2.246181e+10 9.714973e+08
-2.626076e+10 -1.078427e+10 -3.743864e+08
-2.691956e+10 1.897561e+10 6.676819e+08
2.951271e+10 -3.558584e+09 4.352463e+08
-2.951551e+10 -3.557134e+09 -4.339806e+08
1.956533e+10 -2.722178e+10 2.496276e+08
-1.956517e+10 -2.722196e+10 -2.519356e+08
1.050362e+10 2.566439e+10 1.019116e+09
-9.949499e+09 2.668029e+10 -1.172056e+08
-5.326824e+09 2.550396e+10 -7.654126e+08
1.738578e+10 -2.917411e+10 -5.498715e+07
1.317845e+10 2.209003e+10 3.755032e+08
-1.738587e+10 -2.917183e+10 5.549307e+07
-4.821501e+09 -3.045083e+10 4.782237e+08
4.819556e+09 -3.044692e+10 -4.779095e+08
2.088062e+09 -2.608455e+10 -6.028621e+08
-2.056440e+09 -2.608155e+10 6.217239e+08
-2.754776e+10 -1.293213e+10 -1.976440e+08
2.754595e+10 -1.292857e+10 1.967258e+08
2.937445e+10 -2.012554e+10 1.173109e+08
-2.937603e+10 -2.012660e+10 -1.178240e+08
-1.209124e+10 2.984156e+10 -4.903138e+08
1.408112e+10 2.099442e+10 6.114301e+08
1.236444e+10 2.950914e+10 4.439245e+08
-2.060312e+10 1.585810e+10 1.527560e+08
-2.643838e+10 5.119593e+09 5.999063e+08
-3.328861e+10 -5.476361e+08 -5.938361e+08
3.327905e+10 -5.725264e+08 6.291486e+08
2.946499e+10 1.361925e+10 7.548961e+08
-2.574128e+10 -8.371948e+09 -2.330373e+08
2.574017e+10 -8.376899e+09 2.299106e+08
3.160986e+10 9.614383e+09 1.487290e+09
-3.152500e+10 -6.355463e+09 -6.969839e+08
1.370474e+10 2.305063e+10 7.945238e+07
3.152580e+10 -6.354116e+09 6.977056e+08
1.607538e+10 3.021871e+10 -1.849821e+08
-1.596374e+10 3.013091e+10 2.104206e+08
5.761901e+09 -2.968917e+10 -2.764232e+08
-5.752356e+09 -2.968512e+10 2.763092e+08
2.572404e+10 5.019263e+09 -1.278298e+08
-2.591380e+10 5.103434e+09 -2.181933e+08
-1.657659e+10 2.641564e+10 -1.101058e+09
1.656134e+10 2.624778e+10 1.081198e+09
3.168177e+10 6.746493e+09 3.638198e+07
1.250926e+10 2.260779e+10 -1.773986e+08
8.939827e+09 2.355118e+10 8.314651e+08
-3.208067e+10 1.028970e+10 -5.005500e+08
1.168918e+10 3.221705e+10 -5.999381e+08
-1.215609e+10 3.187061e+10 -9.437332e+08
3.026798e+10 -4.331629e+09 1.510175e+07
-3.026871e+10 -4.331721e+09 -1.478466e+07
2.496575e+10 7.817580e+09 1.166470e+09
-2.314909e+10 1.932331e+10 9.655939e+08
2.941028e+10 -1.113835e+10 -4.036595e+08
-2.940254e+10 -1.113035e+10 4.059462e+08
1.234662e+10 2.195836e+10 -3.324334e+08
1.767880e+10 -1.989082e+10 1.099148e+09
-1.769933e+10 -1.990512e+10 -1.107239e+09
1.762924e+10 2.036739e+10 2.177154e+08
2.614096e+10 1.765370e+08 9.435488e+07
-2.614746e+10 5.089090e+07 4.327051e+07
-3.168395e+10 1.418221e+10 2.000566e+08
-1.570308e+10 3.019725e+10 -1.897760e+09
1.571521e+10 3.023350e+10 1.900613e+09
-2.784924e+10 2.003131e+10 -4.091993e+08
-1.693069e+10 2.099481e+10 -6.217752e+08
1.173477e+10 2.306948e+10 9.279690e+08
-3.045227e+10 4.819874e+09 4.890586e+08
3.081353e+10 3.313125e+09 8.324603e+08
1.088433e+10 -2.632156e+10 1.606137e+08
-1.088343e+10 -2.631847e+10 -1.608254e+08
-1.051163e+10 2.459381e+10 3.557886e+08
1.044819e+10 2.473695e+10 -1.792270e+08
3.405582e+09 2.877903e+10 3.524576e+08
1.928513e+10 2.146227e+10 7.899758e+08
2.172215e+10 -2.109186e+10 3.217282e+08
-2.173690e+10 -2.110106e+10 -3.217286e+08
1.132165e+10 2.368413e+10 6.901707e+08
-1.866766e+10 2.585991e+10 -5.446000e+08
1.917842e+10 2.867209e+10 -4.832254e+08
-1.694795e+10 -2.853372e+10 -3.129282e+08
1.694967e+10 -2.853387e+10 3.127133e+08
-1.938609e+10 -1.795066e+10 2.482315e+08
1.938880e+10 -1.795058e+10 -2.423218e+08
-1.704486e+09 -3.041454e+10 -8.530479e+08
1.725516e+09 -3.046490e+10 8.733046e+08
-1.956825e+10 1.791677e+10 -1.022116e+09
2.545694e+10 -1.539686e+10 -6.254515e+08
1.148011e+10 2.426892e+10 1.562901e+09
-2.545807e+10 -1.539674e+10 6.258417e+08
-3.138297e+10 1.282913e+10 -7.404046e+08
3.235071e+10 1.195613e+10 -1.173138e+09
2.278605e+10 2.397296e+10 -6.158037e+08
-1.403198e+10 2.504776e+10 -3.648224e+08
1.424855e+10 2.504948e+10 3.111072e+08
-4.532885e+09 3.260075e+10 2.866987e+08
3.428265e+10 2.996358e+09 -1.845422e+09
-3.618176e+10 1.731250e+09 1.122550e+09
-4.075825e+09 3.187910e+10 7.687388e+08
9.526881e+09 2.387563e+10 8.890673e+08
5.922384e+09 3.072267e+10 -1.011009e+09
1.504454e+10 -3.067426e+10 2.338308e+09
-1.504437e+10 -3.067140e+10 -2.337227e+09
2.740332e+10 1.915288e+10 3.813511e+08
-1.117133e+10 2.783516e+10 -2.797329e+08
1.025803e+10 2.868179e+10 -4.930958e+08
-2.626868e+10 -2.633115e+09 2.455924e+07
2.626795e+10 -2.633363e+09 -2.604580e+07
2.414671e+10 -2.023682e+10 5.083145e+07
-2.415427e+10 -2.025749e+10 -5.118481e+07
1.022177e+10 2.332056e+10 2.823733e+08
-2.541066e+10 1.839032e+10 2.930889e+08
2.475777e+10 1.693092e+10 2.183372e+08
-9.561370e+09 -2.825074e+10 1.604911e+08
9.560824e+09 -2.825164e+10 -1.602068e+08
-1.653522e+10 2.338013e+10 -2.121171e+08
-2.897538e+10 1.810284e+10 -1.153169e+08
-2.373861e+10 1.785481e+10 1.031313e+08
-2.541378e+10 1.492657e+10 -1.232340e+09
2.494930e+09 -3.361291e+10 5.848904e+08