# vtk DataFile Version 2.0
Electric current density generated by TTH
ASCII
DATASET UNSTRUCTURED_GRID
POINTS 3469 double
3.125025e-05 -7.654104e-21 -2.754532e-22
3.060596e-05 6.312945e-06 -2.754532e-22
-1.932603e-05 2.455774e-05 -2.754532e-22
2.899028e-05 1.047742e-05 -8.803032e-07
2.899028e-05 -1.047742e-05 -8.803032e-07
2.792106e-05 8.629124e-06 -6.723155e-07
2.792106e-05 -8.629124e-06 -6.723155e-07
-2.209142e-05 2.157460e-05 -8.352616e-07
2.318115e-05 1.803361e-05 8.326421e-07
2.318115e-05 -1.803361e-05 8.326421e-07
-3.060719e-05 3.444272e-06 -8.997162e-07
4.732176e-07 2.929149e-05 7.585224e-07
4.732176e-07 -2.929149e-05 7.585224e-07
-1.987609e-05 2.411471e-05 -2.754532e-22
-1.743194e-05 2.370669e-05 -8.803777e-07
-2.988258e-05 7.519571e-06 8.892136e-07
2.828286e-05 8.791158e-06 1.003358e-06
2.828286e-05 -8.791158e-06 1.003358e-06
1.521691e-05 -2.477916e-05 -4.103314e-07
1.521691e-05 2.477916e-05 -4.103314e-07
-2.987242e-05 -7.571331e-06 8.870183e-07
-1.555762e-05 -2.662730e-05 -8.692967e-07
-1.555762e-05 2.662730e-05 -8.692967e-07
1.815564e-05 2.316616e-05 -8.859855e-07
-2.041599e-05 2.365936e-05 -2.754532e-22
1.815564e-05 -2.316616e-05 -8.859855e-07
-2.937778e-05 9.364658e-06 -8.732939e-07
-2.937778e-05 -9.364658e-06 -8.732939e-07
-2.820388e-05 -8.386610e-06 -8.792179e-07
-2.820235e-05 8.394668e-06 -8.798845e-07
1.153412e-05 2.695771e-05 -7.862985e-07
1.153412e-05 -2.695771e-05 -7.862985e-07
-2.876685e-05 -5.900947e-06 -8.291562e-07
2.903535e-05 4.055107e-06 -7.817533e-07
2.903535e-05 -4.055107e-06 -7.817533e-07
-2.094547e-05 2.319193e-05 -2.754532e-22
1.760298e-05 -2.334071e-05 6.860017e-07
1.760298e-05 2.334071e-05 6.860017e-07
1.777115e-05 -2.516799e-05 -8.926047e-07
1.857962e-05 -2.451645e-05 -9.277279e-07
1.777115e-05 2.516799e-05 -8.926047e-07
1.857962e-05 2.451645e-05 -9.277279e-07
-2.689196e-05 -1.171128e-05 -7.962328e-07
-2.689196e-05 1.171128e-05 -7.962328e-07
-2.908886e-05 5.941329e-06 -1.036579e-06
2.938386e-05 -5.692044e-06 1.107495e-06
-2.146424e-05 2.271265e-05 -2.754532e-22
2.938386e-05 5.692044e-06 1.107495e-06
-3.071145e-05 -3.214111e-06 8.348242e-07
-1.568016e-05 2.482885e-05 -8.289447e-07
-3.018732e-05 -6.598348e-06 -8.155172e-07
-2.334372e-05 -1.815575e-05 9.794639e-07
-2.334372e-05 1.815575e-05 9.794639e-07
-2.838899e-05 -7.050786e-06 -7.075501e-07
-2.366062e-05 -1.717032e-05 -6.858007e-07
-2.366062e-05 1.717032e-05 -6.858007e-07
-2.841657e-05 7.024657e-06 -7.321350e-07
-2.197206e-05 2.222177e-05 -2.754532e-22
3.016670e-06 2.920413e-05 -8.233221e-07
3.016670e-06 -2.920413e-05 -8.233221e-07
-2.867032e-05 -4.818241e-06 3.942403e-07
2.405604e-05 1.663108e-05 6.998169e-07
2.405604e-05 -1.663108e-05 6.998169e-07
-1.296325e-05 -2.801046e-05 -8.476446e-07
-1.286969e-05 2.810627e-05 -8.033593e-07
5.323871e-06 -3.008767e-05 1.039406e-06
5.323871e-06 3.008767e-05 1.039406e-06
1.984231e-05 -2.116182e-05 1.363721e-07
-2.246864e-05 2.171954e-05 -2.754532e-22
1.984231e-05 2.116182e-05 1.363721e-07
-2.007076e-06 -3.083861e-05 -8.118761e-07
-2.007076e-06 3.083861e-05 -8.118761e-07
-2.254527e-07 -3.087368e-05 8.390239e-07
-2.254527e-07 3.087368e-05 8.390239e-07
-2.078395e-05 -2.115427e-05 1.021856e-06
-2.917489e-05 -3.872531e-06 -8.842823e-07
-2.448231e-05 -1.633333e-05 -8.841560e-07
-2.448231e-05 1.633333e-05 -8.841560e-07
2.518164e-05 -1.507017e-05 8.111379e-07
-2.295375e-05 2.120621e-05 -2.754532e-22
2.518164e-05 1.507017e-05 8.111379e-07
2.777431e-05 1.347725e-05 8.417138e-07
2.777431e-05 -1.347725e-05 8.417138e-07
-2.621106e-05 -1.344791e-05 9.061675e-07
-2.621106e-05 1.344791e-05 9.061675e-07
-3.031299e-05 -1.794485e-06 -1.098622e-06
-3.081846e-05 7.628239e-07 8.784013e-07
-2.093453e-05 2.266617e-05 8.563267e-07
-1.470469e-05 -2.709485e-05 8.784114e-07
-1.770257e-05 2.528413e-05 8.471314e-07
-2.342714e-05 2.068205e-05 -2.754532e-22
-1.093392e-05 -2.886378e-05 8.471215e-07
-1.411905e-05 2.744670e-05 8.471215e-07
-1.219950e-05 2.835209e-05 8.471215e-07
-1.027883e-05 2.910351e-05 8.471215e-07
-1.592051e-05 2.644251e-05 8.471215e-07
-1.283713e-05 -2.806914e-05 8.471215e-07
-1.933738e-05 2.400885e-05 8.784083e-07
-1.650668e-05 -2.603637e-05 8.783564e-07
-2.476694e-05 1.836461e-05 8.744809e-07
1.045848e-05 2.766226e-05 -9.796531e-07
-2.388856e-05 2.014733e-05 -2.754532e-22
1.045848e-05 -2.766226e-05 -9.796531e-07
-2.088891e-05 -2.017871e-05 -3.063534e-07
7.679805e-06 2.817822e-05 6.473759e-07
7.679805e-06 -2.817822e-05 6.473759e-07
-2.612748e-05 1.640940e-05 8.576519e-07
-2.612748e-05 -1.640940e-05 8.576519e-07
-2.071525e-05 2.282643e-05 -8.808859e-07
-1.741357e-05 -2.379547e-05 -9.253981e-07
-6.258552e-06 -2.881277e-05 9.240844e-07
2.116280e-05 -2.000152e-05 5.017776e-07
3.045548e-05 7.003011e-06 -2.754532e-22
-2.433778e-05 1.960231e-05 -2.754532e-22
2.116280e-05 2.000152e-05 5.017776e-07
-2.632515e-05 1.604359e-05 -8.777424e-07
-2.632515e-05 -1.604359e-05 -8.777424e-07
-2.250888e-05 -2.111594e-05 8.490397e-07
-3.021883e-05 6.500911e-06 -8.057584e-07
-7.629392e-06 -2.860880e-05 9.987456e-07
3.021920e-05 -6.618336e-06 -7.803565e-07
3.021920e-05 6.618336e-06 -7.803565e-07
3.064167e-05 -3.718627e-06 -8.461085e-07
3.064167e-05 3.718627e-06 -8.461085e-07
-2.477456e-05 1.904729e-05 -2.754532e-22
-1.906076e-05 2.232867e-05 -8.217423e-07
-2.383354e-06 -2.896335e-05 -3.631300e-07
-2.383354e-06 2.896335e-05 -3.631300e-07
-9.264447e-06 -2.947298e-05 8.204893e-07
-1.156477e-05 2.866755e-05 -8.036630e-07
-1.156477e-05 -2.866755e-05 -8.036630e-07
1.017982e-05 2.910657e-05 -8.723649e-07
1.017982e-05 -2.910657e-05 -8.723649e-07
-2.201904e-05 1.984083e-05 -1.014102e-06
1.942872e-05 2.221085e-05 9.406797e-07
-2.519870e-05 1.848253e-05 -2.754532e-22
1.942872e-05 -2.221085e-05 9.406797e-07
-8.894767e-06 2.823028e-05 9.933858e-07
-9.546232e-06 -2.802149e-05 9.957839e-07
-1.264859e-05 2.676768e-05 9.972052e-07
-1.325029e-05 -2.647499e-05 9.972050e-07
-6.931993e-06 -3.014663e-05 7.825458e-07
-1.492655e-05 -2.587546e-05 -1.095670e-06
-1.502652e-05 2.579362e-05 -1.090681e-06
1.295202e-05 -2.802258e-05 8.421227e-07
1.295202e-05 2.802258e-05 8.421227e-07
-2.560996e-05 1.790833e-05 -2.754532e-22
-4.808897e-06 -3.053689e-05 -8.027943e-07
-4.808897e-06 3.053689e-05 -8.027943e-07
2.200037e-05 2.175315e-05 -7.767645e-07
2.200037e-05 -2.175315e-05 -7.767645e-07
-4.096232e-06 3.066562e-05 7.777163e-07
-4.133175e-06 -3.064915e-05 7.894638e-07
3.077061e-05 2.933673e-06 8.058047e-07
3.077061e-05 -2.933673e-06 8.058047e-07
1.576036e-06 3.086479e-05 8.107711e-07
1.576036e-06 -3.086479e-05 8.107711e-07
-2.600813e-05 1.732499e-05 -2.754532e-22
-3.089005e-05 -1.437998e-08 -8.248841e-07
-9.996980e-06 2.917921e-05 -8.651044e-07
-1.001524e-05 -2.922957e-05 -8.176496e-07
-2.442567e-05 -1.580621e-05 4.473550e-07
-2.442567e-05 1.580621e-05 4.473550e-07
-2.519493e-05 -1.442581e-05 -2.644470e-07
-2.519493e-05 1.442581e-05 -2.644470e-07
-3.817447e-06 -2.915799e-05 -8.649225e-07
-3.817447e-06 2.915799e-05 -8.649225e-07
2.674454e-05 1.543680e-05 8.342220e-07
-2.639303e-05 1.673279e-05 -2.754532e-22
2.674454e-05 -1.543680e-05 8.342220e-07
-5.045222e-06 2.857952e-05 2.133713e-07
-5.074535e-06 -2.857224e-05 2.023890e-07
-2.973979e-05 2.285471e-06 1.084383e-06
6.316863e-07 -3.086239e-05 -8.440329e-07
6.316863e-07 3.086239e-05 -8.440329e-07
-2.866328e-05 4.442573e-06 1.006447e-07
2.750226e-05 9.252335e-06 -1.883890e-07
2.750226e-05 -9.252335e-06 -1.883890e-07
1.153237e-05 -2.868037e-05 -8.038687e-07
-2.676444e-05 1.613205e-05 -2.754532e-22
1.153237e-05 2.868037e-05 -8.038687e-07
-2.382183e-05 -1.968852e-05 -8.108007e-07
-2.371119e-05 1.985866e-05 -7.872697e-07
2.764114e-05 1.379486e-05 -8.228454e-07
2.764114e-05 -1.379486e-05 -8.228454e-07
1.493798e-05 -2.551629e-05 9.762289e-07
1.493798e-05 2.551629e-05 9.762289e-07
7.396181e-06 -2.857977e-05 -9.484503e-07
7.396181e-06 2.857977e-05 -9.484503e-07
1.411001e-05 -2.752815e-05 -7.822097e-07
-2.712218e-05 1.552307e-05 -2.754532e-22
1.411001e-05 2.752815e-05 -7.822097e-07
-2.260569e-05 -1.817974e-05 -1.335895e-07
-2.258048e-05 1.821161e-05 -1.365575e-07
-1.115988e-05 -2.767682e-05 -1.088289e-06
-1.106796e-05 2.770299e-05 -1.085647e-06
5.586227e-06 -2.907230e-05 -9.964007e-07
5.586227e-06 2.907230e-05 -9.964007e-07
-7.669563e-06 2.996871e-05 -7.813007e-07
-7.642307e-06 -3.000761e-05 -7.479393e-07
-2.396304e-05 -1.802336e-05 -1.115730e-06
-2.746606e-05 1.490616e-05 -2.754532e-22
-2.396160e-05 1.802477e-05 -1.115691e-06
1.270120e-05 2.607449e-05 -7.397834e-08
1.270120e-05 -2.607449e-05 -7.397834e-08
-2.307495e-05 -1.891113e-05 -1.086229e-06
5.584906e-06 -2.856967e-05 4.839008e-07
5.584906e-06 2.856967e-05 4.839008e-07
2.577585e-05 1.706453e-05 -8.033380e-07
2.577585e-05 -1.706453e-05 -8.033380e-07
-3.083626e-05 2.505980e-06 7.777932e-07
2.105470e-05 -2.022024e-05 -6.266253e-07
-2.779592e-05 1.428163e-05 -2.754532e-22
2.105470e-05 2.022024e-05 -6.266253e-07
1.645548e-05 2.500692e-05 1.108421e-06
1.645548e-05 -2.500692e-05 1.108421e-06
1.989081e-05 -2.372595e-05 -7.532808e-07
1.989081e-05 2.372595e-05 -7.532808e-07
2.991624e-05 -7.913120e-06 7.702330e-07
2.991624e-05 7.913120e-06 7.702330e-07
-2.916045e-05 7.283194e-06 1.122479e-06
2.945002e-05 4.957997e-06 -1.093875e-06
2.892217e-05 5.696409e-06 -9.192917e-07
3.028943e-05 7.689500e-06 -2.754532e-22
-2.811158e-05 1.364981e-05 -2.754532e-22
2.945002e-05 -4.957997e-06 -1.093875e-06
2.892217e-05 -5.696409e-06 -9.192917e-07
-2.191860e-05 1.899426e-05 7.589729e-08
-2.913372e-05 7.657725e-07 -5.484067e-07
2.224552e-05 -1.880256e-05 -5.177903e-07
2.224552e-05 1.880256e-05 -5.177903e-07
1.464066e-05 -2.534260e-05 -7.271084e-07
1.464066e-05 2.534260e-05 -7.271084e-07
-3.667586e-06 3.070510e-05 -7.927109e-07
-3.667586e-06 -3.070510e-05 -7.927109e-07
-2.841288e-05 1.301102e-05 -2.754532e-22
-2.983875e-05 1.325755e-06 -1.094760e-06
2.348848e-05 -2.009169e-05 -8.066278e-07
2.348848e-05 2.009169e-05 -8.066278e-07
-2.604746e-05 -1.459808e-05 1.092619e-06
-2.604746e-05 1.459808e-05 1.092619e-06
-2.648903e-05 -1.360169e-05 -1.069250e-06
-2.648903e-05 1.360169e-05 -1.069250e-06
[...]
POINT_DATA 3469
VECTORS 10.000GHz_fone_imag double
9.937110e-05 -2.494876e-06 1.763212e-02
-1.040699e-04 3.177669e-04 1.742657e-02
1.529224e-04 2.687404e-04 1.745795e-02
1.419683e-02 5.052373e-03 1.087011e-02
1.419686e-02 -5.052005e-03 1.087018e-02
1.284214e-02 4.078037e-03 -1.844736e-02
1.284406e-02 -4.078072e-03 -1.844823e-02
-9.889341e-03 9.687269e-03 1.176231e-02
-1.267522e-02 -1.014385e-02 -1.541369e-02
-1.267293e-02 1.014498e-02 -1.541251e-02
-1.513309e-02 1.572100e-03 1.080871e-02
-2.110230e-04 -1.514280e-02 -1.681299e-02
-2.104409e-04 1.514615e-02 -1.681923e-02
-3.009579e-04 -3.417992e-05 1.759677e-02
-1.034982e-02 1.340609e-02 -1.429222e-02
1.481172e-02 -3.817025e-03 1.071721e-02
-1.821846e-02 -5.564145e-03 -1.056735e-02
-1.821826e-02 5.563788e-03 -1.056709e-02
4.405959e-03 -6.791723e-03 -2.131962e-02
4.406214e-03 6.791778e-03 -2.131973e-02
1.446616e-02 3.524335e-03 1.079615e-02
-7.693557e-03 -1.265342e-02 1.140707e-02
-7.292936e-03 1.269638e-02 1.114683e-02
1.077140e-02 1.343566e-02 -1.407965e-02
2.812784e-04 1.671345e-04 1.744341e-02
1.077273e-02 -1.343633e-02 -1.407963e-02
-1.397441e-02 4.733314e-03 1.156662e-02
-1.391399e-02 -4.190977e-03 1.132793e-02
-1.611312e-02 -4.665215e-03 -1.472318e-02
-1.611662e-02 4.599815e-03 -1.459657e-02
6.207524e-03 1.374354e-02 -1.635228e-02
6.205582e-03 -1.374347e-02 -1.635403e-02
-1.591501e-02 -3.228319e-03 -1.553490e-02
1.525946e-02 2.231473e-03 -1.642070e-02
1.525937e-02 -2.232593e-03 -1.641957e-02
-1.089599e-04 -5.988059e-05 1.762019e-02
-7.787683e-03 1.100170e-02 -1.796493e-02
-7.787468e-03 -1.100229e-02 -1.796419e-02
8.729461e-03 -1.228143e-02 1.088247e-02
9.400792e-03 -1.277983e-02 1.009314e-02
8.729163e-03 1.228129e-02 1.088126e-02
9.400505e-03 1.278007e-02 1.009321e-02
-1.453814e-02 -6.049008e-03 -1.603329e-02
-1.456564e-02 6.057865e-03 -1.599890e-02
-1.916124e-02 3.445636e-03 -8.589968e-03
-1.986197e-02 3.960067e-03 -4.348405e-03
-5.969857e-05 7.958983e-05 1.760038e-02
-1.986191e-02 -3.959071e-03 -4.349145e-03
1.425545e-02 1.438309e-03 1.169897e-02
-8.735720e-03 1.338348e-02 -1.548389e-02
-1.326768e-02 -2.855312e-03 1.226717e-02
1.463514e-02 1.126200e-02 -1.159438e-02
1.475660e-02 -1.142740e-02 -1.146318e-02
-1.388984e-02 -3.487527e-03 -1.780745e-02
-1.011093e-02 -7.664798e-03 -1.882602e-02
-1.055029e-02 7.725862e-03 -1.822828e-02
-1.421801e-02 3.688994e-03 -1.719540e-02
1.269288e-04 1.731393e-05 1.757747e-02
1.423841e-03 1.601559e-02 -1.533292e-02
1.423786e-03 -1.601566e-02 -1.533503e-02
7.811751e-03 1.320467e-03 -2.159102e-02
-1.164464e-02 -7.659593e-03 -1.774235e-02
-1.164429e-02 7.659950e-03 -1.774217e-02
-6.051150e-03 -1.311502e-02 1.153138e-02
-5.824934e-03 1.226130e-02 1.217475e-02
-2.937909e-03 1.805926e-02 6.834292e-03
-2.938280e-03 -1.805970e-02 6.834117e-03
-1.888624e-03 1.814732e-03 -2.353337e-02
1.452608e-04 -4.810357e-05 1.762311e-02
-1.880975e-03 -1.815412e-03 -2.353080e-02
-1.055797e-03 -1.339030e-02 1.206014e-02
-9.707363e-04 1.352566e-02 1.202226e-02
4.900195e-04 1.337994e-02 1.234314e-02
4.804732e-04 -1.340244e-02 1.233150e-02
1.344351e-02 1.382943e-02 -9.413613e-03
-1.673349e-02 -2.663997e-03 -1.405081e-02
-1.409694e-02 -9.100433e-03 -1.460676e-02
-1.418344e-02 9.272211e-03 -1.439484e-02
-1.339678e-02 8.347328e-03 -1.612086e-02
5.133248e-05 -2.705833e-04 1.753126e-02
-1.339786e-02 -8.348258e-03 -1.612032e-02
-1.277092e-02 -6.073848e-03 1.196582e-02
-1.277072e-02 6.073527e-03 1.196722e-02
1.583575e-02 7.713547e-03 -1.342697e-02
1.584182e-02 -7.725712e-03 -1.342653e-02
-1.964856e-02 -1.261050e-03 2.989913e-03
1.491132e-02 -1.934448e-04 1.123408e-02
9.585452e-03 -1.057768e-02 1.136733e-02
6.919427e-03 1.309888e-02 1.071554e-02
8.354689e-03 -1.152290e-02 1.151013e-02
1.335961e-04 9.359702e-05 1.766071e-02
5.132132e-03 1.317845e-02 1.175667e-02
6.607094e-03 -1.250405e-02 1.140629e-02
5.557850e-03 -1.309536e-02 1.144329e-02
4.803845e-03 -1.351959e-02 1.147657e-02
7.284468e-03 -1.224824e-02 1.153439e-02
6.018901e-03 1.262544e-02 1.156420e-02
9.196849e-03 -1.144120e-02 1.119368e-02
8.186411e-03 1.201740e-02 1.094720e-02
1.201490e-02 -8.575789e-03 1.090627e-02
6.763762e-03 1.723760e-02 -1.135000e-02
8.175583e-05 -2.950352e-04 1.770479e-02
6.764382e-03 -1.723713e-02 -1.134908e-02
-4.163761e-03 -4.364322e-03 -2.241344e-02
-2.834587e-03 -1.156289e-02 -1.947095e-02
-2.834498e-03 1.156335e-02 -1.947054e-02
1.223243e-02 -7.779404e-03 1.160531e-02
1.227354e-02 7.689329e-03 1.165775e-02
-9.749241e-03 1.103278e-02 1.069334e-02
-1.058044e-02 -1.452423e-02 -1.315540e-02
3.533937e-03 1.750273e-02 -1.287954e-02
-6.963556e-03 6.789031e-03 -2.102041e-02
-6.001155e-04 -1.587978e-04 1.759076e-02
1.464479e-04 -5.406798e-06 1.758815e-02
-6.959770e-03 -6.777251e-03 -2.102816e-02
-1.273522e-02 7.813218e-03 1.095553e-02
-1.276811e-02 -7.781985e-03 1.102710e-02
1.028270e-02 9.897270e-03 1.163315e-02
-1.370535e-02 2.700301e-03 1.194305e-02
4.853038e-03 1.838806e-02 -1.064719e-02
1.249917e-02 -2.666396e-03 1.290531e-02
1.249658e-02 2.664827e-03 1.290426e-02
1.400468e-02 -1.598442e-03 1.174841e-02
1.400386e-02 1.597989e-03 1.174838e-02
1.204522e-04 -1.249269e-04 1.771220e-02
-1.088777e-02 1.240646e-02 -1.566976e-02
-4.341691e-04 -7.553885e-03 -2.204577e-02
-6.901708e-04 7.558207e-03 -2.189896e-02
3.971547e-03 1.289760e-02 1.230227e-02
-5.021739e-03 1.256278e-02 1.232698e-02
-5.424028e-03 -1.243556e-02 1.215004e-02
5.012030e-03 1.392354e-02 1.119989e-02
5.011934e-03 -1.392351e-02 1.120011e-02
-1.435608e-02 1.294402e-02 -9.783816e-03
-1.190244e-02 -1.378091e-02 -1.272823e-02
1.707167e-04 -1.271864e-04 1.751254e-02
-1.190505e-02 1.378086e-02 -1.272582e-02
5.625824e-03 -1.851619e-02 -1.002901e-02
6.118267e-03 1.798792e-02 -1.023993e-02
8.246725e-03 -1.732963e-02 -1.014207e-02
8.795129e-03 1.718266e-02 -1.007510e-02
2.851869e-03 1.221375e-02 1.347452e-02
-1.021635e-02 -1.756832e-02 -6.367810e-03
-1.001925e-02 1.760385e-02 -5.889593e-03
-6.090604e-03 1.310043e-02 1.153063e-02
-6.089807e-03 -1.309957e-02 1.152974e-02
9.262007e-05 1.040440e-04 1.776208e-02
-2.092513e-03 -1.326782e-02 1.243512e-02
-1.721379e-03 1.321541e-02 1.242304e-02
8.911228e-03 9.024142e-03 1.332997e-02
8.904607e-03 -9.017436e-03 1.334496e-02
1.572754e-03 -1.293875e-02 1.250213e-02
1.477088e-03 1.306843e-02 1.250115e-02
-1.329904e-02 -9.156541e-04 1.257925e-02
-1.330273e-02 9.197596e-04 1.257947e-02
-7.153158e-04 -1.355629e-02 1.295039e-02
-7.131620e-04 1.355414e-02 1.294838e-02
-3.449592e-05 3.126606e-04 1.761150e-02
-1.356068e-02 2.473367e-04 1.236684e-02
-4.895216e-03 1.413469e-02 1.128076e-02
-4.320549e-03 -1.312069e-02 1.221201e-02
7.195032e-03 4.919823e-03 -2.151852e-02
7.250284e-03 -4.576918e-03 -2.168472e-02
-5.309354e-03 -2.619295e-03 -2.250988e-02
-5.325474e-03 2.605261e-03 -2.253384e-02
-2.090839e-03 -1.658935e-02 -1.454520e-02
-1.926975e-03 1.635209e-02 -1.472545e-02
-1.218799e-02 -6.699029e-03 1.188457e-02
-1.822948e-04 2.820052e-04 1.751526e-02
-1.218856e-02 6.698874e-03 1.188411e-02
1.268340e-03 -4.220268e-03 -2.303248e-02
1.364371e-03 4.388831e-03 -2.311965e-02
1.997852e-02 -2.157983e-03 -6.013240e-03
1.348645e-04 -1.422443e-02 1.172196e-02
1.363285e-04 1.422629e-02 1.172490e-02
1.650516e-03 1.554086e-04 -2.327033e-02
3.186945e-03 9.224869e-04 -2.313611e-02
3.186978e-03 -9.226969e-04 -2.313646e-02
5.122911e-03 -1.243272e-02 1.232471e-02
-3.741018e-05 3.644057e-05 1.767022e-02
5.122981e-03 1.243224e-02 1.232488e-02
-1.067308e-02 -8.550196e-03 1.228642e-02
-1.017733e-02 8.462578e-03 1.251752e-02
1.295280e-02 5.909298e-03 1.160382e-02
1.295105e-02 -5.908350e-03 1.160485e-02
-9.509138e-03 1.573434e-02 -1.163701e-02
-9.509326e-03 -1.573469e-02 -1.163673e-02
3.991281e-03 -1.787658e-02 -1.186043e-02
3.991005e-03 1.787706e-02 -1.186073e-02
5.765425e-03 -1.168604e-02 1.289549e-02
-1.530833e-04 -1.641853e-04 1.758822e-02
5.765300e-03 1.168584e-02 1.289597e-02
-1.882456e-03 -1.057685e-03 -2.328419e-02
-2.309812e-03 2.136593e-03 -2.324605e-02
-7.395399e-03 -1.870806e-02 -6.516875e-03
-7.155663e-03 1.899199e-02 -6.567631e-03
3.497105e-03 -1.833838e-02 -1.102084e-02
3.497217e-03 1.833765e-02 -1.102049e-02
-3.059252e-03 1.242647e-02 1.300825e-02
-2.762698e-03 -1.195925e-02 1.342831e-02
-1.646751e-02 -1.252389e-02 -3.473241e-03
5.057070e-05 1.789056e-04 1.754691e-02
-1.616987e-02 1.248597e-02 -3.205902e-03
1.199019e-03 1.963811e-03 -2.327736e-02
1.199171e-03 -1.963754e-03 -2.327718e-02
-1.580397e-02 -1.268516e-02 -6.382008e-03
-1.767836e-03 8.727747e-03 -2.146322e-02
-1.767886e-03 -8.728217e-03 -2.146303e-02
1.128048e-02 7.568439e-03 1.250523e-02
1.128024e-02 -7.568006e-03 1.250581e-02
1.268089e-02 -7.408031e-04 1.299449e-02
8.678546e-03 -8.398765e-03 -1.919560e-02
-7.359527e-05 -8.556158e-05 1.761892e-02
8.679755e-03 8.404472e-03 -1.918094e-02
-1.125121e-02 -1.707808e-02 -4.941444e-03
-1.125162e-02 1.707801e-02 -4.941067e-03
8.288233e-03 -9.520616e-03 1.327405e-02
8.288324e-03 9.523189e-03 1.327417e-02
-1.236648e-02 3.345139e-03 1.303477e-02
-1.236805e-02 -3.345529e-03 1.303538e-02
1.978145e-02 -5.269749e-03 -1.670096e-03
2.014886e-02 3.411999e-03 -5.093089e-03
1.738255e-02 3.610573e-03 -1.327070e-02
-4.674591e-04 -9.146784e-05 1.764220e-02
-1.090609e-04 1.793379e-04 1.763567e-02
2.014826e-02 -3.412241e-03 -5.093367e-03
1.738467e-02 -3.610984e-03 -1.326865e-02
1.192979e-03 -6.264034e-04 -2.352977e-02
-1.064246e-02 2.862689e-04 -2.029860e-02
7.869931e-03 -6.622036e-03 -2.036738e-02
7.871394e-03 6.626359e-03 -2.036092e-02
6.788333e-03 -1.254799e-02 -1.742017e-02
6.788533e-03 1.254813e-02 -1.742014e-02
-1.652910e-03 1.319411e-02 1.253779e-02
-1.447147e-03 -1.336179e-02 1.240204e-02
1.925893e-05 -1.864609e-04 1.767776e-02
-2.031081e-02 8.984500e-04 -5.393020e-03
1.025870e-02 -8.716131e-03 1.240053e-02
1.025972e-02 8.715543e-03 1.239498e-02
1.772385e-02 9.755157e-03 -5.627529e-03
1.774569e-02 -9.735468e-03 -5.599377e-03
-1.799395e-02 -9.165971e-03 -6.816205e-03
-1.798847e-02 9.171910e-03 -6.812002e-03
1.845939e-02 -4.847548e-04 -1.157968e-02
1.763800e-02 5.659185e-04 -1.316688e-02
-1.109636e-02 -4.729703e-04 -2.015948e-02
-1.417882e-04 -1.198226e-04 1.764607e-02
-1.193305e-02 5.077211e-04 -1.954849e-02
-7.621996e-03 -1.097786e-02 1.259652e-02
-7.797947e-03 1.139922e-02 1.216461e-02
-1.198280e-02 1.644109e-02 -5.110955e-03
-1.198279e-02 -1.644105e-02 -5.110804e-03
1.223369e-02 4.942418e-03 1.279597e-02
1.200706e-02 -5.036010e-03 1.281962e-02
-1.013919e-02 -1.583583e-02 -1.175961e-02
8.183240e-03 1.276601e-02 -1.639723e-02
8.183559e-03 -1.276644e-02 -1.639735e-02
7.431579e-04 -9.057199e-05 1.756994e-02
-3.509956e-03 -5.329300e-03 -2.242544e-02
-5.825317e-03 7.461302e-03 -2.124983e-02
-1.362053e-02 1.438111e-02 -9.254745e-03
-7.952842e-03 -9.792595e-03 1.328112e-02
-7.952582e-03 9.791995e-03 1.328064e-02
-4.826665e-03 -1.988582e-02 -5.632394e-03
-4.624306e-03 1.983095e-02 -5.390434e-03
-9.676800e-03 -8.772150e-03 1.350190e-02
-1.360990e-02 -9.934522e-04 -1.810525e-02
-1.360716e-02 9.958464e-04 -1.810257e-02
1.856309e-04 4.412850e-05 1.769415e-02
2.708800e-03 8.664695e-03 -2.136418e-02
2.708976e-03 -8.664811e-03 -2.136456e-02
1.106329e-02 -6.031165e-03 1.337616e-02
1.113332e-02 6.014137e-03 1.327311e-02
-1.288703e-02 -2.072673e-03 1.302571e-02
-9.312393e-03 -1.818838e-02 -4.325894e-03
-9.312808e-03 1.818732e-02 -4.325980e-03
1.334552e-02 3.326018e-03 1.228243e-02
1.333933e-02 -3.320930e-03 1.230558e-02
-7.157371e-03 -1.103425e-02 1.276887e-02
-5.161542e-05 -3.125012e-04 1.762597e-02
-7.157336e-03 1.103370e-02 1.276847e-02
-2.011097e-02 3.188711e-03 -5.390676e-03
9.644064e-03 -7.929632e-03 1.299689e-02
-1.276479e-02 -4.966855e-03 1.230749e-02
-1.269468e-02 5.102098e-03 1.228385e-02
-2.018983e-02 -3.212896e-03 -5.295054e-03
-3.216884e-03 -2.035514e-02 -2.375145e-03
-3.328671e-03 2.008047e-02 -2.442930e-03
1.268552e-02 -3.582906e-03 1.251854e-02
-1.315242e-02 1.363116e-03 1.282849e-02
7.477507e-04 -3.227607e-04 1.744826e-02
1.283002e-03 -1.288198e-02 1.294895e-02
1.515000e-03 1.302651e-02 1.280105e-02
-5.061901e-03 -1.050830e-02 -2.014134e-02
-3.135235e-03 6.477121e-03 -2.216446e-02
-2.944601e-03 9.733653e-03 -2.087188e-02
2.641494e-03 1.623367e-02 -1.538301e-02
2.641535e-03 -1.623431e-02 -1.538348e-02
9.320401e-03 9.657894e-03 1.235529e-02
1.875228e-02 8.166706e-03 -5.436205e-03
1.877969e-02 -8.165374e-03 -5.404912e-03
3.929682e-04 5.723690e-04 1.738031e-02
1.267639e-02 -1.525886e-03 1.303035e-02
-2.349780e-03 -7.431632e-03 -2.188188e-02
2.163698e-03 1.379041e-02 1.207398e-02
2.163834e-03 -1.379031e-02 1.207396e-02
1.386297e-02 4.891905e-04 1.221417e-02
1.919821e-02 5.063304e-03 -7.983165e-03
1.570852e-02 1.334690e-02 -3.433455e-03
-1.119011e-02 5.213277e-03 1.346582e-02
-1.119115e-02 -5.213563e-03 1.346481e-02
-5.956210e-03 1.929092e-02 -6.540251e-03
-4.060290e-06 9.297917e-05 1.761114e-02
-5.956756e-03 -1.929141e-02 -6.539933e-03
6.027314e-03 9.091774e-03 -2.068217e-02
1.129160e-02 1.609128e-02 -8.339222e-03
-3.646174e-03 8.406702e-04 -2.316187e-02
-3.646145e-03 -8.409861e-04 -2.316324e-02
4.012800e-04 3.509040e-03 -2.333480e-02
4.012419e-04 -3.514536e-03 -2.333655e-02
-1.172925e-02 -3.905585e-03 1.335883e-02
-1.172941e-02 3.906204e-03 1.335820e-02
-5.342482e-05 -2.392021e-04 -2.338780e-02
-3.991685e-05 -5.574710e-05 1.774994e-02
5.234321e-03 -1.173724e-02 1.313581e-02
5.234145e-03 1.173711e-02 1.313572e-02
-1.023764e-02 -6.661401e-03 1.354704e-02
-1.023727e-02 6.661226e-03 1.354703e-02
-8.151202e-03 8.710102e-03 -1.989147e-02
1.788257e-02 6.664122e-03 -1.065565e-02
1.788280e-02 -6.664152e-03 -1.065556e-02
1.887314e-02 -8.132782e-03 -3.432496e-03
1.887229e-02 8.132373e-03 -3.434721e-03
-1.216486e-02 2.546067e-03 1.311134e-02
-2.929401e-04 -2.936157e-04 1.762562e-02
1.901998e-04 -1.436329e-04 1.800555e-02
-1.216518e-02 -2.546329e-03 1.311126e-02
3.462866e-03 2.735180e-03 -2.244525e-02
9.247685e-03 -1.489547e-02 -1.365133e-02
9.247440e-03 1.489618e-02 -1.365026e-02
7.009627e-03 -3.966075e-03 -2.193848e-02
7.009146e-03 3.965952e-03 -2.193852e-02
-6.322873e-03 9.800385e-03 1.407729e-02
-6.283700e-03 -9.834768e-03 1.421808e-02
1.571314e-02 -1.303651e-02 -4.101611e-03
-1.155992e-02 1.985987e-03 1.379464e-02
2.509712e-04 3.611152e-04 1.759522e-02
-1.031158e-02 -5.898897e-03 -1.924379e-02
-1.031149e-02 5.898658e-03 -1.924363e-02
-1.587795e-02 1.311663e-02 -4.614686e-03
9.122564e-03 -8.288437e-03 1.342468e-02
1.234475e-02 2.286785e-03 1.325865e-02
1.234712e-02 -2.285228e-03 1.325939e-02
9.462567e-03 1.820759e-02 -1.875387e-03
9.462712e-03 -1.820772e-02 -1.875200e-03
-4.993869e-03 -1.211487e-02 1.308511e-02
-4.994053e-03 1.211511e-02 1.308505e-02
-1.621566e-04 9.185990e-05 1.757318e-02
6.552912e-03 9.437628e-03 -1.980264e-02
1.871473e-03 2.034921e-02 -4.361538e-03
1.870791e-03 -2.035041e-02 -4.362729e-03
-5.391108e-03 -3.914662e-03 -2.221969e-02
-5.390561e-03 3.915678e-03 -2.221951e-02
-1.177195e-02 3.828278e-03 1.353801e-02
-1.157018e-02 -4.137511e-03 1.368138e-02
1.221935e-02 2.728493e-03 1.327485e-02
-3.207917e-03 -1.948244e-03 -2.297833e-02
-3.207610e-03 1.948364e-03 -2.297806e-02
-2.490768e-04 -5.717721e-05 1.755775e-02
-2.023419e-02 3.677116e-03 -3.159346e-03
-2.023410e-02 -3.676502e-03 -3.159182e-03
1.191847e-02 8.785019e-04 1.383015e-02
1.193598e-02 -8.780273e-04 1.382263e-02
8.497322e-03 -1.860512e-02 -4.550409e-03
8.496842e-03 1.860497e-02 -4.549243e-03
-2.131502e-03 -2.717343e-03 -2.326688e-02
-2.131672e-03 2.717679e-03 -2.326706e-02
-1.749706e-02 -7.131296e-03 -1.157846e-02
-1.742553e-02 7.163858e-03 -1.160895e-02
-3.279937e-05 -1.929113e-04 1.756849e-02
-7.165604e-03 -9.173881e-03 1.397759e-02
2.614908e-03 1.218594e-02 1.345738e-02
-1.229230e-04 -1.372469e-02 -1.774708e-02
-1.054624e-04 1.371764e-02 -1.775002e-02
5.955792e-03 -1.221444e-02 -1.835625e-02
3.869624e-03 -1.279004e-02 1.252773e-02
3.870058e-03 1.278920e-02 1.252820e-02
4.156108e-03 -1.272417e-02 -1.860024e-02
-3.667746e-03 1.714740e-02 -1.331894e-02
-3.667806e-03 -1.714767e-02 -1.331913e-02
4.047828e-04 -2.246565e-04 1.758261e-02
-4.222588e-03 2.928487e-03 -2.277264e-02
-4.205263e-03 -2.917135e-03 -2.275945e-02
1.978120e-02 4.339102e-03 -1.516161e-04
1.978055e-02 -4.335385e-03 -1.526254e-04
-2.598576e-03 1.146702e-02 1.383804e-02
-2.559137e-03 -1.142291e-02 1.397278e-02
-1.481798e-02 -8.981158e-03 -1.361461e-02
-1.476746e-02 8.990753e-03 -1.366059e-02
4.275968e-03 -1.933852e-02 -8.953332e-03
1.044143e-02 -3.823752e-03 1.416579e-02
7.416462e-04 -1.418160e-04 1.759860e-02
4.200176e-03 1.288611e-02 -1.840300e-02
5.702499e-04 -3.741306e-04 -2.347909e-02
1.029116e-03 7.317750e-05 -2.341536e-02
-3.711514e-03 -1.996055e-02 -4.148656e-03
-3.711277e-03 1.996030e-02 -4.148439e-03
3.375847e-03 -1.191534e-02 1.336368e-02
1.350026e-02 1.535037e-02 -3.958178e-03
7.495255e-03 1.870566e-02 -6.819881e-03
7.494773e-03 -1.870689e-02 -6.819209e-03
8.628782e-03 8.229735e-03 1.373832e-02
6.938507e-04 2.631198e-04 1.766719e-02
8.621319e-03 -8.228278e-03 1.374724e-02
-9.076061e-03 8.075079e-03 1.374982e-02
4.812365e-05 1.194818e-02 1.368343e-02
5.636581e-05 -1.194945e-02 1.367196e-02
5.847915e-03 1.234885e-02 -1.850741e-02
8.588259e-03 4.241698e-03 -2.127034e-02
8.595202e-03 -4.244401e-03 -2.127918e-02
-7.743527e-03 -9.732069e-03 -1.953221e-02
8.940573e-03 7.539925e-03 1.393523e-02
-2.364898e-03 -2.030295e-02 -5.155088e-03
1.768503e-04 2.870066e-04 1.783010e-02
-2.179083e-03 2.028641e-02 -5.110529e-03
9.959470e-03 3.900346e-03 1.472518e-02
9.959234e-03 -3.900194e-03 1.472476e-02
-1.135133e-02 -4.857301e-03 1.358884e-02
-1.133663e-02 4.853744e-03 1.360885e-02
1.959888e-02 -2.691005e-03 2.025342e-03
1.442843e-02 -1.322189e-02 2.809114e-03
1.396453e-02 1.496859e-02 -2.512278e-03
1.396676e-02 -1.497241e-02 -2.509286e-03
6.712529e-03 4.790790e-03 -2.086029e-02
-2.495039e-04 1.635261e-04 1.760860e-02
6.919506e-03 -5.200052e-03 -2.169051e-02
7.117493e-03 -3.938544e-03 -2.160176e-02
7.117657e-03 3.939202e-03 -2.160195e-02
7.915548e-03 -8.649802e-03 1.384963e-02
7.914973e-03 8.653499e-03 1.384832e-02
-2.051950e-02 1.434229e-03 -2.126058e-03
-2.052529e-02 -1.428158e-03 -2.100368e-03
8.520136e-03 9.272378e-03 1.328049e-02
9.647265e-03 1.775439e-02 -5.097825e-03
9.647244e-03 -1.775460e-02 -5.098304e-03
2.223621e-04 -1.410245e-04 1.776717e-02
-7.528968e-04 9.247883e-06 1.763939e-02
1.795702e-03 3.194005e-03 -2.330439e-02
1.338986e-03 -3.286340e-03 -2.333556e-02
-1.131406e-02 1.096879e-02 -1.624187e-02
-1.769470e-02 -9.290769e-03 4.379296e-05
-1.768681e-02 9.317093e-03 6.622555e-05
-2.054336e-02 -2.740784e-03 -2.207017e-03
6.302610e-04 -1.160852e-02 -2.024071e-02
8.524458e-04 1.167250e-02 -2.021557e-02
8.754391e-03 1.041061e-03 -2.143213e-02
1.952205e-02 -3.628758e-03 -8.387466e-03
-2.750069e-04 -1.221448e-04 1.772812e-02
3.382151e-03 9.971929e-04 -2.307502e-02
3.382534e-03 -9.975487e-04 -2.307451e-02
-5.009143e-03 7.035567e-03 -2.164237e-02
1.910165e-02 7.313751e-03 -4.712918e-03
1.925871e-02 -6.870647e-03 -4.733880e-03
1.108962e-03 -9.579824e-03 1.518884e-02
1.109507e-03 9.579497e-03 1.518905e-02
-1.333662e-02 -1.531930e-02 -1.889026e-03
-1.333917e-02 1.532032e-02 -1.895925e-03
-1.166143e-02 -1.643572e-02 1.750506e-03
-7.190129e-05 -3.883487e-04 1.766126e-02
-1.187004e-02 1.641497e-02 1.079074e-03
-1.959220e-02 6.086100e-03 -1.279541e-03
-1.959260e-02 -6.086104e-03 -1.279481e-03
9.270614e-03 6.410416e-03 1.446213e-02
-8.270047e-03 -1.366073e-02 -1.565618e-02
-1.208646e-02 -1.581534e-02 2.752850e-03
1.002651e-02 1.721753e-02 -7.019242e-03
4.801019e-04 -4.603255e-04 -2.328022e-02
4.777587e-04 4.603261e-04 -2.327449e-02
2.005899e-02 5.157016e-03 -4.882514e-03
2.715493e-04 5.207249e-05 1.772037e-02
2.005257e-02 -5.160103e-03 -4.883191e-03
3.251981e-03 1.351367e-04 -2.297750e-02
2.857140e-03 -2.009937e-02 -4.484290e-03
3.264566e-03 -1.953194e-02 -8.541831e-03
2.860560e-03 2.008585e-02 -4.421093e-03
3.368389e-03 1.943100e-02 -8.400965e-03
-4.334810e-03 -9.920413e-03 1.468031e-02
-4.520060e-03 1.050199e-02 1.438897e-02
-8.042094e-03 7.905284e-03 1.411508e-02
-8.040782e-03 -7.900801e-03 1.412840e-02
-2.410255e-04 4.057279e-05 1.786414e-02
-8.625366e-03 1.833147e-02 -6.144710e-03