# vtk DataFile Version 2.0
Electric current density generated by TTH
ASCII
DATASET UNSTRUCTURED_GRID
POINTS 1285 double
1.294121e-05 -3.169681e-21 -5.726916e-22
9.984000e-06 8.233745e-06 -5.726916e-22
6.345927e-06 -7.616319e-06 -2.234238e-06
-1.275383e-05 -1.488712e-06 -6.790921e-07
-1.229097e-05 3.650168e-06 -7.384460e-07
-4.123077e-06 1.149868e-05 1.693194e-06
3.238712e-06 7.852477e-06 1.009872e-06
-4.280249e-06 9.144546e-06 2.282713e-06
4.941480e-06 1.009446e-05 2.250021e-06
-1.078765e-05 6.986010e-06 -6.391767e-07
7.074911e-06 -1.069907e-05 7.227146e-07
-1.156327e-06 -1.277047e-05 7.349107e-07
-5.511152e-06 9.876933e-06 2.228599e-06
-1.156288e-05 -5.183553e-06 1.090003e-06
1.920883e-06 -9.177563e-06 -1.990635e-06
4.907860e-06 -1.113322e-05 1.738137e-06
1.090084e-05 5.546834e-06 1.678401e-06
1.090084e-05 -5.546834e-06 1.678401e-06
-1.966005e-06 -8.279980e-06 -1.042687e-06
9.769897e-06 -7.046475e-06 1.839897e-06
9.769897e-06 7.046475e-06 1.839897e-06
-9.618215e-06 3.624495e-06 -2.315558e-06
-6.166094e-06 6.995498e-06 1.958086e-06
3.059301e-06 1.082563e-05 2.247013e-06
-8.259403e-06 -3.165900e-07 -5.487504e-08
-8.770244e-06 -4.538773e-06 -2.221999e-06
-3.105669e-06 8.912491e-06 -2.027339e-06
7.907081e-06 1.007992e-05 -7.688250e-07
7.907081e-06 -1.007992e-05 -7.688250e-07
-1.189647e-05 2.438950e-06 -1.758632e-06
-3.494709e-07 -1.281968e-05 7.296599e-07
-2.057409e-07 -1.280732e-05 -7.751762e-07
4.011802e-06 -1.055990e-05 2.233050e-06
-4.673128e-07 -1.111172e-05 2.279970e-06
-9.697092e-06 8.380521e-06 -7.529432e-07
-5.817291e-06 -5.872803e-06 -8.130003e-08
-5.309432e-06 -7.871862e-06 -2.059025e-06
-7.961796e-06 2.486531e-06 5.921401e-07
-6.384459e-06 -6.910261e-06 2.009826e-06
-6.541090e-06 9.050566e-06 -2.269190e-06
-1.888429e-06 1.131372e-05 2.171418e-06
-9.544772e-06 -3.480770e-06 2.295770e-06
-8.859953e-06 -4.731096e-06 2.270384e-06
1.043367e-05 -2.742324e-06 -2.330859e-06
1.043367e-05 2.742324e-06 -2.330859e-06
-1.262322e-05 -2.448129e-06 6.166681e-07
1.011975e-05 -5.916150e-06 2.052934e-06
-2.886982e-06 8.940649e-06 2.002082e-06
3.022597e-06 -1.247950e-05 6.793862e-07
-7.340778e-06 1.053608e-05 6.765533e-07
1.064221e-05 -6.022713e-06 -1.681009e-06
1.064221e-05 6.022713e-06 -1.681009e-06
-1.869443e-06 -1.006240e-05 -2.308981e-06
1.580776e-06 1.142275e-05 2.145892e-06
-2.930106e-06 -1.252134e-05 -6.123326e-07
-9.407092e-06 -6.341698e-06 2.217318e-06
1.334950e-06 -8.405631e-06 1.044275e-06
1.011975e-05 5.916150e-06 2.052934e-06
3.078934e-06 1.163871e-05 1.845226e-06
-4.020827e-06 1.159645e-05 -1.635793e-06
-3.880246e-06 1.226105e-05 -6.094007e-07
-3.148067e-06 1.030753e-05 -2.331668e-06
4.231046e-06 -7.099809e-06 2.204477e-08
4.231046e-06 7.099809e-06 2.204477e-08
-6.800595e-06 8.148787e-06 -2.338166e-06
-1.084902e-05 2.700618e-06 -2.265858e-06
-4.986862e-06 -1.181771e-05 -7.224157e-07
-1.234612e-05 -1.315738e-06 1.476518e-06
-6.318152e-06 5.363652e-06 -3.270587e-07
5.563709e-06 -1.108666e-05 -1.490702e-06
5.563709e-06 1.108666e-05 -1.490702e-06
8.329153e-06 9.761019e-06 7.072067e-07
6.442086e-06 -1.110404e-05 6.887887e-07
-1.142044e-05 -8.349863e-07 -2.179032e-06
-4.872623e-06 7.134591e-06 -1.269893e-06
1.280144e-05 -8.615763e-07 -7.112493e-07
1.279841e-05 9.170116e-07 -7.086866e-07
-3.772079e-07 1.236233e-05 1.533513e-06
7.932543e-06 -3.584953e-06 1.365539e-06
4.768655e-06 -6.779588e-06 -3.334311e-07
7.932543e-06 3.584953e-06 1.365539e-06
-7.625220e-06 -5.546483e-06 -2.022128e-06
8.181011e-06 -4.252316e-06 -1.885422e-06
8.181011e-06 4.252316e-06 -1.885422e-06
-2.210256e-06 -9.374109e-06 -2.126647e-06
6.632776e-07 -8.268457e-06 3.745478e-07
2.166692e-06 -7.984187e-06 1.948323e-07
8.991364e-06 4.060481e-06 2.218899e-06
8.991364e-06 -4.060481e-06 2.218899e-06
-7.957407e-06 4.704887e-06 1.902870e-06
4.768655e-06 6.779588e-06 -3.334311e-07
9.676908e-06 -6.338520e-07 2.155793e-06
9.697521e-06 7.039759e-07 2.166282e-06
-1.144140e-05 -3.985093e-06 1.783078e-06
-8.725223e-06 9.405297e-06 7.149168e-07
-5.295211e-06 9.066254e-06 2.335892e-06
-2.792631e-06 -9.052582e-06 2.047298e-06
-3.656221e-06 -1.174636e-05 -1.606173e-06
-8.227540e-06 2.869262e-06 1.377268e-06
-8.823280e-06 9.332092e-06 -6.711017e-07
-9.693594e-06 -5.541536e-06 -2.269459e-06
1.056138e-05 5.121236e-06 -2.044502e-06
7.123476e-06 -4.747655e-06 1.138306e-06
7.123476e-06 4.747655e-06 1.138306e-06
-3.911624e-06 -1.106730e-05 2.044120e-06
7.993929e-06 2.176935e-06 -3.068350e-07
7.993929e-06 -2.176935e-06 -3.068350e-07
-3.247370e-06 -1.046082e-05 -2.311808e-06
7.689949e-06 -5.712012e-06 -2.102161e-06
7.689949e-06 5.712012e-06 -2.102161e-06
7.389811e-06 -3.715935e-06 1.763796e-07
7.389811e-06 3.715935e-06 1.763796e-07
9.324418e-06 8.973853e-06 -5.726916e-22
1.056138e-05 -5.121236e-06 -2.044502e-06
1.120533e-05 -4.311605e-06 1.870333e-06
1.120533e-05 4.311605e-06 1.870333e-06
1.678697e-06 -1.188231e-05 -1.874755e-06
-1.099653e-05 -2.780770e-06 2.218114e-06
1.153091e-05 5.571229e-06 -7.828221e-07
1.153091e-05 -5.571229e-06 -7.828221e-07
-5.158716e-06 7.055069e-06 1.412814e-06
1.225448e-06 -1.277915e-05 -6.877571e-07
-8.101792e-06 -9.972987e-06 -6.497800e-07
-1.780857e-06 8.073100e-06 -1.051082e-07
1.403490e-06 8.769418e-06 -1.581727e-06
-1.049220e-05 4.640059e-07 -2.336028e-06
-5.488564e-06 1.114767e-05 1.464727e-06
-2.932039e-06 -1.252960e-05 5.801643e-07
-8.633208e-07 1.278823e-05 -7.509436e-07
-1.050646e-06 9.197439e-06 1.912083e-06
-1.005723e-05 6.517606e-06 -1.886469e-06
1.973661e-06 9.661652e-06 2.217390e-06
-7.478793e-06 7.184537e-06 2.326614e-06
7.688170e-06 9.604033e-06 -1.606154e-06
7.688170e-06 -9.604033e-06 -1.606154e-06
1.393353e-06 -8.781434e-06 -1.592837e-06
4.891964e-06 7.798302e-06 -1.874736e-06
4.891964e-06 -7.798302e-06 -1.874736e-06
-9.728176e-06 -8.369077e-06 -7.039365e-07
-5.307627e-06 8.672871e-06 -2.297380e-06
1.056474e-05 6.369322e-06 1.569456e-06
1.056474e-05 -6.369322e-06 1.569456e-06
-6.235240e-06 6.662926e-06 -1.812118e-06
1.236128e-06 1.065382e-05 -2.334992e-06
-7.138255e-06 1.064372e-05 -7.556152e-07
-1.034176e-05 7.598445e-06 7.027536e-07
-9.655376e-06 -1.875277e-06 2.208737e-06
-1.710460e-06 -1.146738e-05 -2.117690e-06
5.361304e-06 -9.092263e-06 -2.337703e-06
5.361304e-06 9.092263e-06 -2.337703e-06
-5.074396e-06 -8.926746e-06 2.314098e-06
2.065680e-06 -8.285925e-06 -1.099623e-06
2.932563e-06 1.253184e-05 5.711086e-07
1.243595e-05 6.694793e-07 1.428682e-06
1.243595e-05 -6.694793e-07 1.428682e-06
7.328269e-06 1.054867e-05 -6.659224e-07
7.328269e-06 -1.054867e-05 -6.659224e-07
-7.919873e-06 -5.985649e-06 2.238442e-06
-3.066503e-06 7.682653e-06 -1.835199e-07
-2.805885e-06 7.923991e-06 8.004552e-07
-1.033281e-05 -2.367048e-06 2.338190e-06
-8.915683e-06 6.139078e-06 -2.327643e-06
-2.354867e-06 1.011684e-05 -2.328218e-06
1.175898e-05 -5.557669e-07 -2.024933e-06
1.175898e-05 5.557669e-07 -2.024933e-06
-1.073675e-06 -9.074078e-06 1.821824e-06
-8.586600e-06 -6.254260e-06 2.338107e-06
1.177786e-06 8.682566e-06 1.441566e-06
9.830019e-06 2.136527e-06 2.274149e-06
-1.019675e-05 -4.274718e-06 2.293787e-06
-3.396405e-06 1.236080e-05 7.462209e-07
-1.720924e-06 -8.114249e-06 -3.727954e-07
-2.327762e-07 8.596015e-06 1.204876e-06
9.758752e-06 -5.170874e-06 -2.296219e-06
9.758752e-06 5.170874e-06 -2.296219e-06
9.964564e-06 1.911511e-06 -2.293143e-06
9.948465e-06 -1.825925e-06 -2.286619e-06
6.526653e-06 1.108521e-05 5.964051e-07
5.321794e-06 -6.326212e-06 -9.965815e-08
9.830019e-06 -2.136527e-06 2.274149e-06
5.321794e-06 6.326212e-06 -9.965815e-08
4.812172e-06 1.193980e-05 5.603569e-07
-1.211223e-05 4.345968e-06 -5.792771e-07
5.494487e-06 -7.821506e-06 2.091930e-06
5.511248e-06 7.821787e-06 2.096831e-06
-1.195376e-05 -4.629645e-06 7.460966e-07
-1.140798e-05 -5.845276e-06 7.480494e-07
6.052956e-07 8.376078e-06 7.776202e-07
6.680379e-06 6.886791e-06 2.109533e-06
6.679635e-06 -6.888400e-06 2.109838e-06
-8.747107e-06 3.050147e-06 1.916572e-06
2.152791e-06 8.266624e-06 -1.104879e-06
5.565648e-06 7.635280e-06 -2.033275e-06
5.565648e-06 -7.635280e-06 -2.033275e-06
-4.442063e-06 -8.292623e-06 2.009399e-06
-8.572619e-07 8.407687e-06 -9.149677e-07
1.177821e-05 -1.922981e-06 -1.922293e-06
1.176187e-05 1.924450e-06 -1.933193e-06
3.840221e-06 1.178391e-05 1.503330e-06
-6.818894e-06 1.033761e-05 -1.515003e-06
-4.953873e-06 1.183783e-05 7.044056e-07
-8.413541e-06 -3.882732e-06 -1.918379e-06
2.456632e-06 -1.027335e-05 2.337848e-06
-6.579258e-06 -1.106678e-05 -5.533360e-07
-9.083138e-07 8.336495e-06 7.424528e-07
-2.347865e-06 -1.204073e-05 1.642137e-06
1.276932e-05 1.458666e-06 6.384041e-07
1.276932e-05 -1.458666e-06 6.384041e-07
-1.670312e-06 -8.455150e-06 1.236551e-06
-8.630518e-06 -7.553666e-06 2.171813e-06
-1.187076e-06 1.279335e-05 6.525470e-07
-1.117728e-05 -1.398135e-06 2.242704e-06
-4.790630e-06 8.456367e-06 2.164665e-06
-1.129236e-05 1.617542e-06 2.195393e-06
-6.563002e-06 5.405562e-06 -1.027190e-06
-1.001513e-05 -7.086652e-06 -1.640822e-06
7.050782e-06 1.020861e-05 1.487753e-06
1.035879e-05 -7.581788e-06 -6.903246e-07
1.035879e-05 7.581788e-06 -6.903246e-07
-6.489887e-06 1.049894e-05 1.562067e-06
-1.175222e-06 -8.918646e-06 -1.698179e-06
-1.286748e-05 4.932217e-07 -5.444661e-07
-1.224122e-05 1.000872e-06 -1.627246e-06
8.610117e-06 9.661299e-06 -5.726916e-22
-1.504314e-06 9.739213e-06 2.215213e-06
-1.129889e-06 -1.218099e-05 -1.676121e-06
8.358280e-06 -9.745249e-06 6.849145e-07
-8.494302e-06 2.837526e-06 -1.659373e-06
1.199707e-05 4.570956e-06 6.858664e-07
1.199707e-05 -4.570956e-06 6.858664e-07
-4.294671e-06 8.112036e-06 -1.854342e-06
-5.855295e-06 -7.691638e-06 2.142549e-06
-5.041785e-06 -1.059024e-05 -2.049139e-06
3.521777e-06 -1.183730e-05 1.553994e-06
7.839150e-06 7.739465e-06 2.301436e-06
-7.844887e-06 6.580129e-06 2.309707e-06
7.839150e-06 -7.739465e-06 2.301436e-06
-8.375274e-06 -6.296348e-07 -7.804148e-07
2.241939e-06 -1.214975e-05 1.548597e-06
-8.105954e-06 2.408521e-06 -9.264773e-07
-9.663983e-06 -4.899822e-06 2.326638e-06
-1.243357e-05 -1.075961e-06 -1.394245e-06
-1.241865e-05 3.412705e-06 5.356134e-07
4.707321e-06 7.066247e-06 -1.002470e-06
[...]
POINT_DATA 1285
VECTORS 10.000GHz_fone_imag double
-1.040617e-05 -3.696437e-04 2.671597e-02
2.501283e-03 4.554229e-04 2.733477e-02
4.044230e-02 -4.626887e-02 -1.932735e-02
-8.513906e-03 -1.147051e-03 2.736151e-02
-9.500549e-03 1.340557e-03 2.851300e-02
8.549739e-03 -2.238737e-02 2.339103e-02
-2.084824e-02 -3.942315e-02 -8.843892e-02
2.475843e-02 -5.279213e-02 -1.620993e-02
-2.008605e-02 -3.868290e-02 9.648056e-03
-6.894365e-03 5.066565e-03 2.845976e-02
-4.861862e-03 9.667903e-03 2.651704e-02
8.639957e-04 8.959436e-03 2.887452e-02
2.184754e-02 -3.754628e-02 1.196620e-02
1.361838e-02 5.808036e-03 2.796234e-02
1.246166e-02 -5.894792e-02 -3.940297e-02
-9.988561e-03 2.557064e-02 2.087957e-02
-2.342384e-02 -1.177426e-02 2.438504e-02
-2.315371e-02 1.221443e-02 2.457244e-02
-1.206520e-02 -4.026047e-02 -9.232593e-02
-2.359804e-02 1.819169e-02 1.957998e-02
-2.439579e-02 -1.851277e-02 2.013853e-02
-5.591361e-02 2.093469e-02 -1.258275e-02
4.180336e-02 -4.835258e-02 -4.220990e-02
-1.022383e-02 -4.079794e-02 1.087417e-02
7.345418e-04 1.483205e-04 -1.053876e-01
-5.269828e-02 -3.196659e-02 -2.580831e-02
-2.296118e-02 6.145373e-02 -4.032352e-02
5.395140e-03 6.955892e-03 2.639863e-02
6.938773e-03 -7.567594e-03 2.872974e-02
-2.654790e-02 5.043449e-03 1.969423e-02
7.757099e-04 9.303213e-03 2.835546e-02
3.099540e-04 -1.122425e-02 2.839603e-02
-1.565503e-02 4.193419e-02 1.137848e-02
4.139236e-04 4.463769e-02 1.013502e-02
-7.237766e-03 5.544289e-03 2.567703e-02
5.159100e-04 1.159121e-03 -1.006874e-01
-3.308257e-02 -5.077125e-02 -3.916338e-02
2.700027e-02 -8.353999e-03 -1.045501e-01
4.351642e-02 4.468209e-02 -4.128352e-02
-2.705018e-02 3.663834e-02 6.969914e-03
6.660859e-03 -4.080386e-02 1.484814e-02
5.602208e-02 2.098093e-02 -1.187840e-02
5.237875e-02 2.888024e-02 -2.168088e-02
4.668385e-02 -1.305397e-02 2.553741e-03
4.787490e-02 1.217434e-02 1.514965e-04
8.513822e-03 5.826518e-04 2.664814e-02
-3.123405e-02 1.780598e-02 1.552614e-02
1.908524e-02 -6.224146e-02 -4.482638e-02
-1.431363e-03 8.774439e-03 2.588921e-02
4.545368e-03 -8.167328e-03 2.821405e-02
2.180007e-02 -1.155185e-02 2.059021e-02
2.157375e-02 1.071381e-02 2.155410e-02
-1.015485e-02 -5.894552e-02 -1.367013e-02
-5.313590e-03 -4.146790e-02 1.521678e-02
-1.363617e-03 -6.466786e-03 2.686575e-02
3.736754e-02 2.254033e-02 1.241735e-02
-7.912707e-03 4.001346e-02 -8.603102e-02
-3.307808e-02 -1.860067e-02 1.713563e-02
-8.301001e-03 -2.941676e-02 2.175610e-02
-8.576358e-03 2.271103e-02 2.304684e-02
-1.706510e-03 8.625373e-03 2.763044e-02
-1.575131e-02 5.198869e-02 1.793778e-03
1.105021e-03 -4.669367e-03 -1.000168e-01
2.789451e-04 3.000971e-04 -1.096691e-01
-3.285677e-02 4.252219e-02 -1.872893e-03
-4.507019e-02 1.163421e-02 9.132250e-03
-3.359798e-03 -8.784989e-03 2.862444e-02
2.029963e-02 1.493303e-03 2.361448e-02
-1.398629e-02 1.400191e-02 -1.027674e-01
1.052360e-02 -2.099274e-02 2.431114e-02
1.057395e-02 2.008378e-02 2.481896e-02
-6.269506e-03 -7.844831e-03 2.487887e-02
-4.358870e-03 6.381230e-03 2.595301e-02
-4.176924e-02 -2.204212e-03 1.463609e-02
-2.877767e-02 4.084480e-02 -7.800934e-02
1.071200e-02 -8.811494e-05 2.832994e-02
9.682115e-03 6.467564e-05 2.606416e-02
1.106164e-03 -2.157901e-02 2.314342e-02
-4.616845e-02 2.027386e-02 -7.398281e-02
5.255897e-03 -3.772581e-03 -9.988556e-02
-5.128682e-02 -2.385862e-02 -7.924010e-02
-5.290439e-02 -4.101352e-02 -4.072640e-02
5.659277e-02 -3.282043e-02 -5.190126e-02
5.880380e-02 2.972461e-02 -5.173599e-02
-1.226794e-02 -5.719707e-02 -3.557847e-02
-4.035674e-03 1.690295e-02 -9.901480e-02
-2.388956e-03 4.486797e-03 -1.002707e-01
-5.859258e-02 -2.630300e-02 -2.653907e-02
-6.044882e-02 2.809885e-02 -2.425423e-02
5.599368e-02 -3.128689e-02 -5.212779e-02
7.469195e-03 1.302283e-02 -1.074803e-01
-5.794018e-02 3.006447e-03 -2.937597e-02
-6.484543e-02 -5.177555e-03 -2.900054e-02
2.668919e-02 7.561911e-03 2.361653e-02
5.097516e-03 -7.127400e-03 2.854910e-02
2.875936e-02 -4.901969e-02 -7.222339e-03
2.104968e-02 6.199785e-02 -4.137339e-02
-7.367103e-03 -2.478463e-02 2.404913e-02
4.807109e-02 -1.685860e-02 -6.852597e-02
-5.070045e-03 6.389527e-03 2.711757e-02
-3.877625e-02 -2.076968e-02 1.040207e-02
3.333326e-02 1.636896e-02 1.919730e-02
-3.909731e-02 2.324648e-02 -9.275366e-02
-4.203472e-02 -2.157617e-02 -7.925565e-02
1.444042e-02 3.319001e-02 1.698700e-02
1.167664e-02 2.802859e-03 -1.056883e-01
1.037591e-02 2.241137e-03 -1.048483e-01
-1.655649e-02 -4.747741e-02 6.181552e-03
5.530580e-02 -3.822942e-02 -3.937035e-02
5.508305e-02 3.895160e-02 -3.970803e-02
-3.769849e-03 1.149317e-03 -1.084715e-01
-1.600320e-03 -6.059222e-03 -1.082325e-01
-1.304182e-03 1.037373e-03 2.846672e-02
3.325142e-02 -1.657489e-02 1.918436e-02
-2.952133e-02 1.139656e-02 2.110327e-02
-2.874448e-02 -1.138313e-02 2.260764e-02
3.287878e-03 -2.737233e-02 2.024412e-02
3.954561e-02 9.928596e-03 9.797360e-03
9.700751e-03 5.273547e-03 2.749938e-02
9.982996e-03 -5.077510e-03 2.832064e-02
3.343225e-02 -4.674357e-02 -8.045193e-02
4.945174e-04 -8.709410e-03 2.877746e-02
-3.592552e-03 -7.264182e-03 2.663932e-02
-2.217834e-03 -4.566250e-05 -1.085579e-01
1.258268e-02 5.890526e-02 -6.835250e-02
-5.756709e-02 2.734002e-03 -5.824967e-03
8.131709e-03 -1.816834e-02 2.391164e-02
1.908623e-03 7.209495e-03 2.864127e-02
-1.327812e-03 9.755206e-03 2.594531e-02
6.096047e-03 -6.061939e-02 -4.270883e-02
-2.416600e-02 1.602548e-02 1.917873e-02
-1.030752e-02 -6.091718e-02 -3.032455e-02
4.293919e-02 -4.159791e-02 -1.042993e-02
1.585972e-02 1.965141e-02 2.478350e-02
1.572123e-02 -2.098828e-02 2.110556e-02
1.151902e-02 -5.416673e-02 -6.695922e-02
3.353704e-02 5.513933e-02 -5.582960e-02
3.139988e-02 -4.773934e-02 -5.041729e-02
-7.577169e-03 -6.264671e-03 2.887188e-02
-3.140170e-02 5.199758e-02 -1.432151e-02
-2.139210e-02 -1.182216e-02 2.478465e-02
-2.197681e-02 1.171282e-02 2.466227e-02
-4.404003e-02 4.784032e-02 -5.600135e-02
3.057470e-03 5.210435e-02 -2.969644e-03
-4.790377e-03 9.136554e-03 2.567576e-02
6.875141e-03 -4.653736e-03 2.621412e-02
6.402666e-02 1.338371e-02 -2.853419e-02
-6.626760e-03 -3.718454e-02 1.516482e-02
2.715360e-02 -4.430848e-02 -8.368631e-04
2.990673e-02 4.743314e-02 -5.596241e-03
2.703071e-02 4.998610e-02 -9.229244e-03
1.213178e-02 -4.529649e-02 -9.043322e-02
-8.039669e-04 -6.386920e-03 2.760627e-02
-1.914013e-02 -1.339121e-03 2.413334e-02
-2.229372e-02 9.999969e-04 2.601398e-02
5.993420e-03 8.010344e-03 2.499567e-02
5.697829e-03 -7.992936e-03 2.831735e-02
5.124268e-02 3.938000e-02 -2.150133e-02
-3.987389e-03 1.264374e-02 -9.983410e-02
1.079133e-02 -3.487777e-02 -1.020980e-01
5.435975e-02 1.407268e-02 -2.294061e-03
-4.080051e-02 3.145235e-02 1.480753e-03
-1.183443e-02 5.780312e-02 -7.693395e-03
3.580660e-02 -2.526443e-03 1.883912e-02
3.382059e-02 3.414380e-03 1.761331e-02
5.832358e-03 5.888411e-02 -5.064743e-02
4.111657e-02 3.010492e-02 -1.499767e-03
-9.992246e-03 -5.716881e-02 -6.950652e-02
-5.841831e-02 -9.722757e-03 -1.989656e-02
4.344124e-02 2.000550e-02 5.512656e-03
2.430004e-03 -9.862939e-03 2.679276e-02
-2.829645e-03 -1.085020e-02 -9.932415e-02
1.821900e-03 -4.785843e-02 -8.177218e-02
4.348298e-02 -2.394279e-02 5.781593e-03
4.436987e-02 2.394178e-02 5.878956e-03
6.185727e-02 1.049631e-02 -1.599632e-02
5.826069e-02 -1.054164e-02 -1.352674e-02
-3.311697e-03 -7.791905e-03 2.820592e-02
6.574536e-03 -2.292846e-03 -1.063960e-01
-6.278835e-02 1.191816e-02 -2.019451e-02
6.334221e-03 3.386244e-03 -1.097178e-01
-2.399083e-03 -8.281019e-03 2.809561e-02
-8.936949e-03 2.862786e-03 2.891956e-02
-3.840227e-02 5.288422e-02 -4.057137e-02
-3.986367e-02 -5.571561e-02 -4.030887e-02
7.642282e-03 4.366364e-03 2.670437e-02
9.039992e-03 4.016491e-03 2.847768e-02
8.898282e-05 -3.253204e-02 -1.031106e-01
-4.575111e-02 -4.790957e-02 -3.605656e-02
-4.550996e-02 4.777821e-02 -3.610597e-02
5.941674e-02 -2.103324e-02 -5.143961e-02
1.026343e-02 4.322624e-02 -9.235514e-02
3.880075e-02 5.460056e-02 -4.481921e-02
3.767374e-02 -4.788685e-02 -4.272148e-02
3.004703e-02 5.955937e-02 -4.516002e-02
-5.129599e-03 3.457688e-02 -8.797553e-02
3.377132e-02 -5.144236e-03 2.057165e-02
3.417279e-02 5.535940e-03 1.964026e-02
-7.325519e-03 -2.081530e-02 2.250288e-02
-1.279823e-02 1.687624e-02 2.554253e-02
4.962725e-03 -8.859861e-03 2.769805e-02
-5.621642e-02 -2.418155e-02 -4.925667e-02
-1.377649e-02 5.518802e-02 -1.951825e-03
-2.521435e-03 -6.147759e-03 2.770677e-02
2.694362e-03 -3.061793e-02 -1.021733e-01
4.770186e-03 2.662198e-02 2.405460e-02
-9.156483e-03 -9.449033e-04 2.862215e-02
-7.046349e-03 1.043530e-03 2.595346e-02
9.380688e-03 5.261043e-02 -8.607830e-02
3.146876e-02 2.817818e-02 1.102234e-02
4.028638e-04 -9.875185e-03 2.861021e-02
4.276088e-02 5.994710e-03 7.605439e-03
3.079242e-02 -5.334329e-02 -3.071062e-02
4.198954e-02 -6.281271e-03 1.445183e-02
-2.996476e-02 2.194809e-02 -8.834105e-02
-1.865323e-02 -1.439665e-02 2.237519e-02
-1.182434e-02 -1.691170e-02 2.298186e-02
7.607590e-03 -5.104566e-03 2.916544e-02
7.606198e-03 5.333526e-03 2.910447e-02
1.219892e-02 -2.112604e-02 2.395362e-02
-8.583502e-03 -6.286983e-02 -6.321695e-02
-7.133546e-03 4.752934e-04 2.869453e-02
-2.276486e-02 3.347265e-03 2.291913e-02
-4.348212e-04 -3.797369e-04 2.976183e-02
9.345509e-03 -6.305926e-02 -2.715525e-02
-8.137204e-04 -2.523096e-02 2.390473e-02
-5.800371e-03 6.925038e-03 2.610338e-02
-5.815386e-02 1.689105e-02 -6.027163e-02
-8.604247e-03 -4.270057e-03 2.732773e-02
-9.347702e-03 3.945984e-03 2.547490e-02
-2.536428e-02 4.835259e-02 -5.390281e-02
3.994619e-02 5.262963e-02 -3.341501e-02
-1.633452e-02 -3.268127e-02 1.871005e-02
-7.763514e-03 2.328948e-02 2.497376e-02
-3.568460e-02 -3.258784e-02 4.695346e-03
4.835672e-02 -3.976698e-02 -1.516999e-02
-3.574724e-02 3.403658e-02 4.163168e-03
-3.169432e-02 -1.736415e-03 -9.750532e-02
-3.445796e-03 2.381594e-02 2.512415e-02
-2.957289e-02 1.200724e-02 -9.560549e-02
4.816410e-02 2.453684e-02 3.650822e-03
-2.050774e-02 -2.974396e-03 2.260544e-02
6.797541e-03 -1.093629e-03 2.758784e-02
2.107356e-02 3.085223e-02 -8.338503e-02
2.272549e-02 -3.344922e-02 -9.704618e-02
-5.322743e-02 -3.978161e-02 -3.492393e-02
-3.032355e-02 5.851237e-02 -2.941262e-02
-4.913740e-02 3.651724e-02 -3.218962e-02
-1.005525e-02 -2.465116e-02 2.442978e-02
-3.754602e-03 -1.916850e-02 2.696347e-02
1.399730e-02 1.388640e-02 2.693114e-02
4.807494e-03 3.908228e-02 1.660193e-02
9.381672e-03 6.457773e-02 -4.232284e-02
-6.105864e-02 -1.777133e-02 -3.918328e-02
-2.690847e-02 5.098824e-02 -5.644588e-03
3.312708e-02 -2.224844e-02 1.588146e-02
-1.486933e-02 2.654987e-02 -9.218740e-02
-3.767633e-02 -4.304740e-02 -6.741059e-03
6.074860e-02 4.214909e-03 -5.415841e-02
-3.638509e-03 -2.744309e-02 2.234353e-02
1.055276e-02 -5.488539e-02 -2.689879e-03
4.776908e-02 1.473689e-04 8.276636e-03
2.761161e-02 4.048249e-02 1.342929e-03
2.292557e-02 -9.091883e-03 2.141107e-02
2.249045e-02 1.102038e-02 2.200851e-02
-1.474976e-02 1.076563e-02 -1.083763e-01
4.331221e-03 6.017853e-02 -1.032984e-02
1.870961e-03 2.799009e-02 -1.040945e-01
-3.760987e-02 4.283692e-02 -7.873170e-03
2.345454e-02 8.397878e-03 2.493841e-02
4.915366e-04 2.486957e-02 2.475399e-02
1.721449e-02 1.814254e-02 2.230927e-02
1.915931e-02 -1.936085e-02 2.289224e-02
4.859969e-03 4.332727e-03 2.621621e-02
1.637622e-02 4.410881e-02 8.456546e-03
1.453494e-02 -4.328072e-02 9.828188e-03
3.532565e-02 3.717704e-02 -3.939996e-04
1.137301e-03 4.247057e-02 1.169107e-02
-3.940693e-02 -2.096560e-02 8.137027e-03
-6.004289e-02 2.115320e-02 -3.974173e-02
-3.930553e-02 2.251824e-02 8.194512e-03
-7.121463e-03 3.772290e-02 1.649819e-02
3.904129e-02 3.505897e-02 -6.963679e-02
2.703912e-02 -1.520156e-03 -9.361920e-02
1.125031e-02 1.822978e-02 2.568603e-02
1.006019e-02 -1.624777e-02 2.517328e-02
1.837951e-02 -9.037471e-03 2.277494e-02
1.724745e-02 7.448109e-03 2.415978e-02
-1.621664e-02 1.477596e-02 2.385800e-02
-1.617599e-02 -1.705468e-02 2.486862e-02
-9.500837e-03 6.243794e-02 -1.322914e-02
2.009193e-02 -4.752289e-02 -6.580145e-02
-6.076148e-02 8.691759e-04 -6.235038e-02
-6.377646e-02 2.711706e-03 -5.771288e-02
-1.721854e-03 2.018603e-02 2.529998e-02
-1.976200e-02 1.804808e-02 2.294884e-02
-4.832975e-02 -2.413634e-02 -6.384324e-02
-4.856441e-02 2.872022e-02 -6.091255e-02
2.084682e-02 -3.669624e-02 1.301198e-02
1.947456e-02 3.644189e-02 1.344797e-02
7.515782e-03 2.286295e-02 2.489984e-02
4.516819e-02 7.361733e-03 4.567896e-03
6.466095e-03 -2.355308e-02 2.403905e-02
2.550705e-02 1.714590e-03 2.342210e-02
-4.682762e-02 -3.461179e-02 -1.470130e-02
-4.861070e-02 3.850370e-02 -1.347078e-02
1.849980e-02 -1.954714e-02 -9.607222e-02
4.096838e-02 -3.393223e-02 -7.568467e-02
-2.520501e-02 -4.377135e-03 2.367303e-02
-2.338794e-02 6.957244e-03 2.453475e-02
6.283776e-03 5.228252e-04 2.633620e-02
-3.047813e-02 1.331730e-02 -1.006385e-01
4.835863e-02 -8.092522e-03 1.025355e-03
-2.690305e-02 -1.603368e-02 -1.023173e-01
2.487212e-03 8.742314e-03 -1.109886e-01
-6.589238e-03 -2.586361e-03 2.911481e-02
-7.194604e-03 4.779119e-02 2.913195e-03
5.248710e-03 -2.260012e-03 2.570988e-02
-1.180061e-02 1.677872e-02 2.463562e-02
2.622606e-02 5.441973e-02 -1.794396e-02
8.511179e-04 -5.204374e-04 2.947614e-02
4.026162e-03 5.945837e-02 -3.215969e-02
-2.508670e-02 -5.373237e-02 -1.874957e-02
-3.697731e-02 -4.065907e-02 -1.664145e-02
-2.689138e-02 5.376811e-02 -6.949649e-03
-2.728664e-02 -5.004541e-02 -5.506060e-03
-7.624675e-03 -5.464724e-02 -4.504275e-03
-7.988088e-03 -5.192740e-02 -4.926978e-03
-1.841511e-04 2.985609e-03 -9.971208e-02
-3.669292e-03 -3.595396e-03 -1.038079e-01
-3.928742e-02 4.087405e-02 -1.678628e-03
2.750330e-04 5.900586e-04 2.955725e-02
2.041213e-02 -4.689757e-02 2.398283e-03
2.155895e-02 4.945007e-02 3.848105e-03
5.155362e-02 -6.252978e-03 5.264289e-03
-9.557104e-03 4.417029e-02 4.773542e-03
5.566658e-02 3.210879e-02 -5.225432e-02
5.637508e-02 -3.085714e-02 -4.982834e-02
-4.896749e-02 -9.840240e-03 6.083549e-03
-4.886275e-02 1.292198e-03 5.356362e-03
2.669155e-02 1.024539e-02 -9.551999e-02
3.509917e-02 -2.501794e-02 8.264448e-03
-3.864693e-04 3.076869e-04 2.706287e-02
3.578097e-02 2.497476e-02 7.864535e-03
8.363673e-03 4.594005e-02 1.081990e-02
7.262622e-03 -4.532912e-02 1.024531e-02
2.953807e-02 3.601442e-02 1.085119e-02
-3.804691e-02 2.517750e-02 1.147652e-02
-2.184514e-02 -1.644497e-02 -9.629192e-02
-2.447094e-02 2.156845e-02 -1.019581e-01
7.859913e-03 1.543768e-02 -1.090626e-01
-6.506822e-03 3.784372e-02 -9.299567e-02
-8.923114e-03 -3.633193e-02 -9.377525e-02
1.695345e-04 -3.896309e-04 2.960828e-02
-1.005650e-03 5.509750e-03 -1.087476e-01
-3.585600e-02 -2.315976e-02 1.369016e-02
-5.702634e-02 2.763460e-02 -5.292871e-02
-5.446007e-02 -2.259068e-02 -4.678782e-02
3.739448e-02 -2.052827e-02 1.283262e-02
8.444195e-03 3.579680e-02 1.223642e-02
5.377021e-02 2.220426e-02 -8.950345e-03
1.432630e-02 -3.944126e-02 1.518348e-02
2.335989e-02 -3.149447e-02 1.581064e-02
-1.925522e-02 -3.997655e-03 2.419023e-02
1.388316e-03 3.819087e-04 2.907414e-02
-2.012416e-02 4.478674e-03 2.638459e-02
-4.791341e-03 3.569197e-03 -1.021180e-01
2.569078e-02 2.848226e-02 1.614181e-02
2.121803e-02 -2.848544e-02 1.750820e-02
-9.655631e-03 -3.229893e-02 1.482757e-02
-3.020906e-02 -1.195307e-02 1.698194e-02
-1.195376e-02 3.526914e-02 1.471206e-02
-5.423136e-02 9.161901e-03 -6.885089e-02
-1.787918e-02 -2.921204e-02 1.650482e-02
7.366308e-04 3.370999e-02 1.579481e-02
-3.700209e-04 1.447275e-03 2.875243e-02
3.645351e-02 -4.121815e-02 -8.075979e-02
1.345941e-03 -3.747436e-02 1.830387e-02
3.619054e-02 -9.866315e-03 1.472442e-02
2.342009e-02 5.390835e-02 -7.354339e-02
2.122889e-02 -5.397119e-02 -6.368714e-02
-3.261512e-02 8.412686e-03 1.514911e-02
3.066334e-02 9.407869e-03 2.180346e-02
2.316688e-02 1.521041e-02 1.996276e-02
-1.879421e-02 -2.810692e-02 1.995965e-02
-1.964961e-02 2.838850e-02 1.918552e-02
8.654221e-04 -2.138845e-04 2.753795e-02
5.960474e-02 2.509885e-02 -5.615154e-02
5.658418e-02 -2.128859e-02 -5.147388e-02
-1.164312e-02 -3.342464e-02 1.928731e-02
-1.940732e-02 3.021422e-02 1.901046e-02
5.077025e-02 -8.900891e-03 -7.584467e-02
3.830167e-02 4.302805e-02 -5.578044e-02
-1.359330e-02 5.486786e-02 -7.406639e-02
-4.694324e-02 -3.915331e-02 -7.360251e-02
-3.450181e-02 4.107476e-02 -6.734290e-02
3.993784e-02 -2.924959e-02 -7.010792e-02
6.704781e-04 6.367641e-05 2.914374e-02
-4.555374e-05 9.070246e-04 2.926431e-02
1.227406e-04 3.500623e-02 1.719917e-02
-1.134244e-02 -6.054313e-02 -6.069952e-02
-5.746617e-02 -9.447219e-03 -6.095050e-02
3.500975e-02 3.254659e-03 1.971093e-02
-4.558381e-03 -5.190424e-02 -6.861791e-02
-2.011283e-02 -2.156533e-02 2.073874e-02
-5.604500e-02 3.587808e-02 -5.383670e-02
1.982527e-02 -1.766827e-02 2.082715e-02
-3.368227e-02 -4.419095e-02 -7.156107e-02
1.339103e-02 5.287682e-02 -6.582613e-02
-1.269937e-04 1.100788e-03 2.828756e-02
-2.867410e-02 4.572445e-02 -6.062717e-02
-2.775929e-02 -4.058731e-02 -6.405516e-02
1.366373e-02 -2.810250e-02 2.067737e-02
1.905081e-02 -4.962226e-02 -6.624929e-02
-2.203574e-02 -1.848403e-02 1.943301e-02
-2.203090e-02 1.905629e-02 1.930001e-02
-1.214020e-02 2.936398e-02 1.979245e-02
1.587224e-02 2.568810e-02 2.267579e-02
-2.893247e-03 4.355778e-02 -9.140738e-02
1.903532e-02 -3.553219e-03 2.370636e-02
-3.763587e-04 7.118872e-04 2.924634e-02
1.994843e-02 3.069313e-03 2.645924e-02
1.523092e-02 -2.446743e-02 2.059875e-02
1.449928e-02 2.491065e-02 2.104722e-02
-4.043196e-02 1.184104e-02 1.157557e-02
-4.241898e-02 -1.441281e-02 1.170755e-02
-2.673025e-02 -2.124813e-03 1.938281e-02
2.280630e-02 2.028475e-02 2.318365e-02
-1.169774e-03 -2.641744e-02 2.201974e-02
-1.229829e-02 -2.680007e-02 2.312806e-02
4.247714e-03 -2.434813e-02 2.060862e-02
2.368867e-05 6.476659e-04 2.954912e-02
-4.950161e-02 -3.285913e-02 -1.038929e-02
-5.084862e-02 3.444041e-02 -1.161763e-02
2.062544e-02 2.319314e-02 -9.066673e-02
2.572043e-02 -2.121649e-02 -8.785363e-02
-2.169633e-02 1.852599e-02 2.429586e-02
-1.455607e-02 8.764213e-03 -1.031475e-01
-4.572176e-03 2.489737e-02 2.481873e-02
-3.926615e-03 -2.751322e-02 2.318204e-02
-2.183677e-02 9.814841e-03 2.127289e-02
2.457119e-02 7.169946e-03 2.083869e-02
-2.061886e-04 6.311658e-04 2.954800e-02
2.519615e-02 -7.942051e-03 2.424655e-02
4.504918e-02 9.618503e-03 -9.440087e-02
3.102507e-02 2.474393e-02 -8.562894e-02
-9.757601e-03 -1.902955e-02 2.359556e-02
8.629981e-03 -2.462100e-02 2.326428e-02
8.425312e-03 2.617079e-02 2.430419e-02
-5.015271e-02 1.150342e-02 -8.663729e-02
-4.669026e-02 -1.050329e-02 -8.969776e-02
-4.577115e-03 -5.971523e-02 -6.037164e-02
5.295584e-03 6.315312e-02 -1.630715e-02
-8.172264e-04 5.798385e-04 2.801930e-02
-5.982668e-02 -3.163595e-03 -1.821751e-02
-1.648932e-02 1.954120e-02 2.246838e-02
-3.241791e-03 -2.222914e-02 2.306202e-02
-2.186637e-02 5.879996e-02 -2.668539e-02
-1.192714e-02 2.229064e-02 2.297879e-02
3.056484e-02 -8.536268e-03 -9.017757e-02
3.622189e-02 7.996712e-03 -9.630154e-02
6.329934e-02 -2.213878e-03 -3.298181e-02
-2.356469e-02 -5.965030e-02 -3.131638e-02
8.606015e-03 2.183364e-02 2.291332e-02
2.663945e-04 1.175323e-04 2.975203e-02
2.500078e-02 -3.964127e-03 2.177080e-02
-8.661305e-03 2.096301e-02 2.505801e-02
2.695248e-03 2.375680e-02 2.522015e-02
1.941485e-02 -1.247986e-02 2.257054e-02
2.063466e-02 1.297090e-02 2.216243e-02
3.438117e-02 -5.741679e-02 -2.792356e-02
3.433277e-02 5.398611e-02 -2.577363e-02
-2.069184e-02 5.480774e-02 -1.967960e-02
-3.557572e-02 -5.020445e-02 -1.690027e-02
2.240862e-02 -3.607902e-04 2.368819e-02
4.730992e-04 7.977156e-04 2.862298e-02
-1.577868e-02 1.739668e-02 2.321541e-02
-1.662063e-02 -1.803893e-02 2.537042e-02
-2.187020e-02 -5.848892e-03 2.261264e-02
-4.368570e-02 -6.738562e-03 1.287120e-02
-3.884671e-02 4.994393e-03 1.130123e-02
1.652298e-02 6.061491e-02 -2.354068e-02
1.701529e-02 -6.180964e-02 -2.045793e-02
1.938490e-02 1.215417e-02 -1.025939e-01
1.395398e-02 -7.057060e-03 -9.589718e-02
-2.409547e-02 -1.003014e-02 -9.696060e-02
-1.410957e-04 -2.404622e-04 2.637632e-02
-1.208379e-04 9.689385e-03 -9.693775e-02
2.989136e-05 5.712818e-02 -7.606735e-02
1.924348e-02 -1.287345e-02 2.560303e-02
6.587107e-02 -9.073988e-03 -4.460605e-02
6.594295e-02 8.665840e-03 -4.589812e-02
-1.588697e-02 -1.232292e-02 2.246302e-02