# vtk DataFile Version 2.0
Electric current density generated by TTH
ASCII
DATASET UNSTRUCTURED_GRID
POINTS 4823 double
8.220714e-06 3.321230e-05 -2.273289e-22
1.682491e-05 -2.795435e-05 -6.531735e-07
3.378007e-05 8.899425e-07 -7.784940e-07
3.378007e-05 -8.899425e-07 -7.784940e-07
3.373222e-06 -3.224302e-05 3.301257e-07
-3.235449e-05 -9.637769e-06 -7.985694e-07
-2.449403e-05 2.305893e-05 8.580226e-07
-3.318751e-05 5.501015e-06 8.580226e-07
-3.370762e-05 1.481654e-06 8.096733e-07
-1.278819e-05 3.122276e-05 8.096733e-07
-1.925607e-05 2.770564e-05 8.096733e-07
7.654023e-06 3.334746e-05 -2.273289e-22
2.817349e-05 1.638389e-05 6.147382e-07
2.817349e-05 -1.638389e-05 6.147382e-07
-3.337355e-05 -5.154862e-06 -7.926343e-07
1.051140e-05 3.204933e-05 -8.158021e-07
-3.224159e-05 -3.758820e-06 4.223567e-07
1.597398e-05 2.962839e-05 -8.495528e-07
1.597398e-05 -2.962839e-05 -8.495528e-07
-2.234958e-05 -2.439472e-05 -9.059811e-07
-2.628928e-05 -2.007568e-05 -9.044523e-07
2.275834e-05 2.497291e-05 7.813324e-07
7.085114e-06 3.347295e-05 -2.273289e-22
2.275834e-05 -2.497291e-05 7.813324e-07
2.273637e-05 2.492048e-05 -8.131804e-07
2.273637e-05 -2.492048e-05 -8.131804e-07
-1.465355e-05 -2.966006e-05 -9.054391e-07
-9.200503e-06 -3.177730e-05 -9.054392e-07
-5.021591e-06 -3.269906e-05 -9.054362e-07
-3.360893e-05 -7.778210e-07 8.669243e-07
6.187066e-06 -3.314544e-05 8.217292e-07
3.259466e-05 8.491079e-06 -8.393930e-07
3.259466e-05 -8.491079e-06 -8.393930e-07
6.514150e-06 3.358873e-05 -2.273289e-22
-1.980494e-05 -2.740390e-05 7.654229e-07
-3.281735e-05 -7.974852e-06 -7.907300e-07
2.523832e-05 -2.157032e-05 9.241234e-07
2.526207e-05 2.154250e-05 9.241234e-07
6.999441e-06 3.302719e-05 7.977990e-07
-8.058234e-06 -3.274947e-05 8.172916e-07
-6.456493e-06 -3.310332e-05 8.168649e-07
-1.615033e-05 -2.960759e-05 8.174559e-07
-3.270491e-05 -2.570328e-06 7.939775e-07
1.168009e-05 -3.054687e-05 7.224487e-07
5.941298e-06 3.369478e-05 -2.273289e-22
1.006995e-06 -3.238075e-05 2.632431e-07
4.565187e-06 -3.203924e-05 9.185906e-08
2.677738e-05 2.046641e-05 -8.293345e-07
2.677738e-05 -2.046641e-05 -8.293345e-07
-3.123798e-05 -9.142074e-06 5.626233e-07
2.996081e-05 -1.553289e-05 8.052906e-07
2.996081e-05 1.553289e-05 8.052906e-07
3.142136e-05 8.460892e-06 -5.523862e-07
3.142136e-05 -8.460892e-06 -5.523862e-07
-3.084516e-05 -1.032061e-05 -5.321110e-07
5.366723e-06 3.379105e-05 -2.273289e-22
-3.178767e-05 6.706194e-06 4.721588e-07
-2.460388e-05 2.121504e-05 4.721588e-07
-2.976561e-05 1.301679e-05 4.721588e-07
-1.747699e-05 -2.882543e-05 8.259569e-07
-3.117307e-06 -3.223029e-05 -2.026877e-07
-3.348466e-05 -4.262191e-06 8.012780e-07
3.774244e-06 -3.348996e-05 8.299250e-07
3.302125e-05 -6.695371e-06 8.342643e-07
3.302125e-05 6.695371e-06 8.342643e-07
3.334850e-05 -5.153777e-06 8.072900e-07
4.790593e-06 3.387753e-05 -2.273289e-22
3.334850e-05 5.153777e-06 8.072900e-07
2.090892e-06 -3.367974e-05 8.071837e-07
1.215109e-06 -3.346612e-05 -9.059502e-07
3.293041e-05 2.042379e-06 -8.807628e-07
3.293041e-05 -2.042379e-06 -8.807628e-07
1.580918e-05 2.846750e-05 -5.810728e-07
-3.029211e-05 -1.486573e-05 8.079801e-07
2.310086e-05 2.304928e-05 -6.592404e-07
2.310086e-05 -2.304928e-05 -6.592404e-07
-2.036922e-05 -2.555183e-05 7.002230e-07
4.213073e-06 3.395419e-05 -2.273289e-22
2.672223e-05 -1.904342e-05 7.986442e-07
2.672223e-05 1.904342e-05 7.986442e-07
3.355656e-05 3.405605e-06 8.158671e-07
3.355656e-05 -3.405605e-06 8.158671e-07
3.256345e-05 -1.945888e-06 6.475856e-07
3.256345e-05 1.945888e-06 6.475856e-07
-1.618381e-05 2.952784e-05 8.442286e-07
-6.520429e-06 3.303472e-05 8.442286e-07
3.183691e-07 3.367057e-05 8.442286e-07
2.831349e-05 1.842844e-05 -7.844160e-07
3.634332e-06 3.402100e-05 -2.273289e-22
2.831349e-05 -1.842844e-05 -7.844160e-07
6.118469e-06 -3.224492e-05 -8.025841e-07
-9.134994e-06 -3.128483e-05 6.149389e-07
-1.436958e-05 -2.925242e-05 6.149390e-07
-4.873847e-06 -3.222475e-05 6.149391e-07
-2.585844e-05 -1.983945e-05 6.162216e-07
9.489451e-06 -3.114008e-05 -5.699075e-07
-2.206790e-05 -2.398507e-05 6.164404e-07
-3.136502e-05 -1.259584e-05 7.733072e-07
8.770935e-06 3.264858e-05 7.689494e-07
3.054537e-06 3.407795e-05 -2.273289e-22
-3.133196e-05 9.039123e-06 -6.352812e-07
-2.618298e-05 1.943834e-05 -6.352812e-07
-2.884601e-05 1.520872e-05 -6.352812e-07
-2.977865e-05 -1.602925e-05 7.603463e-07
-3.384156e-05 -1.680885e-06 7.107891e-07
-3.244552e-05 9.090247e-07 -4.190101e-07
7.547349e-06 -3.292539e-05 -7.864371e-07
-3.258256e-05 -2.497541e-06 -7.010203e-07
1.263212e-05 -3.004308e-05 -6.143872e-07
1.102506e-05 -3.081565e-05 -7.417457e-07
2.473856e-06 3.412502e-05 -2.273289e-22
2.853340e-05 -1.554930e-05 4.851160e-07
2.853340e-05 1.554930e-05 4.851160e-07
2.916749e-05 1.696394e-05 8.086844e-07
2.916749e-05 -1.696394e-05 8.086844e-07
2.494371e-05 -2.108325e-05 -6.850928e-07
2.494371e-05 2.108325e-05 -6.850928e-07
8.984390e-06 -3.111911e-05 2.408871e-07
3.013927e-06 -3.256919e-05 -7.261239e-07
1.218862e-05 3.155472e-05 -7.545039e-07
3.297197e-05 -7.556383e-06 -7.546455e-07
1.892458e-06 3.416220e-05 -2.273289e-22
3.297197e-05 7.556383e-06 -7.546455e-07
-1.810902e-05 -2.713453e-05 6.484413e-07
1.261350e-05 3.018530e-05 7.311567e-07
2.587481e-05 1.970364e-05 -5.276991e-07
2.587481e-05 -1.970364e-05 -5.276991e-07
-2.710408e-05 -2.011342e-05 -8.030737e-07
3.012836e-05 1.232049e-05 5.651003e-07
3.012836e-05 -1.232049e-05 5.651003e-07
-2.723105e-05 -1.797575e-05 6.552478e-07
-2.286044e-05 2.307259e-05 -4.592957e-07
1.310512e-06 3.418947e-05 -2.273289e-22
-1.897749e-05 2.635903e-05 -4.592957e-07
-1.180931e-05 3.025697e-05 -4.592957e-07
-1.619023e-05 2.815706e-05 -4.592957e-07
-1.483358e-05 2.889479e-05 -4.592957e-07
-3.220804e-05 4.193551e-06 -4.592957e-07
-6.940144e-06 3.172977e-05 -4.592957e-07
-5.424130e-06 3.202378e-05 -4.592957e-07
-3.574052e-07 3.247793e-05 -4.592956e-07
1.186731e-06 3.245821e-05 -4.592961e-07
6.240127e-06 3.187479e-05 -4.592234e-07
7.281852e-07 3.420682e-05 -2.273289e-22
-8.940913e-06 -3.254874e-05 -8.015226e-07
-1.536570e-05 -3.005421e-05 -8.015230e-07
-5.581629e-06 -3.328971e-05 -8.015330e-07
1.921544e-05 2.778198e-05 7.861795e-07
1.849576e-05 2.831677e-05 7.579824e-07
1.921544e-05 -2.778198e-05 7.861795e-07
1.849576e-05 -2.831677e-05 7.579824e-07
3.089536e-05 -1.350014e-05 8.226842e-07
3.089536e-05 1.350014e-05 8.226842e-07
3.217639e-05 1.031986e-05 7.791243e-07
1.456476e-07 3.421426e-05 -2.273289e-22
3.217639e-05 -1.031986e-05 7.791243e-07
1.412595e-05 2.952621e-05 7.438423e-07
-2.246881e-05 -2.523603e-05 -7.802238e-07
-6.448265e-06 -3.324901e-05 -7.229248e-07
-1.617967e-05 -2.975392e-05 -7.229149e-07
-8.078042e-06 -3.289070e-05 -7.232080e-07
-2.922859e-05 -1.440045e-05 6.060581e-07
3.253423e-05 -4.943931e-06 8.473653e-07
3.253423e-05 4.943931e-06 8.473653e-07
-2.770328e-05 -1.948605e-05 -7.217216e-07
-4.369322e-07 3.421178e-05 -2.273289e-22
-2.896123e-05 -1.740815e-05 7.793467e-07
1.041332e-05 3.215343e-05 7.746704e-07
-2.816811e-05 -1.662439e-05 7.258420e-07
7.142077e-06 3.296370e-05 -8.160756e-07
3.047027e-07 3.372722e-05 -8.160476e-07
-6.545306e-06 3.308742e-05 -8.160476e-07
-3.335232e-05 5.024057e-06 -8.160476e-07
-2.188616e-05 2.566348e-05 -8.160476e-07
-1.622343e-05 2.957057e-05 -8.160476e-07
-1.289042e-05 3.116818e-05 -8.160476e-07
-1.019385e-06 3.419938e-05 -2.273289e-22
4.636838e-06 -3.248752e-05 -8.005258e-07
3.984271e-06 3.349361e-05 -8.154202e-07
-2.894893e-06 3.360530e-05 -8.154173e-07
-9.653601e-06 3.231880e-05 -8.154173e-07
-3.367960e-05 1.838908e-06 -8.154173e-07
-1.902882e-05 2.784985e-05 -8.153109e-07
-2.422188e-05 2.347334e-05 -8.154173e-07
-3.154783e-05 1.192890e-05 -8.164790e-07
-2.847102e-05 1.808219e-05 -8.164790e-07
3.144766e-05 -1.238103e-05 -7.750124e-07
-1.601543e-06 3.417707e-05 -2.273289e-22
3.144766e-05 1.238103e-05 -7.750124e-07
-3.307075e-05 -7.144889e-06 -7.495804e-07
-3.041913e-05 -1.472813e-05 -7.750490e-07
5.405720e-06 3.334769e-05 7.841422e-07
-1.466001e-06 3.379619e-05 7.537769e-07
-8.293168e-06 3.279566e-05 7.537769e-07
-2.298219e-05 2.476104e-05 7.841413e-07
-3.366936e-05 3.303625e-06 7.515571e-07
-1.446790e-05 3.057796e-05 7.537769e-07
-2.064266e-05 2.679948e-05 7.537769e-07
-2.183236e-06 3.414485e-05 -2.273289e-22
-1.780180e-05 2.876504e-05 7.537769e-07
-1.127387e-05 3.189407e-05 7.537769e-07
-4.567642e-06 3.351818e-05 7.537769e-07
2.328626e-06 3.374773e-05 7.537751e-07
1.244382e-06 -3.381791e-05 7.443923e-07
1.585669e-05 -2.886371e-05 8.579999e-07
1.323748e-05 -2.955632e-05 -2.222328e-07
-1.836976e-05 -2.774272e-05 -9.280465e-07
2.204216e-06 -3.258490e-05 6.842795e-07
2.459870e-05 2.321372e-05 7.575565e-07
-2.764296e-06 3.410272e-05 -2.273289e-22
2.459870e-05 -2.321372e-05 7.575565e-07
1.839960e-05 2.845764e-05 -7.069699e-07
1.841588e-05 -2.844931e-05 -7.053937e-07
3.036070e-05 1.362760e-05 -9.281099e-07
3.036070e-05 -1.362760e-05 -9.281099e-07
2.053937e-05 -2.687582e-05 7.554326e-07
2.053937e-05 2.687582e-05 7.554326e-07
-2.745607e-05 -1.973286e-05 7.652992e-07
2.914636e-05 1.464854e-05 -6.464026e-07
2.914636e-05 -1.464854e-05 -6.464026e-07
-3.344555e-06 3.405071e-05 -2.273289e-22
-3.258889e-05 -8.805105e-06 7.997421e-07
-2.964189e-05 1.635821e-05 7.327839e-07
-2.756355e-05 1.965918e-05 7.327839e-07
-3.230850e-05 1.003286e-05 7.520081e-07
-2.846091e-05 1.545546e-05 2.276512e-07
-2.623902e-05 1.898443e-05 2.276512e-07
-3.100494e-05 9.358865e-06 2.276512e-07
9.159900e-06 -3.259902e-05 7.285326e-07
1.114294e-05 -3.201117e-05 7.006621e-07
-1.063435e-05 -3.209913e-05 -7.630424e-07
-3.923844e-06 3.398883e-05 -2.273289e-22
-1.145447e-05 -3.189267e-05 -7.074138e-07
-1.381255e-05 -3.086514e-05 -7.630424e-07
-1.300934e-05 -3.128797e-05 -7.095046e-07
-3.856783e-06 -3.359467e-05 -7.627012e-07
-2.978273e-06 -3.375700e-05 -7.066848e-07
3.381538e-05 7.592959e-07 7.566837e-07
3.381538e-05 -7.592959e-07 7.566837e-07
-2.607562e-05 -2.153133e-05 -7.620867e-07
-2.558395e-05 -2.222068e-05 -7.080433e-07
1.099265e-05 3.061769e-05 -5.395574e-07
-4.501996e-06 3.391709e-05 -2.273289e-22
[...]
POINT_DATA 4823
VECTORS 10.000GHz_fone_imag double
3.163123e+10 -7.788977e+09 -3.588492e+08
-3.667317e+10 -2.108202e+10 8.353687e+08
1.251901e+09 -3.439203e+10 -3.380791e+08
-1.094425e+09 -3.618082e+10 6.980527e+08
-3.943886e+10 -4.470296e+09 -1.959120e+08
-1.000098e+10 3.222071e+10 -2.885283e+08
2.537427e+10 2.618554e+10 6.163708e+08
6.083835e+09 3.549257e+10 -1.227745e+08
1.730255e+09 3.418480e+10 1.052186e+09
3.232273e+10 1.293875e+10 1.732362e+08
2.791380e+10 2.002874e+10 -1.760196e+08
3.206840e+10 -7.548510e+09 -3.402816e+08
1.926947e+10 -3.293577e+10 1.093676e+09
-1.926686e+10 -3.293030e+10 -1.094007e+09
-4.903462e+09 3.438057e+10 4.995436e+08
3.515876e+10 -1.200113e+10 5.733556e+07
-5.363511e+09 3.951640e+10 -3.195284e+08
3.146332e+10 -1.800103e+10 -2.145644e+08
-2.958647e+10 -1.684671e+10 -7.772402e+08
-2.715654e+10 2.505575e+10 -1.056763e+08
-2.354156e+10 2.839291e+10 1.668997e+09
2.451540e+10 -2.256612e+10 5.774933e+08
3.197475e+10 -6.539674e+09 -5.521150e+08
-2.419322e+10 -2.241521e+10 -6.153190e+08
2.553775e+10 -2.315946e+10 -7.233674e+08
-2.541498e+10 -2.307243e+10 7.287572e+08
-3.383338e+10 1.572194e+10 1.714136e+09
-3.559094e+10 1.112950e+10 1.583923e+07
-3.670828e+10 4.947635e+09 -8.969386e+07
-1.786353e+09 3.600307e+10 -4.579271e+08
-3.394406e+10 -6.974822e+09 7.266300e+08
7.230479e+09 -3.430739e+10 -1.340182e+08
-7.230247e+09 -3.430509e+10 1.341044e+08
3.313331e+10 -6.002361e+09 -9.977616e+07
-2.823275e+10 2.075956e+10 3.453368e+08
-8.241859e+09 3.331917e+10 5.247501e+08
-2.478659e+10 -2.727326e+10 5.915795e+07
2.410018e+10 -2.858092e+10 -3.654324e+07
3.364790e+10 -7.654947e+09 5.528284e+08
-3.341049e+10 8.400448e+09 5.513329e+08
-3.354756e+10 6.031794e+09 -7.665645e+08
-2.973315e+10 1.600680e+10 -9.701508e+08
-3.724943e+09 3.659135e+10 1.124728e+09
-3.768156e+10 -1.224966e+10 -1.927352e+09
3.204664e+10 -6.169965e+09 -2.637447e+07
-3.924715e+10 -2.086737e+09 2.489309e+08
-4.037238e+10 -5.465743e+09 -3.665393e+08
2.075495e+10 -2.660555e+10 9.996018e+08
-2.074909e+10 -2.895169e+10 -4.676344e+08
-1.171782e+10 3.790476e+10 1.220947e+08
-1.544748e+10 -3.027605e+10 -6.217359e+08
1.544782e+10 -3.027855e+10 6.223403e+08
1.073463e+10 -3.699626e+10 -1.059030e+08
-1.073617e+10 -3.699471e+10 1.091048e+08
-1.295065e+10 3.751972e+10 -8.334709e+08
3.356084e+10 -4.765693e+09 -9.792132e+08
8.590850e+09 3.695602e+10 1.149109e+08
2.391925e+10 2.914003e+10 -5.373048e+07
1.563644e+10 3.354109e+10 -5.277800e+08
-3.023721e+10 1.722302e+10 -1.470203e+09
-3.896942e+10 4.754211e+09 4.862174e+08
-4.747079e+09 3.410775e+10 -4.358243e+08
-3.445030e+10 -4.300728e+09 5.157148e+08
-7.193437e+09 -3.430997e+10 -7.120692e+08
7.193680e+09 -3.430911e+10 7.118492e+08
-4.924094e+09 -3.439815e+10 -5.182666e+08
3.284928e+10 -4.300774e+09 2.853754e+07
4.934118e+09 -3.438645e+10 5.126923e+08
-3.457535e+10 -1.921684e+09 -8.098188e+08
-3.570712e+10 -1.445046e+09 2.435309e+08
1.500730e+09 -3.872623e+10 2.686776e+08
-1.181138e+09 -3.916774e+10 -4.180538e+08
3.427244e+10 -1.850267e+10 3.794769e+08
-1.466623e+10 3.053837e+10 -1.154106e+09
2.804189e+10 -2.863990e+10 -9.056393e+08
-2.710270e+10 -2.859581e+10 1.153221e+09
-3.106501e+10 2.543391e+10 9.110667e+08
3.208840e+10 -4.738207e+09 -4.255954e+07
-2.293372e+10 -3.011057e+10 8.889933e+08
2.253069e+10 -3.079623e+10 9.413913e+07
3.719618e+09 -3.411350e+10 -1.304453e+08
-3.699708e+09 -3.407937e+10 1.302536e+08
-3.044069e+09 -3.981233e+10 1.114751e+08
3.397209e+09 -3.910356e+10 2.146912e+08
3.041156e+10 1.625540e+10 -2.423368e+08
3.391058e+10 6.271596e+09 -2.303595e+08
3.439790e+10 -7.113792e+08 -2.203698e+08
1.909451e+10 -2.948335e+10 4.249121e+08
3.361932e+10 -2.755285e+09 2.033940e+08
-1.918288e+10 -2.957811e+10 -4.502749e+08
-3.806262e+10 -7.815769e+09 -6.021461e+08
-3.760019e+10 1.023079e+10 -1.186235e+09
-3.568918e+10 1.826668e+10 6.566774e+08
-3.853088e+10 6.629757e+09 1.026154e+09
-2.457144e+10 3.120785e+10 1.374602e+09
-3.784854e+10 -1.196689e+10 1.755001e+08
-2.850489e+10 2.571368e+10 -2.935174e+08
-1.471458e+10 3.133569e+10 -1.572558e+08
3.176686e+10 -1.047021e+10 1.283977e+09
3.289490e+10 -3.529233e+09 -3.639652e+08
1.122906e+10 3.799514e+10 -9.471671e+08
2.309770e+10 3.176747e+10 9.180248e+08
1.868951e+10 3.465406e+10 -9.676190e+08
-1.600759e+10 3.020870e+10 1.456970e+09
-2.703261e+09 3.168559e+10 -1.689737e+09
2.068926e+08 3.891994e+10 -1.480917e+09
-3.300230e+10 -8.943833e+09 1.449151e+09
-2.320859e+09 3.785387e+10 -1.288376e+09
-3.467054e+10 -1.491260e+10 1.283151e+09
-3.828663e+10 -1.266330e+10 3.225841e+08
3.337008e+10 -3.088579e+09 -8.231295e+08
-1.825734e+10 -3.359844e+10 8.932309e+08
1.825701e+10 -3.359984e+10 -8.953589e+08
1.759585e+10 -2.925460e+10 -1.524112e+08
-1.759120e+10 -2.925377e+10 1.508745e+08
-2.658222e+10 -3.000047e+10 1.340334e+07
2.515657e+10 -2.813894e+10 8.904448e+07
-3.871706e+10 -1.045639e+10 -5.992543e+08
-3.895971e+10 -3.126500e+09 2.495267e+08
3.257292e+10 -1.386914e+10 -3.746707e+08
-6.439609e+09 -3.534964e+10 2.109247e+09
3.301918e+10 -5.710454e+08 3.093393e+08
6.439052e+09 -3.534821e+10 -2.109284e+09
-3.249939e+10 2.103103e+10 -9.306702e+08
3.467643e+10 -1.437017e+10 1.164555e+09
2.310380e+10 -3.211532e+10 -5.797945e+08
-2.435059e+10 -3.268533e+10 -8.469043e+08
-2.003478e+10 2.715953e+10 -6.473054e+08
1.577078e+10 -3.740486e+10 9.289274e+08
-1.469333e+10 -3.689433e+10 2.056904e+08
-2.147557e+10 3.174683e+10 -6.172272e+08
2.825717e+10 2.776491e+10 4.709604e+08
3.410940e+10 -2.079668e+09 -1.986388e+09
3.198120e+10 2.269517e+10 9.539059e+08
3.616890e+10 1.324008e+10 5.006726e+07
3.425763e+10 1.859928e+10 9.344081e+08
3.382271e+10 2.003403e+10 4.132276e+08
4.937728e+09 3.842450e+10 -6.572069e+08
3.817657e+10 7.255737e+09 1.110522e+09
3.860374e+10 8.916712e+09 2.924273e+08
3.891225e+10 -6.142429e+08 1.068757e+09
3.964746e+10 8.821171e+08 3.139406e+08
3.771134e+10 -7.293069e+09 -7.336891e+08
3.292828e+10 -1.965394e+06 -1.462060e+08
-3.180337e+10 8.764129e+09 4.539412e+07
-3.004749e+10 1.461569e+10 -3.597409e+08
-3.234987e+10 5.528436e+09 -1.418877e+08
2.893409e+10 -1.939301e+10 4.478107e+07
2.810440e+10 -2.003236e+10 8.486607e+08
-2.833366e+10 -1.922664e+10 -6.651206e+08
-2.856253e+10 -1.798689e+10 -3.180917e+08
-1.458285e+10 -3.184197e+10 -1.498850e+08
1.458914e+10 -3.193886e+10 1.763579e+08
9.941968e+09 -3.232021e+10 -3.377722e+08
3.309373e+10 1.019041e+08 9.106973e+06
-9.966510e+09 -3.233042e+10 3.534319e+08
3.585925e+10 -1.642297e+10 1.400514e+08
-2.630712e+10 2.242263e+10 9.018018e+08
-3.377066e+10 6.564143e+09 -4.520414e+08
-3.066885e+10 1.668412e+10 -4.896858e+07
-3.346228e+10 8.048713e+09 4.334141e+08
-1.766470e+10 3.487973e+10 -6.743395e+08
-4.951698e+09 -3.583757e+10 -1.960054e+08
4.959906e+09 -3.584805e+10 1.985108e+08
-2.020040e+10 2.771739e+10 -2.249622e+08
3.438876e+10 6.134985e+08 7.330846e+08
-1.734117e+10 3.021664e+10 8.131494e+08
3.249534e+10 -1.004635e+10 -3.803822e+08
-1.932269e+10 3.248856e+10 -1.363448e+08
3.333355e+10 -7.776315e+09 1.167416e+08
3.418768e+10 -8.300240e+08 6.007519e+08
3.360935e+10 6.116116e+09 6.046268e+08
4.833354e+09 3.445242e+10 6.193438e+08
2.493445e+10 2.306517e+10 4.740529e+08
3.013020e+10 1.598943e+10 6.361363e+08
3.185506e+10 1.333480e+10 -3.291740e+08
3.293498e+10 1.011894e+09 -3.251047e+08
-3.906552e+10 -4.663476e+09 2.504724e+08
3.377925e+10 -4.279826e+09 -6.556741e+07
3.399719e+10 2.648671e+09 -8.431143e+07
3.278364e+10 9.459094e+09 -1.745909e+08
1.685271e+09 3.472065e+10 2.029529e+09
2.921320e+10 2.097660e+10 1.135460e+09
2.438350e+10 2.421053e+10 4.916161e+07
1.228643e+10 3.236726e+10 3.118807e+08
1.900860e+10 2.967536e+10 2.192446e+08
-1.287593e+10 -3.224156e+10 4.388398e+08
3.362538e+10 2.279668e+09 -1.346685e+09
1.289795e+10 -3.238295e+10 -6.983356e+08
-7.628099e+09 3.172619e+10 -7.816615e+08
-1.523616e+10 3.162257e+10 -6.504539e+08
3.457372e+10 -6.810875e+09 1.319247e+09
3.455751e+10 -2.307897e+08 7.955799e+08
3.398635e+10 6.647398e+09 8.981770e+08
2.582586e+10 2.413503e+10 1.239722e+08
3.913264e+09 3.518588e+10 -7.257005e+08
3.136107e+10 1.296725e+10 -7.853010e+07
2.678394e+10 2.111803e+10 4.612980e+08
3.297851e+10 2.436443e+09 -2.641724e+07
2.953359e+10 1.686953e+10 -1.392624e+09
3.195044e+10 1.074483e+10 -6.624340e+08
3.400002e+10 4.118468e+09 1.956160e+07
3.417279e+10 -2.792715e+09 -2.665173e+07
-3.437341e+10 -1.609389e+09 3.101114e+08
-3.469434e+10 -1.914989e+10 -3.500471e+08
-3.574573e+10 -1.499396e+10 -1.080537e+08
-2.995095e+10 2.027494e+10 -8.073711e+08
-3.799911e+10 -1.990865e+09 -2.832054e+08
2.486446e+10 -2.891267e+10 4.192067e+08
3.237836e+10 1.874518e+09 -8.459198e+07
-2.400339e+10 -2.564378e+10 4.119934e+08
2.762857e+10 -1.848538e+10 5.485577e+08
-2.795624e+10 -1.715375e+10 -1.540398e+08
1.268552e+10 -3.375341e+10 2.338293e+09
-1.271267e+10 -3.378494e+10 -2.331002e+09
-2.667085e+10 -2.143578e+10 -9.002096e+08
2.657565e+10 -2.136660e+10 9.058908e+08
-2.002904e+10 2.739483e+10 -4.414297e+08
1.771676e+10 -3.553899e+10 2.970341e+08
-1.772098e+10 -3.554427e+10 -2.950142e+08
3.346840e+10 4.122051e+09 1.885828e+08
-9.387373e+09 3.372726e+10 -8.510753e+07
1.683157e+10 2.890341e+10 5.314790e+08
1.882084e+10 2.792445e+10 -6.443733e+08
1.121428e+10 3.193809e+10 6.805507e+08
1.887284e+10 3.533340e+10 -1.105885e+09
2.368472e+10 3.223808e+10 1.001990e+09
1.122228e+10 3.856308e+10 -1.038209e+09
-3.338687e+10 -8.865373e+09 3.536028e+08
-3.062079e+10 -1.156678e+10 -9.184549e+08
-3.386167e+10 1.059268e+10 8.539034e+08
3.289688e+10 3.222991e+09 -3.642923e+08
-3.314011e+10 1.201122e+10 5.278247e+08
-3.173474e+10 1.328069e+10 -9.831162e+08
-3.150375e+10 1.273456e+10 4.665626e+08
-3.365069e+10 3.648063e+09 -3.378963e+08
-3.603957e+10 3.404504e+09 6.439906e+08
1.511557e+09 -3.293955e+10 5.789273e+07
-1.036440e+09 -3.417226e+10 -8.999125e+08
-2.240724e+10 2.735620e+10 -1.470412e+09
-2.275205e+10 2.618825e+10 -1.885906e+08
3.775910e+10 -1.239090e+10 -3.067792e+08
3.329088e+10 3.740515e+09 -8.239774e+08
-2.489347e+10 2.420167e+10 7.512640e+08
-2.365230e+10 2.408558e+10 7.750517e+07
-1.848287e+10 -2.863792e+10 -1.972672e+08
1.847691e+10 -2.862900e+10 1.962347e+08
4.049827e+09 -3.827257e+10 -9.134021e+08
-4.046242e+09 -3.830274e+10 9.184980e+08
-1.143201e+10 3.252209e+10 -8.406694e+08
-1.390882e+10 3.635051e+10 7.414041e+08
-4.641325e+09 -4.123868e+10 -5.007105e+08
4.654560e+09 -4.125014e+10 5.117938e+08
3.248352e+10 6.142088e+09 3.156526e+08
-2.587743e+10 2.031791e+10 -5.868150e+08
-2.947067e+10 2.152575e+10 -3.222996e+08
-3.423247e+10 -1.234619e+07 2.722552e+08
-3.432285e+10 7.546236e+08 -8.462877e+07
2.760125e+10 -2.458489e+10 8.960562e+07
-2.738815e+10 -2.458350e+10 -1.846258e+08
-2.363044e+10 -2.351569e+10 2.764859e+08
2.282220e+10 -2.371844e+10 2.478006e+08
-8.528049e+09 3.706167e+10 9.909481e+08
-3.279269e+10 8.652559e+09 3.977424e+08
3.386667e+10 4.890551e+09 -1.970569e+09
-3.104920e+10 1.619280e+10 -1.338940e+09
-3.325875e+10 5.923250e+09 -4.013377e+08
-2.531602e+10 2.322792e+10 6.267098e+08
-1.246983e+10 3.808736e+10 -5.035572e+07
-3.823707e+10 -2.867467e+09 9.757835e+08
3.091180e+10 -2.491295e+10 4.474554e+08
-3.013964e+10 -2.377332e+10 8.279532e+08
-1.709493e+10 3.524755e+10 -1.307483e+09
3.846396e+09 3.457113e+10 -3.793323e+08
2.548445e+10 2.280643e+10 1.302943e+09
3.227515e+10 6.692834e+09 -1.327457e+08
-1.930014e+10 3.519461e+10 4.206564e+07
-1.611008e+10 2.866578e+10 -6.295207e+08
-1.787146e+10 2.855119e+10 1.066450e+08
1.648122e+10 2.909676e+10 2.637938e+08
1.915703e+10 2.747778e+10 -2.648342e+08
9.712966e+09 3.197933e+10 -2.353250e+08
-2.343597e+09 3.440649e+10 6.575981e+08
-1.661031e+10 2.910256e+10 3.984041e+08
-2.082597e+10 -3.169746e+10 2.939726e+08
2.084941e+10 -3.175538e+10 -3.273972e+08
3.246390e+10 6.811947e+09 2.056110e+07
-3.530874e+10 -1.836809e+10 2.677561e+08
3.621667e+10 -1.793829e+10 6.783271e+08
-2.659397e+10 -2.613383e+10 3.216563e+08
3.004548e+10 -2.645464e+10 1.857599e+09
-2.050920e+10 -2.680042e+10 1.118124e+08
2.381538e+10 -2.654495e+10 -7.631307e+08
1.992093e+10 -2.631783e+10 5.007454e+08
-2.439478e+10 -2.382201e+10 -3.978824e+08
3.224787e+10 -1.776300e+10 -2.065178e+08
-1.852000e+10 3.205770e+10 6.680435e+08
3.362563e+10 7.603925e+09 6.841518e+08
2.984135e+10 -1.424279e+10 8.942712e+08
3.232103e+10 -1.958562e+10 -4.953537e+08
3.268931e+09 -3.352265e+10 -3.454234e+08
3.466163e+09 -3.423695e+10 -7.838967e+08
-3.239129e+09 -3.352874e+10 3.680366e+08
-3.236389e+09 -3.413640e+10 9.747477e+08
1.233724e+10 3.181796e+10 -3.232756e+08
-7.067620e+09 -3.884119e+10 -3.107027e+08
7.068196e+09 -3.884374e+10 3.107124e+08
-3.218232e+10 -9.507819e+09 5.481629e+08
3.212613e+10 7.689340e+09 -3.867951e+08
-2.062747e+10 -2.612904e+10 8.747601e+08
2.176634e+10 -2.553590e+10 -1.361993e+09
2.104744e+10 -2.610313e+10 1.867092e+07
-2.166075e+10 -2.501441e+10 -9.901425e+07
-3.535046e+10 1.363004e+10 -9.777352e+08
-3.584816e+10 1.440099e+10 -7.287559e+08
1.606622e+10 -3.365426e+10 -2.307386e+08
-1.606391e+10 -3.365000e+10 2.308243e+08
-2.741919e+10 -2.207353e+10 -2.123504e+08
2.744305e+10 -2.206892e+10 2.264751e+08
3.267430e+10 9.099045e+09 -1.364396e+09
-5.976835e+09 -3.916765e+10 -4.684856e+08
5.976137e+09 -3.916875e+10 4.698339e+08
-1.271342e+10 -3.666354e+10 1.850094e+08
1.265521e+10 -3.687375e+10 6.191551e+07
-2.532293e+10 2.811862e+10 1.120041e+09
-2.712325e+10 2.888890e+10 4.848020e+08
-3.776958e+10 2.313724e+09 -2.478327e+08
-3.745568e+10 3.410063e+09 -6.544792e+08
9.279421e+09 -3.738672e+10 5.725490e+08
-9.280438e+09 -3.738456e+10 -5.715597e+08
3.209333e+10 9.156272e+09 9.808473e+06
2.128496e+10 -2.683900e+10 -2.448729e+08
-1.973874e+10 -2.673388e+10 1.908186e+08
-1.066489e+10 3.150203e+10 2.708106e+08
4.669273e+09 -3.342736e+10 -2.104235e+08
-4.666176e+09 -3.342783e+10 2.133494e+08
2.025622e+10 -2.730313e+10 2.171506e+08
-2.030314e+10 -2.836705e+10 2.937680e+08
-7.183183e+09 -3.212660e+10 8.914478e+08
7.181934e+09 -3.212496e+10 -8.907829e+08
-1.319844e+10 3.491879e+10 -1.158885e+08
3.184038e+10 8.451736e+09 -1.913649e+08
-3.265433e+10 -1.456465e+10 -1.163067e+08
-3.819803e+10 3.164606e+09 -6.143222e+08
-1.555518e+10 -3.000697e+10 -1.042043e+09
1.555481e+10 -3.000582e+10 1.041738e+09
-4.050121e+09 3.363185e+10 1.025443e+09
2.362223e+10 -2.269311e+10 3.339016e+08
-2.444509e+10 -2.335981e+10 -3.552865e+08
-2.055556e+10 3.122594e+10 -5.749359e+08
-1.113355e+10 -3.730008e+10 7.686376e+08
1.113343e+10 -3.731737e+10 -7.607372e+08
3.294300e+10 1.107767e+10 -1.020038e+09
2.580285e+10 2.260579e+10 -4.436178e+08
3.305582e+10 9.303143e+09 1.753705e+08
3.379984e+10 2.670852e+09 3.056802e+07
3.363882e+10 -4.267899e+09 5.108644e+07
-2.190754e+10 3.357858e+10 -1.045881e+08
-2.885872e+10 2.251207e+10 9.611889e+08
-3.620916e+10 2.228134e+10 1.674495e+09
-3.625664e+10 7.909267e+09 6.937064e+08
-3.741423e+10 8.604920e+09 -5.691342e+08
-3.337991e+10 1.984405e+10 -3.480779e+08
3.155067e+10 1.079095e+10 -3.707800e+08
-3.131057e+10 2.475737e+10 6.618910e+08
3.073514e+10 -9.030645e+09 -3.680242e+08
-1.349532e+10 -3.542614e+10 2.071210e+08
1.343865e+10 -3.524006e+10 -5.045171e+08
-5.383593e+09 -3.288393e+10 4.297826e+08
5.383224e+09 -3.288245e+10 -4.297709e+08
-2.720270e+10 2.086471e+10 1.086220e+09
-3.034280e+10 1.729087e+10 1.011304e+09
-2.852018e+10 1.725117e+10 -1.699116e+08
2.798472e+10 -2.739504e+10 1.072644e+09
3.102649e+10 9.356026e+09 -2.432826e+08
-2.789714e+10 -2.893080e+10 -5.503838e+07
-1.467018e+10 3.177105e+10 5.908706e+08
-1.309553e+10 2.997077e+10 8.845495e+08
3.164127e+10 -1.240284e+10 -5.452337e+08
2.549139e+10 2.804892e+10 -5.759640e+08
6.485102e+09 3.605428e+10 -2.116572e+08
1.634599e+10 3.554748e+10 -1.114969e+09
-3.062592e+10 -2.839303e+10 -1.453576e+08
2.841834e+10 -2.758012e+10 8.473201e+08
-2.266503e+10 2.923162e+10 -4.962987e+08
3.148196e+10 1.251832e+10 9.524116e+08
1.098615e+10 -3.252056e+10 1.361399e+09
-1.089157e+10 -3.219413e+10 -1.246106e+09
3.790830e+10 -1.030834e+10 -3.712407e+08
-3.694023e+10 -1.950294e+10 -5.874103e+07
-1.753122e+10 3.605546e+10 3.887837e+08
-3.230102e+10 2.356615e+10 1.850704e+08
-3.867313e+10 -2.493696e+08 6.586583e+08
3.873259e+08 3.383473e+10 5.643005e+08
3.695013e+10 1.557592e+10 7.679515e+08
3.128525e+10 2.415287e+10 5.196681e+08
3.095903e+10 1.208012e+10 1.117254e+08
3.813974e+10 -9.823757e+09 -2.733237e+08
2.993049e+10 -1.474982e+10 4.851351e+08
-1.661795e+10 -3.303332e+10 9.244104e+08
1.660875e+10 -3.304552e+10 -9.104545e+08
3.514614e+10 -1.445726e+10 8.195667e+08
3.352605e+10 -3.291636e+09 1.726632e+09
3.351533e+10 3.567924e+09 1.721271e+09
3.123788e+10 1.124837e+10 3.248465e+08
2.637449e+10 2.074167e+10 1.454231e+09
2.135382e+09 3.251930e+10 3.215725e+08
3.060684e+10 1.192880e+10 3.069498e+08
2.811821e+10 1.748796e+10 -7.278116e+08
3.055150e+10 1.379523e+10 1.369901e+09
2.450204e+10 2.169563e+10 -1.808555e+09
3.242719e+10 6.609030e+09 -2.271071e+09
3.303323e+10 -7.660060e+06 -2.173672e+09
3.207576e+10 -6.523830e+09 -2.017228e+09
5.283059e+09 -3.155262e+10 8.315793e+08
-5.285552e+09 -3.155582e+10 -8.303744e+08
-2.246602e+10 3.077337e+10 -3.582452e+07
2.678828e+10 -3.154296e+10 4.644989e+07
3.062628e+10 1.357796e+10 6.329348e+08
-2.595879e+10 -2.994140e+10 2.853758e+08
2.287804e+10 -3.145839e+10 -1.174503e+08
-2.364469e+10 -3.036526e+10 -6.191268e+08
-1.078664e+10 3.253363e+10 -1.312787e+09
-3.110257e+10 2.209709e+10 -7.084849e+08
3.009757e+10 -2.478693e+10 2.364086e+08
-3.009223e+10 -2.480125e+10 -1.984865e+08
-7.791671e+09 -3.766878e+10 4.709331e+07
7.791177e+09 -3.766710e+10 -4.693926e+07
-3.370242e+10 7.509298e+09 4.806223e+07
2.950138e+10 1.411418e+10 5.023880e+08
3.914932e+10 -8.839358e+09 1.060588e+09
-3.623319e+10 -2.651905e+08 5.006682e+08
-2.853292e+10 1.812351e+10 2.539382e+08
3.501459e+10 -1.664147e+10 1.113874e+09
-3.800976e+10 -6.422602e+09 1.336801e+08
1.787843e+10 -3.233344e+10 -1.706699e+09
-1.787450e+10 -3.234165e+10 1.708114e+09
-3.203508e+10 -1.138450e+10 1.626302e+09
3.891839e+10 -8.493876e+09 -2.834504e+08
2.752254e+10 2.880670e+10 7.336787e+08
3.039443e+10 1.314288e+10 1.252441e+09
6.004213e+09 3.851222e+10 3.739106e+08
1.625610e+10 3.269556e+10 -1.030261e+09
2.253738e+10 2.876341e+10 9.725295e+08
-2.224987e+09 3.525398e+10 7.543020e+08
7.833662e+09 3.458784e+10 6.457487e+07
-1.386694e+10 3.559464e+10 4.542599e+08
9.949859e+09 -3.816987e+10 -7.482581e+08
-9.950382e+09 -3.817582e+10 7.493674e+08
-2.064133e+10 3.528504e+10 4.833813e+08
1.374155e+10 -3.380462e+10 -1.295115e+09
2.904453e+10 1.588356e+10 1.040755e+09
-1.398957e+10 -3.600397e+10 5.390020e+08
-3.375689e+10 1.341035e+10 3.368327e+08
1.232743e+10 -3.260722e+10 2.488247e+08
-1.216151e+10 -3.170451e+10 -1.094830e+08
-3.002315e+10 2.361488e+10 1.123260e+08
-8.396532e+09 3.287607e+10 -6.761360e+08
-2.716321e+10 2.111608e+10 -3.147864e+08
1.564689e+10 3.564821e+10 9.268062e+08
2.546404e+10 2.955074e+10 -9.158743e+08
6.985357e+09 3.839015e+10 2.102066e+09
3.139317e+10 1.512784e+10 -4.561649e+08
-2.451347e+10 2.624224e+10 -3.014791e+08
1.983860e+08 3.240751e+10 6.605120e+08
7.713729e+09 3.289404e+10 1.524874e+09
1.847257e+10 2.805174e+10 1.708303e+09
1.384014e+10 2.953989e+10 -3.797252e+08
2.247123e+10 2.597382e+10 -7.013769e+08
1.111531e+10 3.187643e+10 -1.932299e+09
1.728998e+10 2.902839e+10 -1.853887e+09
-3.192028e+10 -2.123664e+10 -1.886416e+09
3.441704e+10 -2.018307e+10 1.599064e+09
2.885688e+10 1.623494e+10 1.709152e+08
-3.469390e+10 7.839691e+08 -6.007601e+08
2.226765e+10 -2.379128e+10 2.059583e+09
-2.291101e+10 -2.428267e+10 -2.967217e+08
1.697112e+09 3.911724e+10 1.158715e+09
3.004536e+10 -1.390541e+10 6.783183e+08
-7.079547e+09 3.550903e+10 2.749032e+08
2.651158e+10 -1.980301e+10 -1.992619e+08
-2.584590e+10 -1.944675e+10 3.176711e+08
-3.255651e+10 3.617940e+09 5.135111e+08
-2.932287e+10 1.736486e+10 1.561539e+09
2.886470e+10 1.628338e+10 5.189129e+07
-3.039089e+10 -1.574033e+10 -1.537840e+08
-1.649647e+10 -2.924143e+10 -5.662462e+08
1.649875e+10 -2.924387e+10 5.650708e+08
-3.280325e+10 1.111940e+10 -9.041723e+08
-3.071251e+10 1.252112e+10 3.435633e+08
2.010718e+10 -3.445527e+10 -3.496750e+08
-2.010415e+10 -3.446758e+10 3.352652e+08