# vtk DataFile Version 2.0
Electric current density generated by TTH
ASCII
DATASET UNSTRUCTURED_GRID
POINTS 4602 double
3.421457e-05 -8.380153e-21 -2.273289e-22
3.381359e-05 5.222830e-06 -2.273289e-22
-3.923844e-06 3.398883e-05 -2.273289e-22
2.273637e-05 2.492048e-05 -8.131804e-07
2.273637e-05 -2.492048e-05 -8.131804e-07
-1.465355e-05 -2.966006e-05 -9.054391e-07
-9.200503e-06 -3.177730e-05 -9.054392e-07
-5.021591e-06 -3.269906e-05 -9.054362e-07
-3.360893e-05 -7.778210e-07 8.669243e-07
6.187066e-06 -3.314544e-05 8.217292e-07
3.259466e-05 8.491079e-06 -8.393930e-07
3.259466e-05 -8.491079e-06 -8.393930e-07
-1.980494e-05 -2.740390e-05 7.654229e-07
-4.501996e-06 3.391709e-05 -2.273289e-22
-3.281735e-05 -7.974852e-06 -7.907300e-07
2.523832e-05 -2.157032e-05 9.241234e-07
2.526207e-05 2.154250e-05 9.241234e-07
6.999441e-06 3.302719e-05 7.977990e-07
-8.058234e-06 -3.274947e-05 8.172916e-07
-6.456493e-06 -3.310332e-05 8.168649e-07
-1.615033e-05 -2.960759e-05 8.174559e-07
-3.270491e-05 -2.570328e-06 7.939775e-07
1.168009e-05 -3.054687e-05 7.224487e-07
1.006995e-06 -3.238075e-05 2.632431e-07
-5.078842e-06 3.383552e-05 -2.273289e-22
4.565187e-06 -3.203924e-05 9.185906e-08
2.677738e-05 2.046641e-05 -8.293345e-07
2.677738e-05 -2.046641e-05 -8.293345e-07
-3.123798e-05 -9.142074e-06 5.626233e-07
2.996081e-05 -1.553289e-05 8.052906e-07
2.996081e-05 1.553289e-05 8.052906e-07
3.142136e-05 8.460892e-06 -5.523862e-07
3.142136e-05 -8.460892e-06 -5.523862e-07
-3.084516e-05 -1.032061e-05 -5.321110e-07
-3.178767e-05 6.706194e-06 4.721588e-07
-5.654216e-06 3.374414e-05 -2.273289e-22
-2.460388e-05 2.121504e-05 4.721588e-07
-2.976561e-05 1.301679e-05 4.721588e-07
-1.747699e-05 -2.882543e-05 8.259569e-07
-3.117307e-06 -3.223029e-05 -2.026877e-07
-3.348466e-05 -4.262191e-06 8.012780e-07
3.774244e-06 -3.348996e-05 8.299250e-07
3.302125e-05 -6.695371e-06 8.342643e-07
3.302125e-05 6.695371e-06 8.342643e-07
3.334850e-05 -5.153777e-06 8.072900e-07
3.334850e-05 5.153777e-06 8.072900e-07
-6.227950e-06 3.364297e-05 -2.273289e-22
2.090892e-06 -3.367974e-05 8.071837e-07
1.215109e-06 -3.346612e-05 -9.059502e-07
3.293041e-05 2.042379e-06 -8.807628e-07
3.293041e-05 -2.042379e-06 -8.807628e-07
1.580918e-05 2.846750e-05 -5.810728e-07
-3.029211e-05 -1.486573e-05 8.079801e-07
2.310086e-05 2.304928e-05 -6.592404e-07
2.310086e-05 -2.304928e-05 -6.592404e-07
-2.036922e-05 -2.555183e-05 7.002230e-07
2.672223e-05 -1.904342e-05 7.986442e-07
-6.799879e-06 3.353205e-05 -2.273289e-22
2.672223e-05 1.904342e-05 7.986442e-07
3.355656e-05 3.405605e-06 8.158671e-07
3.355656e-05 -3.405605e-06 8.158671e-07
3.256345e-05 -1.945888e-06 6.475856e-07
3.256345e-05 1.945888e-06 6.475856e-07
-1.618381e-05 2.952784e-05 8.442286e-07
-6.520429e-06 3.303472e-05 8.442286e-07
3.183691e-07 3.367057e-05 8.442286e-07
2.831349e-05 1.842844e-05 -7.844160e-07
2.831349e-05 -1.842844e-05 -7.844160e-07
-7.369836e-06 3.341141e-05 -2.273289e-22
6.118469e-06 -3.224492e-05 -8.025841e-07
-9.134994e-06 -3.128483e-05 6.149389e-07
-1.436958e-05 -2.925242e-05 6.149390e-07
-4.873847e-06 -3.222475e-05 6.149391e-07
-2.585844e-05 -1.983945e-05 6.162216e-07
9.489451e-06 -3.114008e-05 -5.699075e-07
-2.206790e-05 -2.398507e-05 6.164404e-07
-3.136502e-05 -1.259584e-05 7.733072e-07
8.770935e-06 3.264858e-05 7.689494e-07
-3.133196e-05 9.039123e-06 -6.352812e-07
-7.937656e-06 3.328108e-05 -2.273289e-22
-2.618298e-05 1.943834e-05 -6.352812e-07
-2.884601e-05 1.520872e-05 -6.352812e-07
-2.977865e-05 -1.602925e-05 7.603463e-07
-3.384156e-05 -1.680885e-06 7.107891e-07
-3.244552e-05 9.090247e-07 -4.190101e-07
7.547349e-06 -3.292539e-05 -7.864371e-07
-3.258256e-05 -2.497541e-06 -7.010203e-07
1.263212e-05 -3.004308e-05 -6.143872e-07
1.102506e-05 -3.081565e-05 -7.417457e-07
2.853340e-05 -1.554930e-05 4.851160e-07
-8.503175e-06 3.314111e-05 -2.273289e-22
2.853340e-05 1.554930e-05 4.851160e-07
2.916749e-05 1.696394e-05 8.086844e-07
2.916749e-05 -1.696394e-05 8.086844e-07
2.494371e-05 -2.108325e-05 -6.850928e-07
2.494371e-05 2.108325e-05 -6.850928e-07
8.984390e-06 -3.111911e-05 2.408871e-07
3.013927e-06 -3.256919e-05 -7.261239e-07
1.218862e-05 3.155472e-05 -7.545039e-07
3.297197e-05 -7.556383e-06 -7.546455e-07
3.297197e-05 7.556383e-06 -7.546455e-07
-9.066229e-06 3.299152e-05 -2.273289e-22
-1.810902e-05 -2.713453e-05 6.484413e-07
1.261350e-05 3.018530e-05 7.311567e-07
2.587481e-05 1.970364e-05 -5.276991e-07
2.587481e-05 -1.970364e-05 -5.276991e-07
-2.710408e-05 -2.011342e-05 -8.030737e-07
3.012836e-05 1.232049e-05 5.651003e-07
3.012836e-05 -1.232049e-05 5.651003e-07
-2.723105e-05 -1.797575e-05 6.552478e-07
-2.286044e-05 2.307259e-05 -4.592957e-07
-1.897749e-05 2.635903e-05 -4.592957e-07
3.371976e-05 5.797810e-06 -2.273289e-22
-9.626654e-06 3.283237e-05 -2.273289e-22
-1.180931e-05 3.025697e-05 -4.592957e-07
-1.619023e-05 2.815706e-05 -4.592957e-07
-1.483358e-05 2.889479e-05 -4.592957e-07
-3.220804e-05 4.193551e-06 -4.592957e-07
-6.940144e-06 3.172977e-05 -4.592957e-07
-5.424130e-06 3.202378e-05 -4.592957e-07
-3.574052e-07 3.247793e-05 -4.592956e-07
1.186731e-06 3.245821e-05 -4.592961e-07
6.240127e-06 3.187479e-05 -4.592234e-07
-8.940913e-06 -3.254874e-05 -8.015226e-07
-1.018429e-05 3.266370e-05 -2.273289e-22
-1.536570e-05 -3.005421e-05 -8.015230e-07
-5.581629e-06 -3.328971e-05 -8.015330e-07
1.921544e-05 2.778198e-05 7.861795e-07
1.849576e-05 2.831677e-05 7.579824e-07
1.921544e-05 -2.778198e-05 7.861795e-07
1.849576e-05 -2.831677e-05 7.579824e-07
3.089536e-05 -1.350014e-05 8.226842e-07
3.089536e-05 1.350014e-05 8.226842e-07
3.217639e-05 1.031986e-05 7.791243e-07
3.217639e-05 -1.031986e-05 7.791243e-07
-1.073897e-05 3.248556e-05 -2.273289e-22
1.412595e-05 2.952621e-05 7.438423e-07
-2.246881e-05 -2.523603e-05 -7.802238e-07
-6.448265e-06 -3.324901e-05 -7.229248e-07
-1.617967e-05 -2.975392e-05 -7.229149e-07
-8.078042e-06 -3.289070e-05 -7.232080e-07
-2.922859e-05 -1.440045e-05 6.060581e-07
3.253423e-05 -4.943931e-06 8.473653e-07
3.253423e-05 4.943931e-06 8.473653e-07
-2.770328e-05 -1.948605e-05 -7.217216e-07
-2.896123e-05 -1.740815e-05 7.793467e-07
-1.129054e-05 3.229800e-05 -2.273289e-22
1.041332e-05 3.215343e-05 7.746704e-07
-2.816811e-05 -1.662439e-05 7.258420e-07
7.142077e-06 3.296370e-05 -8.160756e-07
3.047027e-07 3.372722e-05 -8.160476e-07
-6.545306e-06 3.308742e-05 -8.160476e-07
-3.335232e-05 5.024057e-06 -8.160476e-07
-2.188616e-05 2.566348e-05 -8.160476e-07
-1.622343e-05 2.957057e-05 -8.160476e-07
-1.289042e-05 3.116818e-05 -8.160476e-07
4.636838e-06 -3.248752e-05 -8.005258e-07
-1.183883e-05 3.210108e-05 -2.273289e-22
3.984271e-06 3.349361e-05 -8.154202e-07
-2.894893e-06 3.360530e-05 -8.154173e-07
-9.653601e-06 3.231880e-05 -8.154173e-07
-3.367960e-05 1.838908e-06 -8.154173e-07
-1.902882e-05 2.784985e-05 -8.153109e-07
-2.422188e-05 2.347334e-05 -8.154173e-07
-3.154783e-05 1.192890e-05 -8.164790e-07
-2.847102e-05 1.808219e-05 -8.164790e-07
3.144766e-05 -1.238103e-05 -7.750124e-07
3.144766e-05 1.238103e-05 -7.750124e-07
-1.238369e-05 3.189485e-05 -2.273289e-22
-3.307075e-05 -7.144889e-06 -7.495804e-07
-3.041913e-05 -1.472813e-05 -7.750490e-07
5.405720e-06 3.334769e-05 7.841422e-07
-1.466001e-06 3.379619e-05 7.537769e-07
-8.293168e-06 3.279566e-05 7.537769e-07
-2.298219e-05 2.476104e-05 7.841413e-07
-3.366936e-05 3.303625e-06 7.515571e-07
-1.446790e-05 3.057796e-05 7.537769e-07
-2.064266e-05 2.679948e-05 7.537769e-07
-1.780180e-05 2.876504e-05 7.537769e-07
-1.292496e-05 3.167937e-05 -2.273289e-22
-1.127387e-05 3.189407e-05 7.537769e-07
-4.567642e-06 3.351818e-05 7.537769e-07
2.328626e-06 3.374773e-05 7.537751e-07
1.244382e-06 -3.381791e-05 7.443923e-07
1.585669e-05 -2.886371e-05 8.579999e-07
1.323748e-05 -2.955632e-05 -2.222328e-07
-1.836976e-05 -2.774272e-05 -9.280465e-07
2.204216e-06 -3.258490e-05 6.842795e-07
2.459870e-05 2.321372e-05 7.575565e-07
2.459870e-05 -2.321372e-05 7.575565e-07
-1.346249e-05 3.145470e-05 -2.273289e-22
1.839960e-05 2.845764e-05 -7.069699e-07
1.841588e-05 -2.844931e-05 -7.053937e-07
3.036070e-05 1.362760e-05 -9.281099e-07
3.036070e-05 -1.362760e-05 -9.281099e-07
2.053937e-05 -2.687582e-05 7.554326e-07
2.053937e-05 2.687582e-05 7.554326e-07
-2.745607e-05 -1.973286e-05 7.652992e-07
2.914636e-05 1.464854e-05 -6.464026e-07
2.914636e-05 -1.464854e-05 -6.464026e-07
-3.258889e-05 -8.805105e-06 7.997421e-07
-1.399611e-05 3.122092e-05 -2.273289e-22
-2.964189e-05 1.635821e-05 7.327839e-07
-2.756355e-05 1.965918e-05 7.327839e-07
-3.230850e-05 1.003286e-05 7.520081e-07
-2.846091e-05 1.545546e-05 2.276512e-07
-2.623902e-05 1.898443e-05 2.276512e-07
-3.100494e-05 9.358865e-06 2.276512e-07
9.159900e-06 -3.259902e-05 7.285326e-07
1.114294e-05 -3.201117e-05 7.006621e-07
-1.063435e-05 -3.209913e-05 -7.630424e-07
-1.145447e-05 -3.189267e-05 -7.074138e-07
-1.452567e-05 3.097809e-05 -2.273289e-22
-1.381255e-05 -3.086514e-05 -7.630424e-07
-1.300934e-05 -3.128797e-05 -7.095046e-07
-3.856783e-06 -3.359467e-05 -7.627012e-07
-2.978273e-06 -3.375700e-05 -7.066848e-07
3.381538e-05 7.592959e-07 7.566837e-07
3.381538e-05 -7.592959e-07 7.566837e-07
-2.607562e-05 -2.153133e-05 -7.620867e-07
-2.558395e-05 -2.222068e-05 -7.080433e-07
1.099265e-05 3.061769e-05 -5.395574e-07
-2.377300e-05 -2.405005e-05 -7.618395e-07
3.361616e-05 6.371108e-06 -2.273289e-22
-1.505102e-05 3.072627e-05 -2.273289e-22
-2.445675e-05 -2.345149e-05 -7.104375e-07
2.917372e-05 -1.712578e-05 -7.530720e-07
2.917372e-05 1.712578e-05 -7.530720e-07
3.244223e-05 3.510050e-06 -6.577164e-07
3.244223e-05 -3.510050e-06 -6.577164e-07
-3.194280e-05 -1.098660e-05 7.864054e-07
-3.049754e-05 -1.178398e-05 -7.152852e-07
3.247652e-05 -3.636016e-06 7.021328e-07
3.247652e-05 3.636016e-06 7.021328e-07
-1.982131e-05 -2.740595e-05 -7.575829e-07
-1.557201e-05 3.046555e-05 -2.273289e-22
-2.065046e-05 -2.686166e-05 -7.118532e-07
-4.135427e-07 -3.380968e-05 -7.648572e-07
-1.359817e-06 -3.385181e-05 -7.142668e-07
2.205250e-05 2.435171e-05 -8.207140e-07
2.205250e-05 -2.435171e-05 -8.207140e-07
2.354260e-05 -2.425249e-05 7.731335e-07
2.354260e-05 2.425249e-05 7.731335e-07
[...]
POINT_DATA 4602
VECTORS 10.000GHz_fone_imag double
2.524626e-05 -3.607396e-05 1.843588e-02
-1.303892e-04 -2.441547e-05 1.821586e-02
3.204632e-05 2.296499e-04 1.841285e-02
1.168848e-02 1.263093e-02 8.756663e-03
1.166565e-02 -1.261416e-02 8.789081e-03
-9.112923e-03 -1.819227e-02 -5.425198e-03
-5.615835e-03 -1.963576e-02 -5.316884e-03
-3.265542e-03 -2.010523e-02 -5.277082e-03
1.869246e-02 5.230882e-04 6.505787e-03
-3.309051e-03 1.704436e-02 8.741313e-03
1.750318e-02 4.504040e-03 7.596948e-03
1.750235e-02 -4.503971e-03 7.596528e-03
9.624153e-03 1.332967e-02 1.026373e-02
-2.107314e-04 1.988469e-04 1.840288e-02
-1.629585e-02 -3.899819e-03 9.479397e-03
-1.564212e-02 1.339307e-02 -2.389885e-03
-1.569985e-02 -1.339394e-02 -2.602342e-03
-3.359148e-03 -1.663410e-02 9.517073e-03
4.074038e-03 1.656830e-02 8.947021e-03
3.225290e-03 1.676234e-02 8.885765e-03
8.163974e-03 1.517762e-02 8.754593e-03
1.802403e-02 1.478356e-03 -1.158865e-02
-5.930481e-03 1.579139e-02 -1.389888e-02
-3.445337e-04 6.297137e-03 -2.171958e-02
-5.201428e-04 -6.323575e-04 1.823364e-02
-2.850320e-04 2.179087e-03 -2.294155e-02
1.404396e-02 1.082731e-02 7.743656e-03
1.406831e-02 -1.069167e-02 8.299910e-03
1.266111e-02 3.708353e-03 -1.825542e-02
-1.518703e-02 7.798102e-03 8.994657e-03
-1.518850e-02 -7.799115e-03 8.995616e-03
1.281888e-02 3.222519e-03 -1.808445e-02
1.281869e-02 -3.224597e-03 -1.808400e-02
-1.198104e-02 -4.014118e-03 -1.828521e-02
1.107704e-02 -2.510421e-03 -1.888283e-02
3.745287e-04 -3.260916e-04 1.847041e-02
8.549623e-03 -7.174390e-03 -1.905443e-02
1.001423e-02 -4.547967e-03 -1.916600e-02
8.946788e-03 1.519095e-02 8.304814e-03
-1.840197e-04 -4.336592e-03 -2.230329e-02
1.721430e-02 2.390001e-03 8.892835e-03
-1.990750e-03 1.755064e-02 8.354369e-03
-1.714604e-02 3.416931e-03 8.116254e-03
-1.714587e-02 -3.416530e-03 8.117072e-03
-1.684579e-02 2.645258e-03 9.136856e-03
-1.684183e-02 -2.644320e-03 9.143693e-03
-5.410724e-05 1.771328e-04 1.838963e-02
-1.203763e-03 1.715708e-02 8.896910e-03
7.762980e-04 -1.967787e-02 3.990015e-03
1.994742e-02 1.167660e-03 -7.643877e-03
1.999562e-02 -1.231944e-03 -7.554608e-03
6.911432e-03 1.216530e-02 -1.747185e-02
1.541287e-02 8.008195e-03 8.524945e-03
1.090173e-02 1.103274e-02 -1.601563e-02
1.083426e-02 -1.094608e-02 -1.598182e-02
1.013015e-02 1.252861e-02 -1.484694e-02
-1.482585e-02 1.084717e-02 -1.149833e-02
6.518179e-05 -5.060616e-05 1.838501e-02
-1.485710e-02 -1.088894e-02 -1.136524e-02
-1.706818e-02 -1.987745e-03 8.841373e-03
-1.705691e-02 1.983633e-03 8.835889e-03
-1.538113e-02 9.053203e-04 -1.592442e-02
-1.533038e-02 -8.938515e-04 -1.602611e-02
8.936720e-03 -1.568043e-02 7.578479e-03
3.759903e-03 -1.765204e-02 7.575234e-03
1.139805e-04 -1.801724e-02 7.589261e-03
1.416701e-02 9.246340e-03 9.742636e-03
1.419026e-02 -9.262059e-03 9.763451e-03
-7.442395e-05 -6.425686e-05 1.870578e-02
3.657041e-03 -1.809366e-02 -1.114214e-02
4.106901e-03 1.396119e-02 -1.672544e-02
6.147103e-03 1.305412e-02 -1.679134e-02
2.176424e-03 1.438755e-02 -1.674909e-02
1.100246e-02 8.729025e-03 -1.684819e-02
3.939196e-03 -1.297605e-02 -1.758877e-02
9.826861e-03 1.062476e-02 -1.669996e-02
1.533842e-02 6.155321e-03 9.884546e-03
-4.332359e-03 -1.539751e-02 1.001927e-02
-1.461882e-02 4.058531e-03 -1.623300e-02
1.553616e-04 -2.792921e-04 1.848965e-02
-1.205501e-02 9.101610e-03 -1.626518e-02
-1.344691e-02 6.927414e-03 -1.625585e-02
1.421450e-02 7.544490e-03 1.056485e-02
1.471447e-02 8.663723e-04 1.158412e-02
-9.440532e-03 -3.619904e-04 -2.023936e-02
3.825303e-03 -1.600664e-02 9.506976e-03
-1.614514e-02 -1.019093e-03 -1.445233e-02
5.335802e-03 -1.327320e-02 -1.666661e-02
5.570376e-03 -1.607297e-02 -1.373627e-02
-9.752565e-03 5.252109e-03 -1.938582e-02
1.835019e-04 2.913592e-04 1.855187e-02
-9.754061e-03 -5.252019e-03 -1.938800e-02
-1.470341e-02 -8.968691e-03 8.766124e-03
-1.470175e-02 8.963933e-03 8.764177e-03
1.210131e-02 -1.032680e-02 -1.534974e-02
1.202741e-02 1.009647e-02 -1.536515e-02
-1.671537e-03 5.042365e-03 -2.211903e-02
1.441373e-03 -1.679751e-02 -1.423637e-02
5.880276e-03 1.484484e-02 1.074242e-02
1.559350e-02 -3.363644e-03 1.073050e-02
1.559310e-02 3.363664e-03 1.073078e-02
-2.069449e-04 3.123501e-04 1.859410e-02
8.280515e-03 1.266760e-02 -1.603548e-02
-6.365528e-03 -1.559570e-02 -1.370949e-02
1.022213e-02 7.801828e-03 -1.872289e-02
1.025121e-02 -7.697348e-03 -1.869656e-02
-1.389188e-02 -1.001366e-02 9.035435e-03
-1.225494e-02 -5.358953e-03 -1.778922e-02
-1.235316e-02 5.320033e-03 -1.766754e-02
1.294524e-02 8.023019e-03 -1.577625e-02
-7.649092e-03 7.905993e-03 -1.940424e-02
-6.656348e-03 8.936480e-03 -1.956005e-02
1.546942e-04 -7.468720e-05 1.826906e-02
4.727883e-05 1.563245e-04 1.841808e-02
-3.940855e-03 1.013619e-02 -1.944439e-02
-5.550761e-03 9.543561e-03 -1.936621e-02
-4.673807e-03 9.433640e-03 -1.973272e-02
-1.077258e-02 1.210755e-03 -1.939021e-02
-2.366817e-03 1.075159e-02 -1.935804e-02
-1.611616e-03 1.038292e-02 -1.977902e-02
-1.388591e-04 1.101781e-02 -1.937345e-02
5.273884e-04 1.050171e-02 -1.978574e-02
2.011793e-03 1.069025e-02 -1.935242e-02
-4.526528e-03 -1.620088e-02 9.300872e-03
-7.761221e-05 1.858257e-04 1.852639e-02
-7.562248e-03 -1.531727e-02 9.024448e-03
-2.738559e-03 -1.656298e-02 9.322352e-03
-9.237426e-03 -1.354059e-02 9.867158e-03
-8.756274e-03 -1.319100e-02 1.051474e-02
-9.178538e-03 1.355787e-02 9.892660e-03
-8.494583e-03 1.331917e-02 1.054956e-02
-1.585164e-02 6.744381e-03 8.771832e-03
-1.586422e-02 -6.740395e-03 8.787257e-03
-1.571813e-02 -4.777695e-03 9.912925e-03
-1.571727e-02 4.788432e-03 9.916912e-03
-3.284355e-04 1.320955e-04 1.837077e-02
-7.685186e-03 -1.557927e-02 -1.329734e-02
-1.101869e-02 -1.242336e-02 9.918001e-03
-2.837712e-03 -1.500730e-02 1.150605e-02
-7.432413e-03 -1.323618e-02 1.172145e-02
-3.695449e-03 -1.487071e-02 1.143541e-02
1.286911e-02 5.907845e-03 -1.722653e-02
-1.899877e-02 2.719331e-03 -9.478331e-03
-1.900200e-02 -2.721347e-03 -9.478577e-03
-1.244272e-02 -9.013143e-03 1.152748e-02
1.411491e-02 8.388068e-03 9.961839e-03
-3.838667e-06 -1.689693e-05 1.835883e-02
-5.168729e-03 -1.569015e-02 9.984331e-03
1.472035e-02 8.680729e-03 -1.373518e-02
3.723855e-03 1.690765e-02 8.789405e-03
2.208866e-04 1.723193e-02 9.123203e-03
-3.267873e-03 1.691011e-02 9.120683e-03
-1.732083e-02 2.528789e-03 8.784162e-03
-1.119052e-02 1.319056e-02 8.820037e-03
-8.235294e-03 1.510156e-02 9.101329e-03
-6.608351e-03 1.602827e-02 8.843254e-03
3.104243e-03 -1.830866e-02 -1.135773e-02
4.826153e-06 -1.471583e-04 1.841585e-02
2.040593e-03 1.710758e-02 8.704067e-03
-1.462084e-03 1.718090e-02 8.708025e-03
-4.924501e-03 1.657990e-02 8.666260e-03
-1.739502e-02 6.344356e-04 8.686639e-03
-9.973508e-03 1.425631e-02 8.716349e-03
-1.253652e-02 1.205004e-02 8.805103e-03
-1.614305e-02 6.054302e-03 9.004316e-03
-1.453303e-02 9.276336e-03 9.166482e-03
1.525553e-02 -6.186425e-03 1.018990e-02
1.529894e-02 6.179403e-03 1.017777e-02
1.030080e-04 1.016360e-05 1.865911e-02
-1.525615e-02 -3.286875e-03 1.064921e-02
-1.474034e-02 -7.089692e-03 1.023291e-02
-2.799486e-03 -1.664173e-02 9.818763e-03
7.052925e-04 -1.606126e-02 1.047380e-02
3.922845e-03 -1.562176e-02 1.047463e-02
1.151992e-02 -1.238817e-02 9.799181e-03
1.585826e-02 -1.212149e-03 1.101496e-02
6.431482e-03 -1.434297e-02 1.083312e-02
9.588340e-03 -1.277024e-02 1.067054e-02
8.171792e-03 -1.334112e-02 1.088116e-02
3.747255e-05 2.431307e-05 1.837889e-02
5.232020e-03 -1.510607e-02 1.070972e-02
2.076300e-03 -1.581484e-02 1.065376e-02
-1.171175e-03 -1.590955e-02 1.066220e-02
-6.375437e-04 1.582866e-02 1.083430e-02
-9.425065e-03 1.732429e-02 -8.138982e-03
2.128018e-03 -4.670809e-03 -2.185162e-02
-1.141278e-02 -1.715926e-02 -1.360713e-03
-1.089586e-03 1.603421e-02 -1.516989e-02
-1.184645e-02 -1.118209e-02 1.072107e-02
-1.161742e-02 1.101197e-02 1.065925e-02
-4.998833e-05 2.472481e-04 1.837916e-02
7.788839e-03 1.244629e-02 1.174306e-02
7.624767e-03 -1.245432e-02 1.177198e-02
1.848840e-02 7.809019e-03 -5.072821e-04
1.849797e-02 -7.814207e-03 -5.052967e-04
-9.842639e-03 1.294623e-02 1.038589e-02
-9.827779e-03 -1.293169e-02 1.037107e-02
1.316631e-02 9.700392e-03 1.020063e-02
1.385703e-02 6.744686e-03 -1.610618e-02
1.385836e-02 -6.746089e-03 -1.610780e-02
1.642799e-02 4.531392e-03 9.474760e-03
5.083966e-05 2.749245e-05 1.839051e-02
1.335459e-02 -7.378982e-03 1.122838e-02
1.247118e-02 -8.844624e-03 1.123445e-02
1.495821e-02 -4.629147e-03 1.078247e-02
4.720539e-03 -2.602375e-03 -2.214968e-02
4.361712e-03 -3.150728e-03 -2.214869e-02
5.168734e-03 -1.559745e-03 -2.216522e-02
-4.133946e-03 1.471910e-02 1.135553e-02
-4.837146e-03 1.380205e-02 1.165736e-02
-4.933072e-03 -1.539060e-02 1.062456e-02
-5.198835e-03 -1.404657e-02 1.209696e-02
-1.465567e-04 1.863069e-05 1.838583e-02
-6.726305e-03 -1.455452e-02 1.062504e-02
-5.773559e-03 -1.378039e-02 1.192986e-02
-1.844524e-03 -1.583295e-02 1.069067e-02
-1.387014e-03 -1.499454e-02 1.196548e-02
-1.576788e-02 -4.467818e-04 1.064678e-02
-1.619346e-02 3.004288e-04 1.030828e-02
-1.270373e-02 -1.008232e-02 1.056470e-02
-1.114534e-02 -9.947209e-03 1.204632e-02
4.494126e-03 1.207289e-02 -1.812984e-02
-1.152137e-02 -1.122909e-02 1.055834e-02
1.029678e-05 4.556130e-05 1.827645e-02
-8.233215e-05 -3.382421e-04 1.834544e-02
-1.066420e-02 -1.035406e-02 1.200814e-02
1.345103e-02 -8.134355e-03 1.101420e-02
1.344751e-02 8.131734e-03 1.101311e-02
1.520658e-02 1.854939e-03 -1.585331e-02
1.521365e-02 -1.856405e-03 -1.586029e-02
1.565291e-02 5.217360e-03 1.007420e-02
-1.538397e-02 -6.339279e-03 -1.433478e-02
-1.636780e-02 1.867985e-03 -1.485440e-02
-1.636997e-02 -1.877209e-03 -1.485922e-02
-9.532744e-03 -1.302019e-02 1.037244e-02
3.152111e-04 -1.166444e-04 1.851941e-02
-9.252785e-03 -1.206834e-02 1.181185e-02
-1.621235e-04 -1.631911e-02 1.018692e-02
-6.402664e-04 -1.525394e-02 1.152531e-02
1.261440e-02 1.393401e-02 -1.042258e-02
1.261331e-02 -1.395445e-02 -1.036950e-02
-1.126374e-02 1.156677e-02 1.025956e-02
-1.120406e-02 -1.143048e-02 1.031947e-02
1.896508e-02 3.444459e-03 -9.299211e-03
4.344894e-03 1.576603e-02 9.888780e-03
7.430830e-03 1.464818e-02 9.980704e-03
-1.544215e-04 1.461905e-04 1.840107e-02
2.673111e-03 1.612437e-02 9.882269e-03
1.057156e-02 1.172101e-02 1.085002e-02
5.160950e-03 1.968185e-03 -2.209845e-02
1.011997e-03 -1.511745e-02 -1.588290e-02
4.762539e-03 6.794267e-03 -2.071734e-02
4.832006e-03 -6.841671e-03 -2.062577e-02
-1.180499e-02 -5.346674e-03 -1.827808e-02
1.546856e-02 -2.021984e-03 1.128696e-02
1.091267e-02 -1.106927e-02 1.126456e-02
1.575512e-02 8.573972e-03 -1.261750e-02
6.580476e-05 -2.990319e-05 1.836454e-02
-1.369668e-02 -8.203786e-03 1.052021e-02
-1.271378e-02 -7.989476e-03 1.168676e-02
-1.412418e-02 7.273523e-03 1.057912e-02
-1.266439e-02 9.610165e-03 1.059545e-02
-1.525378e-02 4.335328e-03 1.068770e-02
-1.633626e-02 -8.558785e-04 1.043438e-02
1.391818e-02 8.749247e-03 9.918256e-03
-1.414496e-02 9.174210e-03 -1.363971e-02
-1.416365e-02 -9.174197e-03 -1.365499e-02
-4.904537e-03 9.896980e-03 -1.950639e-02
-4.764447e-05 -7.769214e-05 1.866553e-02
-3.874383e-03 -8.235970e-03 -2.049727e-02
-9.830241e-03 1.015818e-02 -1.694400e-02
-9.814320e-03 -1.027903e-02 -1.711988e-02
1.197215e-02 -9.704224e-03 1.112466e-02
1.192825e-02 1.057779e-02 1.038791e-02
1.192217e-02 9.717531e-03 1.112644e-02
1.180509e-02 -1.074446e-02 1.025791e-02
-9.471399e-03 -1.714268e-02 -7.818755e-03
-1.776074e-02 -9.850402e-03 5.378952e-04
6.636558e-03 1.450262e-02 1.035539e-02
1.966235e-04 -2.037842e-04 1.837201e-02
9.515614e-03 1.536968e-02 -1.170240e-02
1.545140e-02 1.720159e-03 1.093719e-02
1.547418e-02 1.368233e-03 1.131101e-02
1.545456e-02 -1.704302e-03 1.094226e-02
1.544441e-02 -1.310616e-03 1.136377e-02
1.426004e-02 -5.719261e-03 1.139345e-02
-1.488478e-02 2.727561e-03 -1.627133e-02
-1.488567e-02 -2.728036e-03 -1.627159e-02
4.812162e-03 -1.457760e-02 1.123567e-02
-1.229830e-02 1.020136e-02 1.028601e-02
1.996536e-04 3.726148e-04 1.830449e-02
-1.199154e-02 -1.095039e-02 1.005834e-02
-1.206978e-02 -9.692020e-03 1.091081e-02
-1.172726e-02 1.024919e-02 1.075934e-02
-6.157628e-03 -1.666310e-02 -1.245031e-02
-6.553264e-03 -1.606746e-02 -1.336641e-02
-1.698223e-02 -8.471665e-03 -9.697314e-03
-1.698060e-02 8.470100e-03 -9.695821e-03
9.925635e-03 -1.216106e-02 1.104956e-02
9.920159e-03 1.217001e-02 1.105329e-02
1.262380e-02 -1.999132e-03 -1.822172e-02
-3.725057e-04 4.753216e-04 1.859093e-02
1.262334e-02 1.998124e-03 -1.822103e-02
1.293242e-02 -4.651820e-03 -1.770534e-02
1.289129e-02 4.600076e-03 -1.777382e-02
-1.338217e-02 -1.178784e-02 -1.233060e-02
-1.278382e-02 -1.207319e-02 -1.314133e-02
-8.306795e-04 -1.757187e-02 -1.262916e-02
-8.609879e-04 -1.817097e-02 -1.150626e-02
1.637685e-02 3.301990e-03 -1.415730e-02
1.637674e-02 -3.302630e-03 -1.415745e-02
-1.176278e-02 -9.226949e-03 1.170052e-02
-2.005029e-04 -2.521012e-05 1.847396e-02
-1.178390e-02 9.109591e-03 1.155616e-02
-1.436653e-02 -5.245537e-03 1.126778e-02
1.542732e-02 2.359012e-03 1.100852e-02
1.542920e-02 -2.357447e-03 1.100929e-02
1.204259e-02 8.612369e-03 1.155036e-02
1.205643e-02 -8.948031e-03 1.159212e-02
-1.475466e-02 3.417324e-03 1.131407e-02
-1.475445e-02 -3.416544e-03 1.131435e-02
-1.804588e-02 -6.320322e-03 -9.626352e-03
6.670677e-03 -1.470588e-02 1.076173e-02
1.085798e-04 -9.338563e-07 1.836061e-02
1.311721e-03 1.879355e-02 -9.384539e-03
1.307255e-02 -6.974171e-03 1.190670e-02
1.307135e-02 6.973832e-03 1.190620e-02
-1.509317e-02 -1.825368e-03 1.149812e-02
1.080482e-02 1.109087e-02 1.113181e-02
1.081233e-02 -1.116706e-02 1.114875e-02
-1.490085e-02 -1.018829e-02 -1.212840e-02
1.567253e-02 -4.951284e-03 -1.468950e-02
1.567548e-02 4.946127e-03 -1.469354e-02
9.338149e-03 -1.090570e-02 1.237171e-02
8.231084e-05 7.290637e-05 1.847323e-02
9.484500e-05 -1.242483e-04 1.839468e-02
4.162843e-03 -1.384142e-02 1.236785e-02
1.331900e-03 -1.427416e-02 1.240189e-02
-1.607686e-03 -1.425347e-02 1.241181e-02
-1.540217e-02 -9.864196e-03 -1.208686e-02
-1.111191e-02 -1.417730e-02 -1.204241e-02
-9.276747e-03 -1.566976e-02 -1.209912e-02
-4.148520e-03 -1.757184e-02 -1.193888e-02
-3.658418e-03 -1.772346e-02 -1.200957e-02
-8.920905e-03 -1.566743e-02 -1.210602e-02
-1.148717e-02 -1.396645e-02 -1.206119e-02
-1.180487e-04 -1.274436e-04 1.822974e-02
3.772085e-03 1.351186e-02 1.229712e-02
1.678604e-02 -6.570844e-03 -1.208401e-02
1.675567e-02 6.627212e-03 -1.209599e-02
1.510914e-02 -2.688742e-03 1.133663e-02
1.510835e-02 2.688976e-03 1.133619e-02
-9.961530e-03 -1.189006e-02 1.129710e-02
-7.950879e-03 -1.319498e-02 1.139454e-02
8.642614e-03 1.337631e-02 1.037902e-02
8.904449e-03 8.493100e-03 -1.862849e-02
8.946898e-03 -8.697176e-03 -1.862479e-02
-1.867271e-05 1.915932e-05 1.819584e-02
1.322438e-02 5.976935e-03 1.211286e-02
-1.392370e-02 -6.229927e-03 1.113841e-02
-5.175324e-03 -1.438367e-02 1.137063e-02
1.129219e-02 -1.059382e-02 -1.519502e-02
1.525752e-02 -2.870227e-03 -1.496967e-02
1.430653e-02 -5.645459e-03 -1.552213e-02
-7.465852e-03 7.957621e-03 -1.987075e-02
-7.334725e-03 -7.557200e-03 -1.986707e-02
1.194729e-02 9.022316e-03 1.218331e-02
1.384752e-02 4.923048e-03 1.199056e-02
3.570829e-05 -1.152645e-04 1.836980e-02
1.383131e-02 -4.908797e-03 1.194924e-02
-4.470145e-03 -1.502154e-02 -1.574814e-02
4.179862e-04 -9.065673e-04 -2.291380e-02
-1.598080e-02 -7.673506e-03 -1.272307e-02
-1.817606e-03 -2.157785e-03 -2.255191e-02
1.907051e-05 2.007028e-02 -7.065941e-03
1.427330e-02 -2.902665e-04 1.236735e-02
5.485174e-04 -2.175244e-04 -2.289364e-02
-7.949892e-05 -6.515948e-04 -2.287138e-02
-1.616002e-03 -4.695045e-03 -2.221248e-02
3.260544e-04 3.445984e-04 1.825508e-02
-6.387030e-03 -1.298386e-02 1.207442e-02
-1.258965e-02 5.822153e-03 1.252081e-02
-1.259357e-02 -5.817833e-03 1.252586e-02
6.295362e-03 1.542601e-02 -1.418074e-02
5.195211e-04 1.422382e-02 1.244632e-02
-2.367420e-03 1.404130e-02 1.244298e-02
-4.966198e-03 1.345326e-02 1.229283e-02
-8.716229e-03 1.118662e-02 1.241679e-02
-1.418476e-02 1.619264e-03 1.227061e-02
-7.264423e-03 1.218185e-02 1.242720e-02
-1.429625e-04 -1.195490e-05 1.838282e-02
-6.425315e-03 1.274525e-02 1.241622e-02
-9.629258e-03 1.057271e-02 1.223913e-02
-3.150027e-03 1.394965e-02 1.235994e-02
-2.751806e-04 1.428206e-02 1.235566e-02
2.603534e-03 1.405095e-02 1.225730e-02
-1.352900e-02 -2.343499e-03 1.257227e-02
-1.352932e-02 2.344410e-03 1.257270e-02
1.460927e-02 1.017654e-02 -1.272746e-02
9.555871e-03 8.357538e-03 -1.859549e-02
9.727197e-03 -8.312679e-03 -1.852891e-02
-1.868021e-04 2.636879e-04 1.854909e-02
-1.475576e-02 -1.107904e-02 -1.134417e-02
-1.487058e-02 1.121850e-02 -1.096284e-02
1.390963e-02 4.303485e-03 1.238244e-02
8.655303e-03 1.193769e-02 -1.613889e-02
1.022083e-03 1.545986e-03 -2.268728e-02
1.029784e-03 -1.566163e-03 -2.268445e-02
1.715522e-02 -3.188573e-03 -1.306413e-02
1.715471e-02 3.188187e-03 -1.306367e-02
3.302832e-03 1.400984e-02 1.244690e-02
-3.537816e-03 -1.499106e-02 -1.616073e-02
-2.388736e-05 3.430430e-05 1.835836e-02
-5.156114e-04 1.822946e-02 -1.127744e-02
-8.098386e-03 -1.273473e-02 1.167790e-02
7.478265e-03 1.561132e-02 -1.312209e-02
-3.938560e-03 1.990253e-02 -6.291540e-03
1.819794e-02 9.148192e-03 -1.678985e-04
1.820196e-02 -9.148139e-03 -1.686517e-04
4.920441e-03 -1.327501e-02 1.264464e-02
1.663541e-04 2.095485e-04 -2.258946e-02
5.670505e-04 -5.454306e-04 -2.292969e-02
5.303163e-04 -3.396383e-04 -2.281817e-02
-3.873994e-05 8.565709e-05 1.850100e-02
-1.371610e-02 6.748795e-03 1.171434e-02
-1.200877e-02 9.495725e-03 1.173046e-02
-1.552464e-02 -5.938006e-04 1.146450e-02
-1.486170e-02 3.714095e-03 1.160943e-02
1.439580e-02 5.627621e-03 -1.556528e-02
-1.538535e-02 -4.566421e-03 -1.488624e-02
-1.538670e-02 4.566162e-03 -1.488796e-02
-1.162780e-02 -6.654183e-03 -1.799426e-02
-1.769857e-02 -7.065928e-03 -9.555875e-03
-1.783029e-02 7.074492e-03 -9.570387e-03
-1.435184e-04 -8.888447e-06 1.854358e-02
7.319571e-03 1.860333e-02 -6.858824e-03
-1.354282e-02 -5.268689e-03 1.227926e-02
-1.345008e-02 5.161441e-03 1.232628e-02
1.195269e-02 1.401250e-02 -1.144606e-02
1.334930e-02 3.308812e-03 1.295805e-02
8.522828e-03 1.076401e-02 1.292245e-02
-1.568545e-02 7.464031e-03 -1.329731e-02
-1.354891e-02 1.091238e-02 -1.333535e-02
-1.689638e-02 4.088132e-03 -1.341839e-02
1.451688e-02 1.348795e-02 -7.077498e-03
-2.046205e-04 -1.841642e-05 1.832900e-02
-3.526998e-05 -1.683560e-04 1.850056e-02
-1.446625e-02 9.252102e-05 1.218094e-02
-1.370645e-02 3.049397e-03 1.275289e-02
-1.187781e-02 8.013158e-03 1.228124e-02
-1.331007e-02 5.666468e-03 1.208746e-02
-1.083764e-02 9.536657e-03 1.241288e-02
-1.380974e-02 4.622955e-03 1.208976e-02
-1.256463e-02 7.356053e-03 1.210017e-02
-8.662563e-03 1.394654e-02 -1.431577e-02
-8.439579e-03 -1.415381e-02 -1.456513e-02
5.934450e-04 1.390027e-02 1.283984e-02
1.401349e-04 -3.106563e-04 1.841658e-02
9.909623e-03 9.646338e-03 1.254590e-02
1.005460e-02 -9.456134e-03 1.263606e-02
1.492467e-03 -1.669365e-04 -2.268607e-02
-6.189225e-03 -1.294048e-02 1.199583e-02
-1.795761e-02 -4.218079e-03 -1.080057e-02
8.784267e-03 1.194972e-02 1.139931e-02
8.760683e-03 -1.200013e-02 1.131837e-02
1.134315e-03 1.406120e-02 1.240660e-02
7.178548e-03 1.188669e-02 1.273640e-02
6.375869e-03 -1.241650e-02 1.268504e-02
1.950477e-04 -1.693315e-05 1.840089e-02
-1.187651e-02 6.600338e-03 1.296105e-02
-1.187744e-02 -6.602475e-03 1.296193e-02
4.970834e-03 1.403767e-02 1.192147e-02
5.790340e-03 1.370051e-02 1.176934e-02
1.310745e-02 8.105568e-03 -1.596023e-02
1.311607e-02 -8.094742e-03 -1.595822e-02
-1.269225e-02 1.222813e-02 -1.265744e-02
-1.251548e-02 -1.239207e-02 -1.251452e-02
1.041671e-02 9.241570e-03 1.271761e-02
3.412548e-03 -1.355054e-02 1.233580e-02
2.448802e-05 -2.680163e-04 1.836891e-02
3.197034e-05 8.109732e-06 -2.275991e-02
1.054011e-02 1.015485e-02 1.193705e-02
2.053443e-03 3.519903e-03 -2.260550e-02
-3.154523e-04 -1.427078e-02 1.229452e-02
2.592180e-03 -1.404544e-02 1.229619e-02
6.746517e-03 -1.264256e-02 1.232976e-02
-6.354555e-03 1.270345e-02 1.255842e-02
3.828305e-03 5.837865e-04 -2.249683e-02
9.080871e-03 -1.685663e-02 -1.034009e-02
-5.749646e-04 6.826404e-04 -2.304164e-02
1.573127e-04 -2.783419e-06 1.846024e-02
2.049369e-04 -2.707570e-05 -2.299680e-02
1.690795e-02 3.987281e-03 -1.311018e-02