# vtk DataFile Version 2.0
Electric current density generated by TTH
ASCII
DATASET UNSTRUCTURED_GRID
POINTS 4365 double
3.280259e-06 3.300574e-05 -2.443140e-22
2.484979e-05 1.925196e-05 -6.732668e-07
-4.877316e-06 -3.079228e-05 -7.454205e-08
-2.466326e-05 -1.990964e-05 -8.774950e-07
2.557394e-05 -2.039921e-05 8.371566e-07
2.557394e-05 2.039921e-05 8.371566e-07
8.247723e-06 -3.009123e-05 -2.334772e-07
-3.069764e-05 1.124763e-05 8.496995e-07
1.514096e-05 2.898314e-05 -8.457476e-07
3.083762e-05 -6.318262e-06 -7.178161e-07
3.083762e-05 6.318262e-06 -7.178161e-07
2.656946e-06 3.306175e-05 -2.443140e-22
-2.426576e-05 -2.207170e-05 7.722224e-07
2.364817e-05 -2.064161e-05 -6.202853e-07
2.364817e-05 2.064161e-05 -6.202853e-07
-2.641458e-05 -1.931636e-05 -8.301511e-07
2.926178e-05 -1.159307e-05 -7.143024e-07
2.926178e-05 1.159307e-05 -7.143024e-07
9.404507e-06 -2.997031e-05 -6.464691e-07
-1.906071e-05 -2.499692e-05 -6.733784e-07
1.276353e-06 -3.141059e-05 6.750748e-07
-3.346401e-06 -3.125790e-05 6.750791e-07
2.032687e-06 3.310600e-05 -2.443140e-22
-9.412943e-06 -3.061405e-05 -9.872740e-07
-1.384497e-05 -2.888166e-05 -9.872967e-07
2.281976e-05 -2.155381e-05 -6.202008e-07
2.281976e-05 2.155381e-05 -6.202008e-07
-2.647729e-05 -1.645397e-05 5.859345e-09
3.047621e-05 -7.491387e-06 6.123428e-07
3.047621e-05 7.491387e-06 6.123428e-07
-5.495206e-06 3.215736e-05 8.888681e-07
-1.370077e-05 2.960713e-05 8.888679e-07
-4.767992e-06 -3.236890e-05 8.339161e-07
1.407704e-06 3.313846e-05 -2.443140e-22
3.261316e-05 -3.220230e-06 -7.961746e-07
3.261316e-05 3.220230e-06 -7.961746e-07
1.555190e-05 2.738810e-05 -7.341251e-07
1.552277e-05 -2.744029e-05 -7.615187e-07
2.783444e-05 -1.731995e-05 -7.874287e-07
2.783444e-05 1.731995e-05 -7.874287e-07
-3.249771e-05 -4.317399e-06 7.873748e-07
-2.257210e-05 2.377480e-05 7.873748e-07
5.157541e-06 -3.076409e-05 -1.989897e-07
1.904038e-05 2.491533e-05 -5.778186e-07
7.822204e-07 3.315912e-05 -2.443140e-22
1.904038e-05 -2.491533e-05 -5.778186e-07
1.712780e-05 2.625275e-05 5.608122e-07
1.712780e-05 -2.625275e-05 5.608122e-07
1.237094e-05 2.911152e-05 8.387775e-07
-1.187843e-06 3.261922e-05 8.798255e-07
-3.091312e-05 -1.047873e-05 8.798218e-07
-2.898588e-05 1.500813e-05 8.798218e-07
2.635083e-05 -1.745523e-05 -8.233553e-07
2.635083e-05 1.745523e-05 -8.233553e-07
2.971435e-05 -1.046858e-05 -7.422655e-07
1.564580e-07 3.316797e-05 -2.443140e-22
2.971435e-05 1.046858e-05 -7.422655e-07
-1.018833e-05 -3.115695e-05 -7.895424e-07
-1.366187e-05 -2.974666e-05 -8.233594e-07
2.850883e-05 1.302831e-05 -5.589699e-07
2.850883e-05 -1.302831e-05 -5.589699e-07
6.310946e-06 3.213341e-05 8.140745e-07
-3.241270e-05 3.787611e-06 8.838365e-07
1.441450e-05 2.765859e-05 1.778263e-07
2.926207e-06 3.103976e-05 -8.941051e-08
-1.604228e-05 -2.857474e-05 -7.975237e-07
-4.693601e-07 3.316502e-05 -2.443140e-22
-2.597906e-05 -1.750101e-05 5.271875e-07
-2.794313e-05 -1.463330e-05 7.749877e-07
1.392768e-05 2.834515e-05 8.051908e-07
1.387336e-05 -2.974310e-05 -7.577582e-07
3.060632e-05 6.344079e-06 3.995905e-07
3.060632e-05 -6.344079e-06 3.995905e-07
1.385225e-05 -2.829781e-05 -7.439319e-07
1.335914e-05 2.979837e-05 -8.715997e-07
-4.317606e-07 3.165119e-05 -8.532207e-07
-2.254004e-06 3.157379e-05 -8.532207e-07
-1.095011e-06 3.315026e-05 -2.443140e-22
2.724513e-05 1.594182e-05 -7.934966e-07
2.724513e-05 -1.594182e-05 -7.934966e-07
-2.112283e-05 2.352529e-05 8.293653e-07
-3.121196e-05 -5.029380e-06 8.279672e-07
-1.631821e-05 2.707322e-05 8.254249e-07
-8.683454e-06 3.039475e-05 8.254249e-07
-2.956050e-05 -9.904193e-06 -6.627871e-08
-2.780671e-05 1.409621e-05 -6.627871e-08
-1.125270e-05 -3.073982e-05 -8.228461e-07
3.756385e-06 -3.251843e-05 -8.228541e-07
-1.720272e-06 3.312370e-05 -2.443140e-22
1.038701e-06 -3.209129e-05 -9.955115e-07
-7.559209e-06 3.183423e-05 8.331040e-07
-1.560881e-05 2.875631e-05 8.331040e-07
3.080477e-05 -1.096826e-05 8.460777e-07
3.080477e-05 1.096826e-05 8.460777e-07
-2.006028e-05 2.386660e-05 -8.942581e-08
2.493995e-06 3.266015e-05 8.083802e-07
2.190226e-05 -2.441795e-05 -7.727452e-07
2.190226e-05 2.441795e-05 -7.727452e-07
2.493202e-05 -1.960746e-05 8.889780e-07
-2.344921e-06 3.308535e-05 -2.443140e-22
2.493202e-05 1.960746e-05 8.889780e-07
1.295659e-05 -2.840155e-05 -2.928353e-07
2.729994e-05 1.581901e-05 7.822898e-07
2.729994e-05 -1.581901e-05 7.822898e-07
-2.275048e-05 -2.354220e-05 -8.201119e-07
-2.210693e-05 -2.424757e-05 -7.637076e-07
2.552604e-05 1.858387e-05 7.994702e-07
2.552604e-05 -1.858387e-05 7.994702e-07
1.552680e-05 2.878346e-05 8.428814e-07
1.565008e-05 -2.879030e-05 7.982596e-07
-2.968735e-06 3.303522e-05 -2.443140e-22
-1.811837e-05 -2.562447e-05 6.116966e-07
3.091990e-05 4.798908e-06 4.682225e-07
3.091990e-05 -4.798908e-06 4.682225e-07
8.668520e-07 3.277187e-05 -7.873028e-07
-3.037482e-05 -1.227134e-05 -8.049385e-07
-3.008922e-05 1.301831e-05 -7.862298e-07
-3.170470e-05 -8.345614e-06 -7.862298e-07
-2.818413e-05 1.669941e-05 -8.049385e-07
-1.956934e-05 2.630187e-05 -7.873003e-07
-1.202320e-05 3.049902e-05 -7.873003e-07
-3.591492e-06 3.297332e-05 -2.443140e-22
-3.642964e-06 3.258030e-05 -7.873003e-07
-8.468898e-06 -3.165096e-05 8.016835e-07
-1.524246e-05 -2.900499e-05 8.003609e-07
-1.997065e-05 -2.595044e-05 -8.154953e-07
-2.073610e-05 -2.543476e-05 -7.604724e-07
3.205479e-05 6.595509e-06 8.285308e-07
3.205479e-05 -6.595509e-06 8.285308e-07
2.668689e-05 1.894786e-05 8.264687e-07
2.668689e-05 -1.894786e-05 8.264687e-07
-2.910521e-06 -3.261578e-05 -8.154127e-07
-4.212970e-06 3.289969e-05 -2.443140e-22
-2.011047e-06 -3.275355e-05 -7.614172e-07
3.233176e-05 5.028646e-06 8.324030e-07
3.233176e-05 -5.028646e-06 8.324030e-07
2.370886e-05 2.066636e-05 6.912177e-07
2.370886e-05 -2.066636e-05 6.912177e-07
-1.852590e-05 -2.701694e-05 8.059576e-07
-1.522647e-05 2.727919e-05 3.610186e-07
-7.575800e-06 3.030853e-05 3.610186e-07
-1.394104e-06 3.277542e-05 -7.699127e-07
-9.903782e-06 3.128210e-05 -7.637902e-07
-4.832949e-06 3.281435e-05 -2.443140e-22
-1.772789e-05 2.761117e-05 -7.637902e-07
-3.093809e-05 1.093112e-05 -7.637902e-07
-2.701085e-05 1.862978e-05 -7.637902e-07
-3.223006e-05 -6.154516e-06 -7.637902e-07
1.177351e-05 -2.932640e-05 8.190182e-07
3.764105e-06 3.128725e-05 -7.496857e-07
-3.001549e-05 9.599250e-06 -7.498926e-07
6.329595e-06 -3.210345e-05 -8.317376e-07
-3.189078e-05 7.558789e-06 7.942208e-07
-2.238177e-05 2.232800e-05 8.279902e-07
-5.451207e-06 3.271732e-05 -2.443140e-22
-3.144071e-05 -3.311303e-06 8.279902e-07
3.025897e-05 -9.227711e-06 8.411563e-07
3.025897e-05 9.227711e-06 8.411563e-07
1.120262e-05 3.071753e-05 -8.477110e-07
2.114372e-05 -2.502410e-05 8.044117e-07
2.114372e-05 2.502410e-05 8.044117e-07
3.182839e-05 7.778727e-06 -8.011216e-07
3.182839e-05 -7.778727e-06 -8.011216e-07
1.100059e-05 -3.086076e-05 8.028756e-07
7.542012e-07 -3.271235e-05 8.320282e-07
-6.067524e-06 3.260865e-05 -2.443140e-22
-2.911283e-06 -3.259128e-05 8.320252e-07
3.081282e-06 3.255799e-05 -8.433895e-07
-5.831296e-06 3.217940e-05 -8.433774e-07
-1.403095e-05 2.954065e-05 -8.433773e-07
-3.203315e-05 6.587503e-06 -8.433773e-07
-3.262169e-05 2.311513e-06 -8.433773e-07
-2.125722e-05 2.485254e-05 -8.433773e-07
-3.265950e-05 -1.695618e-06 -8.433773e-07
-2.413721e-05 2.206611e-05 -8.433773e-07
7.039247e-06 3.193725e-05 -8.431750e-07
-6.681682e-06 3.248837e-05 -2.443140e-22
2.654935e-05 -1.916024e-05 -8.183793e-07
2.654935e-05 1.916024e-05 -8.183793e-07
-8.863081e-06 -3.045258e-05 8.878155e-07
3.194558e-05 -7.536638e-06 7.551517e-07
3.194558e-05 7.536638e-06 7.551517e-07
-1.415326e-05 -2.836144e-05 8.776324e-07
1.120907e-05 -2.935701e-05 -6.613736e-07
3.016756e-05 -7.931502e-06 -1.959020e-07
3.016756e-05 7.931502e-06 -1.959020e-07
2.382637e-05 2.245347e-05 8.197447e-07
-7.293460e-06 3.235652e-05 -2.443140e-22
2.382637e-05 -2.245347e-05 8.197447e-07
1.449038e-05 -2.762727e-05 2.147363e-07
3.102038e-05 3.249863e-06 -1.822423e-07
3.102038e-05 -3.249863e-06 -1.822423e-07
-3.100003e-05 -1.042970e-05 -8.408292e-07
-2.907917e-05 1.497272e-05 -8.408292e-07
1.713356e-05 2.795560e-05 -7.833959e-07
1.713356e-05 -2.795560e-05 -7.833959e-07
-1.705273e-05 -2.684310e-05 9.266627e-07
2.613800e-06 -3.266873e-05 -7.951421e-07
-7.902642e-06 3.221315e-05 -2.443140e-22
-2.098976e-05 -2.364920e-05 -8.319101e-07
-2.030730e-05 -2.421699e-05 -8.211605e-07
2.945688e-05 1.442981e-05 -7.729708e-07
2.945688e-05 -1.442981e-05 -7.729708e-07
3.274655e-05 8.338772e-07 8.069843e-07
3.274655e-05 -8.338772e-07 8.069843e-07
-5.947841e-06 -3.223576e-05 -7.899722e-07
-2.533767e-05 2.083618e-05 7.702630e-07
-3.276285e-05 -3.236633e-07 8.016376e-07
9.903209e-06 3.123197e-05 8.016379e-07
-8.509011e-06 3.205832e-05 -2.443140e-22
-2.288401e-05 -2.237497e-05 -9.835948e-07
2.211364e-05 2.266269e-05 8.591314e-07
2.211364e-05 -2.266269e-05 8.591314e-07
1.598345e-05 2.681558e-05 -2.941465e-07
1.598345e-05 -2.681558e-05 -2.941465e-07
-2.559245e-05 1.875508e-05 8.942619e-07
2.954863e-05 -1.045370e-05 5.568786e-07
2.954863e-05 1.045370e-05 5.568786e-07
-8.645492e-06 3.034423e-05 -7.821543e-07
-1.626838e-05 2.703436e-05 -7.821543e-07
-9.112350e-06 3.189207e-05 -2.443140e-22
-3.114677e-05 -4.938797e-06 -7.692914e-07
-2.110495e-05 2.343882e-05 -7.729933e-07
3.256408e-05 4.154212e-06 7.504360e-07
3.256408e-05 -4.154212e-06 7.504360e-07
-7.648244e-06 -3.189306e-05 -7.762353e-07
-2.743132e-05 -1.797050e-05 -7.792560e-07
3.651553e-06 -3.262266e-05 7.518354e-07
1.860229e-05 2.563579e-05 8.649052e-07
1.860229e-05 -2.563579e-05 8.649052e-07
-1.117188e-05 -3.084703e-05 7.676633e-07
-9.712446e-06 3.171446e-05 -2.443140e-22
9.743454e-06 2.970499e-05 4.113657e-07
-1.276300e-05 -3.026473e-05 7.344356e-07
-3.125629e-05 -6.173089e-07 4.119125e-07
-6.170078e-07 -3.163980e-05 -8.481266e-07
-1.499927e-06 -3.158253e-05 -8.303476e-07
9.221125e-06 -3.141570e-05 -8.184626e-07
3.119639e-05 -1.019631e-05 7.570057e-07
3.119639e-05 1.019631e-05 7.570057e-07
2.879306e-05 1.318081e-05 8.606518e-07
2.879306e-05 -1.318081e-05 8.606518e-07
-1.030908e-05 3.152557e-05 -2.443140e-22
[...]
POINT_DATA 4365
VECTORS 10.000GHz_fone_imag double
2.884933e+10 -3.776172e+09 4.539822e+08
2.235657e+10 -3.157736e+10 6.697896e+08
-3.677179e+10 5.092031e+09 -7.762899e+08
-2.236171e+10 2.989682e+10 5.101078e+08
-1.917117e+10 -2.437198e+10 -5.263133e+08
1.917228e+10 -2.437679e+10 5.271560e+08
-3.576338e+10 -1.104811e+10 -9.358388e+08
1.088880e+10 3.198252e+10 -9.666782e+08
2.833203e+10 -1.485134e+10 1.374211e+08
-7.164839e+09 -3.621374e+10 -8.059370e+08
7.162743e+09 -3.620402e+10 8.063297e+08
2.974802e+10 -1.723397e+09 -7.012723e+08
-2.181768e+10 2.499616e+10 1.253026e+09
-2.550791e+10 -2.829244e+10 1.650867e+08
2.550755e+10 -2.829179e+10 -1.653499e+08
-2.051293e+10 2.585358e+10 1.150070e+09
-1.257960e+10 -3.370898e+10 -4.175629e+08
1.257983e+10 -3.371041e+10 4.177564e+08
-3.390023e+10 -1.196036e+10 8.708878e+07
-2.971657e+10 2.131002e+10 1.813574e+09
-3.594980e+10 1.847950e+08 -1.040204e+08
-3.540494e+10 3.056589e+09 -9.726694e+08
3.032381e+10 -2.012717e+09 8.992620e+07
-3.351020e+10 8.020969e+09 1.847622e+08
-3.026246e+10 1.438854e+10 3.193831e+08
-2.646742e+10 -2.757090e+10 1.324526e+09
2.646623e+10 -2.756969e+10 -1.324449e+09
-1.863232e+10 3.280344e+10 -5.257693e+08
-8.900020e+09 -3.535771e+10 4.055374e+08
8.898859e+09 -3.535433e+10 -4.061479e+08
3.201128e+10 5.449455e+09 -3.313762e+07
2.943402e+10 1.324263e+10 1.784397e+08
-3.066567e+10 5.096353e+09 -1.069029e+09
3.052566e+10 -1.974660e+09 2.179717e+08
-2.192806e+09 -3.160240e+10 -6.331279e+08
2.534900e+09 -3.142429e+10 4.874986e+08
3.222257e+10 -1.787837e+10 1.280662e+07
-3.231316e+10 -1.812455e+10 4.561703e+08
-1.644603e+10 -2.638145e+10 -5.418261e+08
1.644565e+10 -2.638144e+10 5.417689e+08
-3.024956e+09 3.055459e+10 5.381348e+08
2.323574e+10 2.146338e+10 5.874825e+08
-3.739787e+10 -4.863724e+09 -1.142461e+09
2.848774e+10 -2.316423e+10 2.100574e+09
2.894044e+10 -3.619599e+08 3.343087e+08
-2.850352e+10 -2.316822e+10 -2.092120e+09
3.086560e+10 -2.013065e+10 3.375164e+08
-3.124815e+10 -2.035222e+10 -4.588593e+08
3.351458e+10 -1.284143e+10 -4.213701e+08
3.622956e+10 3.665273e+09 4.350600e+09
-8.585697e+09 3.032114e+10 7.302310e+08
1.363432e+10 2.866500e+10 -1.911892e+08
-1.985474e+10 -3.104051e+10 -3.840922e+08
1.985461e+10 -3.104042e+10 3.840321e+08
-1.293429e+10 -3.395103e+10 3.857623e+08
2.887996e+10 -3.666281e+08 -5.158733e+08
1.293501e+10 -3.395107e+10 -3.864043e+08
-3.328031e+10 1.062916e+10 -4.409551e+08
-2.817333e+10 1.273903e+10 -5.669216e+06
1.449735e+10 -3.395606e+10 -2.922310e+08
-1.449655e+10 -3.395456e+10 2.919959e+08
3.186020e+10 -5.826665e+09 8.299602e+08
3.465295e+09 3.236097e+10 -5.182056e+08
3.297909e+10 -1.685023e+10 -1.349485e+08
3.754055e+10 -2.773577e+09 1.693819e+08
-2.894501e+10 1.528817e+10 7.963427e+08
2.982311e+10 -4.045957e+08 1.184787e+09
-2.002647e+10 3.082946e+10 1.371583e+09
-1.762115e+10 3.163142e+10 -4.556236e+08
3.271862e+10 -1.385215e+10 -1.037671e+09
-2.703990e+10 -1.388133e+10 -8.229981e+08
7.756498e+09 -3.663025e+10 3.313535e+08
-7.755901e+09 -3.663361e+10 -3.285019e+08
-3.360516e+10 -1.583892e+10 1.346073e+09
2.879342e+10 -1.349881e+10 -4.300464e+08
3.487645e+10 6.331091e+08 -2.880703e+08
3.732154e+10 3.069665e+09 2.413848e+07
3.271483e+10 9.743620e+08 9.483388e+08
1.874243e+10 -3.121551e+10 1.380958e+09
-1.874286e+10 -3.121476e+10 -1.380389e+09
2.494015e+10 2.465477e+10 -5.171756e+08
-4.159733e+09 3.615872e+10 -4.042712e+08
3.114168e+10 1.632019e+10 -1.075387e+09
3.437254e+10 7.772144e+09 -9.986698e+08
-1.233536e+10 3.735417e+10 -1.082246e+08
1.735546e+10 3.374553e+10 -9.343029e+08
-2.895065e+10 1.017339e+10 -3.054045e+08
-3.181392e+10 -3.251427e+09 -6.965986e+08
3.056189e+10 2.268119e+09 -5.929164e+08
-3.359783e+10 -1.188852e+09 5.492874e+08
3.368313e+10 9.156653e+09 4.401350e+08
3.025504e+10 1.752150e+10 5.770505e+08
-1.034298e+10 -2.930735e+10 1.445338e+08
1.034289e+10 -2.930735e+10 -1.444938e+08
2.971971e+10 2.525248e+10 6.770963e+08
3.178308e+10 -1.768471e+09 -4.345833e+08
-2.234485e+10 -1.948797e+10 6.147340e+08
2.234738e+10 -1.949025e+10 -6.146203e+08
-2.462693e+10 -3.150935e+10 -6.205765e+08
3.070161e+10 2.223316e+09 6.952868e+08
2.462338e+10 -3.150769e+10 6.199868e+08
-3.423471e+10 -1.584497e+10 1.067420e+08
1.793834e+10 -3.272303e+10 -8.008949e+07
-1.793878e+10 -3.272317e+10 7.982074e+07
-2.242218e+10 2.372473e+10 -8.206610e+08
-2.188058e+10 2.176458e+10 1.117008e+09
2.184834e+10 -2.875121e+10 -5.896168e+08
-2.184928e+10 -2.875101e+10 5.890170e+08
2.741332e+10 -1.455770e+10 2.898218e+08
-2.823070e+10 -1.473882e+10 -3.652030e+08
2.938757e+10 3.389748e+09 4.146635e+08
-3.166552e+10 2.711399e+10 1.246891e+09
4.557366e+09 -3.496514e+10 2.041951e+09
-4.538398e+09 -3.498603e+10 -2.005478e+09
3.054959e+10 1.066043e+08 2.570766e+08
-1.225840e+10 2.840695e+10 -4.882549e+08
1.207653e+10 2.878738e+10 2.226716e+08
-8.358621e+09 2.961497e+10 3.987976e+08
1.535870e+10 2.699349e+10 -1.891651e+09
2.536024e+10 1.835220e+10 -4.807885e+07
2.995904e+10 1.147641e+10 -1.322726e+08
2.903969e+10 2.548980e+09 7.300695e+07
3.070944e+10 3.024311e+09 8.278631e+07
-3.086007e+10 7.364669e+09 5.990699e+08
-2.755289e+10 1.559182e+10 1.227235e+09
-2.487347e+10 1.812640e+10 -4.790561e+08
-2.389952e+10 2.052455e+10 -1.147575e+09
5.969166e+09 -3.012737e+10 4.934630e+08
-5.968082e+09 -3.011990e+10 -4.927463e+08
1.749728e+10 -2.572410e+10 2.051109e+07
-1.749694e+10 -2.572326e+10 -2.037279e+07
-2.960355e+10 2.140098e+09 5.339078e+08
3.063767e+10 4.142964e+09 4.228353e+08
-3.172961e+10 1.894316e+09 5.974199e+08
4.117971e+09 -2.932005e+10 -3.843558e+08
-4.108599e+09 -2.928102e+10 3.822488e+08
2.591986e+10 -2.783658e+10 3.398462e+08
-2.592094e+10 -2.783770e+10 -3.400001e+08
-2.640720e+10 1.864861e+10 -2.095677e+09
3.124691e+10 1.802829e+10 3.955300e+08
3.481995e+10 9.254314e+09 4.628754e+08
3.566248e+10 4.843174e+08 -6.882079e+08
2.950090e+10 8.569449e+09 3.704843e+08
2.979396e+10 4.993057e+09 -1.676817e+08
2.628861e+10 1.601772e+10 3.811540e+08
9.276283e+09 2.893194e+10 1.190909e+09
1.671390e+10 2.563196e+10 -3.294063e+08
-5.610425e+09 3.056162e+10 6.300198e+08
-3.443734e+10 -1.497587e+10 1.159823e+09
3.581285e+10 -4.856297e+09 9.843119e+07
1.032695e+10 3.525338e+10 -1.593049e+08
-3.215517e+10 -4.968217e+09 -9.416230e+08
6.611887e+09 3.076670e+10 -4.130012e+08
2.591373e+10 2.472809e+10 -4.948103e+07
2.987358e+10 4.650271e+09 4.518871e+07
-4.720973e+09 3.601760e+10 1.779176e+07
-1.093243e+10 -3.476618e+10 -3.883775e+07
1.093257e+10 -3.476571e+10 3.902004e+07
2.860259e+10 -1.117622e+10 -1.826113e+08
-2.424783e+10 -2.078129e+10 -9.693125e+07
2.425062e+10 -2.078575e+10 9.745842e+07
7.240036e+09 -3.036535e+10 5.594983e+08
-7.237765e+09 -3.036112e+10 -5.586423e+08
-2.862123e+10 -1.087945e+10 1.645045e+09
-3.095577e+10 -3.367225e+08 -2.014950e+08
2.861795e+10 5.758625e+09 -1.180660e+09
-3.075384e+10 1.543087e+09 -3.372966e+08
3.089702e+10 -2.510222e+09 -2.563434e+08
3.023363e+10 5.198738e+09 -5.396167e+08
2.741835e+10 1.232733e+10 -2.387453e+08
5.860850e+09 3.023170e+10 -1.491168e+09
1.417558e+09 3.192108e+10 -2.650931e+08
2.405485e+10 2.080354e+10 1.639272e+09
-2.301214e+09 3.120980e+10 2.989683e+08
2.127807e+10 2.255781e+10 -3.872732e+07
3.022811e+10 -6.493780e+09 -8.574457e+08
2.811547e+10 5.332279e+09 6.758997e+08
-1.839010e+10 -2.543369e+10 4.825770e+07
1.839003e+10 -2.543379e+10 -4.812648e+07
-3.380390e+10 1.123850e+10 7.361672e+08
-5.736686e+09 -3.029330e+10 -6.593640e+08
5.740091e+09 -3.029633e+10 6.571576e+08
-3.131592e+10 1.593280e+10 -1.672678e+09
-3.418237e+10 -1.334624e+10 -8.414392e+07
-8.982276e+09 -3.694184e+10 -1.578562e+09
8.980937e+09 -3.693707e+10 1.578304e+09
2.042493e+10 -2.155617e+10 1.014224e+09
2.899954e+10 5.474683e+09 -7.719255e+08
-2.042511e+10 -2.155560e+10 -1.013802e+09
-3.307305e+10 -1.856768e+10 3.333518e+08
3.235619e+09 -3.758268e+10 -4.737327e+08
-3.269720e+09 -3.774516e+10 4.673049e+08
-1.004051e+10 2.925016e+10 -1.030930e+09
1.441468e+10 2.744579e+10 3.126233e+08
2.660415e+10 -1.619754e+10 4.013337e+08
-2.708511e+10 -1.634366e+10 -5.617194e+08
-2.878377e+10 2.013224e+10 2.053791e+09
-3.024151e+10 -1.760099e+09 6.521023e+08
3.073320e+10 7.412884e+09 4.717512e+08
-2.499696e+10 2.440903e+10 -7.503396e+08
-2.848768e+10 2.213370e+10 3.386701e+07
1.293363e+10 -2.542679e+10 7.143082e+08
-1.293350e+10 -2.542721e+10 -7.140682e+08
1.795110e+09 -3.103948e+10 2.307147e+08
-1.389842e+09 -3.193052e+10 -3.513453e+08
-3.190668e+10 5.566181e+09 -6.064479e+07
2.007104e+10 2.346594e+10 1.260770e+09
2.837261e+08 3.064343e+10 -6.043580e+08
2.954274e+10 -9.547085e+09 2.381908e+08
3.013002e+10 7.972049e+09 -3.556631e+08
-2.417988e+10 2.540960e+10 2.108490e+09
2.639344e+10 -2.451012e+10 -6.908081e+08
-2.638967e+10 -2.450738e+10 6.891184e+08
3.335145e+10 -2.036159e+10 1.270433e+09
-3.218259e+10 -1.986907e+10 -1.982731e+09
2.198717e+10 2.875203e+10 1.449634e+09
-1.320918e+10 -3.449644e+10 8.387058e+07
1.320959e+10 -3.449642e+10 -8.349968e+07
3.291350e+10 9.956070e+09 2.726675e+07
2.919948e+10 1.794954e+10 2.015546e+08
2.985313e+10 8.723258e+09 -8.965231e+08
-5.524893e+09 3.908506e+10 1.132560e+08
2.865428e+10 2.652915e+10 4.691331e+08
4.434848e+09 -3.078872e+10 -1.801718e+08
-4.462881e+09 -2.992059e+10 3.450762e+08
-3.096300e+10 9.532093e+09 -4.370229e+08
-1.678155e+10 2.599714e+10 7.908044e+08
-3.013054e+10 -4.327841e+09 1.247527e+09
2.977695e+10 -2.212836e+10 -2.152858e+08
-2.985197e+10 -2.210217e+10 1.797394e+08
-2.924863e+10 9.441203e+09 3.342557e+08
2.900144e+10 8.667247e+09 7.741968e+08
3.670663e+10 -1.206591e+10 -1.823774e+08
-2.885295e+10 1.189170e+10 -4.704842e+08
1.159804e+08 3.757232e+10 -2.018039e+08
-3.453995e+10 7.304174e+08 -8.506635e+08
-3.570114e+10 7.314450e+08 3.946107e+08
-2.888825e+10 -8.747020e+09 2.059990e+08
-1.028172e+10 -2.911055e+10 -1.501771e+09
1.028259e+10 -2.911173e+10 1.501405e+09
1.709030e+10 -3.242483e+10 -1.458908e+09
-1.709160e+10 -3.242698e+10 1.459053e+09
2.784662e+10 9.624991e+09 3.158279e+08
-2.639788e+10 -1.588958e+10 -2.677748e+08
2.545092e+10 -1.634154e+10 1.054543e+09
1.241981e+10 -2.884718e+10 2.234964e+08
1.219487e+10 -2.796955e+10 -3.685719e+08
-1.242010e+10 -2.884756e+10 -2.234171e+08
-1.219578e+10 -2.797049e+10 3.689805e+08
3.807656e+10 -1.799572e+09 1.579988e+09
3.709151e+10 3.992774e+09 1.441283e+09
-2.654288e+10 -1.388046e+10 9.288790e+07
-3.127391e+10 3.240986e+08 -2.656980e+08
2.823147e+10 9.357124e+09 -4.855200e+07
2.643599e+10 -2.635549e+10 1.301668e+09
-2.643712e+10 -2.635617e+10 -1.302108e+09
3.702011e+10 1.108471e+09 -5.727171e+07
3.909012e+10 2.153298e+08 -4.981868e+08
-2.033388e+10 -2.279014e+10 2.549277e+08
2.033692e+10 -2.279139e+10 -2.554473e+08
3.623943e+10 2.811601e+09 -7.028129e+08
-5.801279e+09 -3.521044e+10 -8.341513e+08
5.841216e+09 -3.502741e+10 8.478810e+08
2.964952e+10 1.331574e+10 1.023233e+09
2.749754e+10 1.043120e+10 3.621640e+08
3.227493e+10 6.334681e+09 -3.250232e+06
3.452700e+10 1.132378e+10 -1.896693e+08
2.897844e+10 2.066903e+10 -3.711211e+08
-1.556997e+10 3.431370e+10 -2.828778e+08
-7.503226e+09 3.493933e+10 4.036371e+08
2.072526e+10 3.069208e+10 3.324256e+08
1.223368e+10 3.456556e+10 4.274643e+08
3.655464e+10 1.360388e+10 3.026917e+07
-8.576021e+09 3.655014e+10 4.109353e+08
1.922851e+10 3.237394e+10 -1.698076e+08
2.793905e+10 1.053903e+10 -7.643717e+08
3.184992e+10 2.275955e+10 3.890489e+08
1.417644e+10 3.489882e+10 2.453559e+07
-1.515816e+10 3.594009e+10 1.297046e+07
1.343202e+10 -3.407261e+10 -7.562387e+08
-1.343209e+10 -3.407247e+10 7.561880e+08
-8.858368e+09 3.195301e+10 3.078465e+08
1.442150e+10 3.177539e+10 -7.820567e+07
3.040863e+10 1.596951e+09 5.625178e+08
6.701354e+09 -3.569129e+10 5.770766e+07
-6.703883e+09 -3.570830e+10 -5.488060e+07
2.712363e+10 1.142961e+10 -1.208273e+08
-3.204574e+10 1.185424e+10 5.286545e+08
-3.479958e+10 -5.210601e+09 1.134117e+09
5.015715e+09 -3.697745e+10 1.406612e+09
-5.015084e+09 -3.699097e+10 -1.408399e+09
2.527031e+09 -3.594511e+10 -1.074443e+08
-3.059795e+09 -3.775759e+10 -2.158119e+08
2.831406e+10 -2.528300e+10 1.825859e+07
-2.831888e+10 -2.528549e+10 -1.907892e+07
-2.665838e+10 2.066355e+10 7.066055e+08
9.271575e+09 3.396928e+10 -9.515263e+08
2.727746e+10 1.180119e+10 -4.782415e+08
3.574914e+10 -4.737268e+09 3.775927e+08
-1.944135e+10 2.983512e+10 7.509073e+08
-3.497985e+10 -1.097358e+10 -6.009774e+08
-3.356256e+10 -7.753424e+09 -1.292759e+08
-3.027011e+10 -8.268171e+07 -5.941570e+08
-1.831723e+10 -3.385622e+10 1.426068e+08
1.831707e+10 -3.385587e+10 -1.426390e+08
-2.338645e+10 2.081309e+10 6.963320e+08
-1.959727e+10 2.389533e+10 7.526484e+08
-3.427378e+10 9.527153e+09 -7.827442e+08
2.806631e+10 1.256677e+10 4.315475e+08
-3.299168e+10 1.619806e+10 3.276002e+08
3.328709e+10 -1.413409e+10 2.146061e+08
-1.539033e+10 2.686675e+10 -5.125525e+07
-1.654580e+10 3.391636e+10 2.252961e+09
-3.131393e+08 -3.392511e+10 4.555167e+08
2.559936e+08 -3.351888e+10 -4.565071e+08
-2.224863e+10 -2.223212e+10 4.144811e+08
2.224908e+10 -2.223201e+10 -4.142577e+08
3.481428e+10 -5.053236e+09 -5.316054e+08
9.330520e+09 3.447284e+10 9.710695e+08
2.708710e+10 1.324679e+10 -8.963998e+08
-8.296137e+09 3.433149e+10 -4.956772e+08
1.914193e+10 2.997966e+10 2.970824e+08
-1.533382e+10 3.256174e+10 -3.473781e+08
1.340065e+10 3.322214e+10 3.436883e+08
2.925378e+10 1.979944e+10 3.515288e+07
3.326886e+10 1.136066e+10 6.848805e+07
-4.405122e+09 -3.081795e+10 9.302679e+08
4.415863e+09 -3.080916e+10 -9.178846e+08
-2.981076e+10 5.500139e+09 -1.448908e+09
2.693044e+10 -1.299747e+10 1.314934e+07
2.892234e+10 1.397348e+10 -2.217060e+08
-2.017051e+10 2.406001e+10 -3.583636e+08
-3.191099e+10 1.347481e+10 5.582972e+08
-3.675773e+10 -6.236024e+09 -1.428796e+08
2.882443e+10 -1.230576e+10 -3.626775e+08
-1.868439e+09 3.114036e+10 1.466502e+08
2.015175e+10 2.367275e+10 -1.040626e+09
-3.166738e+10 4.796215e+08 1.952625e+08
-2.684877e+10 2.167240e+10 -6.589737e+08
2.569168e+10 -2.219183e+10 1.012255e+09
-2.569327e+10 -2.219429e+10 -1.012994e+09
2.555898e+10 1.374145e+10 3.223510e+07
3.110531e+10 8.508684e+09 -3.973184e+08
2.774826e+10 1.625788e+10 -3.763394e+08
2.475029e+10 2.696942e+10 6.307469e+08
-2.620930e+09 3.689409e+10 -5.459724e+08
2.146687e+10 -2.192252e+10 -4.535182e+07
-2.146703e+10 -2.192228e+10 4.556853e+07
3.402281e+10 -1.223182e+10 -7.462798e+08
2.170953e+10 2.819537e+10 3.653704e+08
-3.237284e+10 1.960874e+10 -3.223778e+08
-3.704719e+10 -2.966965e+09 5.073823e+08
2.753170e+10 1.507941e+10 3.745620e+08
9.220394e+09 3.005861e+10 2.569961e+08
-3.210261e+10 -5.116952e+09 -1.004352e+09
3.069498e+10 -1.815419e+10 -3.413194e+08
-3.203679e+10 -1.841496e+10 -9.822521e+08
-1.915265e+10 -3.249597e+10 -1.500801e+08
1.915243e+10 -3.249464e+10 1.498858e+08
-1.782915e+10 3.362777e+10 1.184096e+08
3.017586e+10 -4.888528e+09 -7.975904e+08
-3.529682e+10 6.897472e+09 4.968875e+08
-3.346760e+10 -1.299869e+10 -6.257734e+08
2.690992e+10 1.545863e+10 -4.259208e+08
8.575637e+08 -3.752273e+10 -3.704944e+08
-9.954008e+08 -3.788970e+10 -3.400750e+08
-3.112048e+10 -2.643107e+09 -5.779657e+07
-3.213475e+10 2.077255e+10 9.054352e+08
2.648166e+10 -1.485774e+10 5.267527e+08
-2.706321e+10 -1.549402e+10 2.309515e+08
-2.203314e+10 2.167171e+10 2.660098e+08
-1.923322e+10 3.378558e+10 3.282463e+08
3.141935e+10 -2.302424e+10 1.104001e+09
-3.149114e+10 -2.306846e+10 -1.090277e+09
2.662608e+10 1.627761e+10 -9.019377e+08
-2.823601e+10 -1.364668e+10 -2.659781e+08
-3.279309e+10 -1.589662e+10 7.286695e+07
-3.529896e+10 -1.591230e+10 -1.134198e+09
-3.232545e+10 1.780428e+10 1.269916e+09
-2.977412e+10 1.204886e+10 9.940572e+08
-3.474403e+10 -9.006797e+09 -4.127977e+07
2.026111e+10 -3.025188e+10 2.436772e+08
-2.026173e+10 -3.025213e+10 -2.435280e+08
3.935107e+10 6.608899e+09 -6.188188e+08
3.658763e+10 1.671220e+10 6.926760e+08
2.575905e+10 1.596636e+10 7.777692e+08
8.909548e+09 -3.189526e+10 9.389123e+08
-8.908248e+09 -3.189331e+10 -9.382667e+08
-3.082872e+10 -1.057859e+10 -7.818302e+08
1.617511e+10 -2.635544e+10 -2.090560e+08
-1.617527e+10 -2.635552e+10 2.091886e+08
-2.796550e+10 2.185939e+10 -2.509262e+08
8.929838e+09 3.801815e+10 -2.434686e+08
-3.580809e+10 9.498680e+09 4.398833e+08
3.757116e+10 -8.200769e+09 -4.082123e+08
-1.504466e+10 3.034775e+10 2.759845e+08
2.442224e+10 1.657630e+10 3.679770e+08
3.020991e+09 3.558542e+10 1.728718e+08
-1.640624e+10 -2.765351e+10 -1.408839e+08
1.640701e+10 -2.765398e+10 1.412061e+08
-2.419711e+10 2.861384e+10 -7.837804e+08
-2.989190e+10 9.087030e+09 -2.360492e+08
-2.811455e+10 1.227458e+10 7.769630e+08
-2.691308e+10 2.883412e+10 -4.564219e+08
3.668032e+09 3.310810e+10 -8.806113e+08
-3.355708e+10 4.226989e+09 -1.056468e+09
-2.227394e+10 3.139011e+10 2.759558e+08
2.492048e+10 1.631439e+10 8.701154e+07
-2.849445e+10 -6.662579e+09 3.127747e+08
-2.041391e+10 -2.181161e+10 -3.102487e+08
2.041467e+10 -2.181214e+10 3.103086e+08
-3.271056e+10 1.262117e+10 1.474122e+08
-3.551540e+10 -5.054057e+09 1.142457e+09
2.639473e+10 3.175054e+10 -6.235977e+08
-2.053669e+09 3.924601e+10 9.526276e+08
-3.341635e+10 -1.133084e+10 4.147605e+08
3.317168e+10 -9.711139e+09 6.397115e+07
-3.522372e+10 1.386044e+09 4.138311e+08
2.328689e+10 1.698844e+10 5.625422e+08
-3.732115e+10 7.624380e+08 -7.339609e+08
-1.744066e+10 2.488720e+10 -3.295094e+08
1.032905e+07 3.540195e+10 -8.475951e+08
-3.594567e+10 3.575568e+09 -1.238195e+08
-3.696451e+10 -1.108229e+09 1.852480e+08
3.373131e+10 -3.321554e+08 1.033408e+09
-9.418967e+09 3.552032e+10 -3.875615e+08
1.367156e+10 3.141288e+10 3.424047e+08
-1.364916e+10 3.215559e+10 2.433522e+08
2.863746e+10 1.958369e+10 -3.808019e+08
2.432543e+10 1.738281e+10 4.853439e+08
1.797417e+10 3.030805e+10 4.292053e+08
3.303261e+10 1.261286e+10 5.605484e+08
3.420726e+10 3.149513e+09 -1.008510e+09
-3.825495e+10 3.709406e+09 -6.111720e+07
3.511113e+10 -1.369631e+10 -5.038868e+08
3.930795e+09 3.677865e+10 4.043521e+08
-2.131027e+10 2.199536e+10 4.727031e+08
-1.468981e+10 2.663960e+10 -6.762326e+08
-2.865904e+10 -1.109500e+10 -8.132390e+08
1.405735e+10 -2.726196e+10 -1.055621e+09
2.508611e+10 1.870010e+10 1.086104e+09
-1.405768e+10 -2.726244e+10 1.055704e+09
9.750302e+08 -3.604738e+10 3.082850e+07
-7.396151e+08 -3.536023e+10 2.800138e+08
1.160259e+09 -3.023656e+10 -1.077674e+09
-1.552062e+09 -3.071493e+10 -5.837481e+07
3.459620e+10 -1.346673e+10 -1.756207e+09
3.412528e+10 2.802514e+09 -5.297558e+07
-8.690457e+09 3.387038e+10 4.088330e+08
1.343450e+10 3.238491e+10 -3.814980e+08
1.815144e+10 2.915161e+10 1.576799e+09
2.353926e+10 1.911737e+10 4.563527e+08
-1.249993e+10 3.209945e+10 5.677291e+08
3.499310e+10 -6.925893e+08 -3.458731e+08
-2.029852e+10 2.331242e+10 -4.841117e+06
2.788354e+10 -2.363253e+10 -2.976915e+08
-2.789258e+10 -2.362242e+10 2.899941e+08
4.895853e+09 3.731652e+10 2.069759e+08
-3.405227e+10 -5.728786e+09 6.172068e+08
1.914212e+10 -3.096800e+10 -9.111155e+07
-1.914268e+10 -3.096756e+10 9.052177e+07
-2.908723e+10 1.775202e+10 5.528671e+08
2.355273e+10 1.866203e+10 1.392590e+09
3.162294e+10 1.255051e+10 -9.321552e+08
2.853200e+10 1.982615e+10 -1.183086e+08
-1.990442e+10 3.090008e+10 -7.596074e+08
-2.181256e+09 3.720195e+10 8.605423e+08
2.353111e+10 2.689347e+10 1.810436e+08
1.770233e+10 -3.290168e+10 1.694394e+08
-1.770207e+10 -3.290109e+10 -1.695371e+08
-3.238311e+10 -7.433725e+09 -6.279270e+08
3.007747e+10 -2.978733e+08 -4.567633e+08
-6.784595e+09 2.968378e+10 8.071652e+08
2.223695e+10 1.974642e+10 8.499597e+08
1.054581e+10 2.837777e+10 -4.164133e+08
-1.204734e+10 2.746557e+10 -4.821229e+08
1.747921e+10 2.716066e+10 2.805983e+08
2.480612e+10 1.782610e+10 9.634447e+08
2.898470e+10 1.025804e+10 7.245508e+08
3.176712e+10 2.645682e+09 -1.788062e+08
-3.722330e+10 -7.421458e+09 -6.306747e+08
-2.485270e+10 2.328346e+10 -1.105142e+09
2.463559e+10 -1.791533e+10 -3.495432e+08
-2.471943e+10 -1.768962e+10 5.356131e+08
2.281771e+10 1.931537e+10 -4.612907e+08
3.508601e+10 8.018376e+09 1.167603e+08
3.137898e+10 1.739867e+10 3.969380e+08
2.101850e+10 -3.126933e+10 -1.262863e+08
-2.101867e+10 -3.126974e+10 1.265552e+08
-3.301617e+10 8.353513e+09 -1.283541e+09
-3.107968e+10 1.528511e+10 3.118261e+08
3.544594e+10 8.099144e+09 -1.189782e+09
3.228954e+10 1.699570e+10 -1.162445e+09