# vtk DataFile Version 2.0
Electric current density generated by TTH
ASCII
DATASET UNSTRUCTURED_GRID
POINTS 4160 double
3.316834e-05 -8.123901e-21 -2.443140e-22
3.269125e-05 5.605477e-06 -2.443140e-22
-9.712446e-06 3.171446e-05 -2.443140e-22
-1.384497e-05 -2.888166e-05 -9.872967e-07
2.281976e-05 -2.155381e-05 -6.202008e-07
2.281976e-05 2.155381e-05 -6.202008e-07
-2.647729e-05 -1.645397e-05 5.859345e-09
3.047621e-05 -7.491387e-06 6.123428e-07
3.047621e-05 7.491387e-06 6.123428e-07
-5.495206e-06 3.215736e-05 8.888681e-07
-1.370077e-05 2.960713e-05 8.888679e-07
-4.767992e-06 -3.236890e-05 8.339161e-07
3.261316e-05 -3.220230e-06 -7.961746e-07
-1.030908e-05 3.152557e-05 -2.443140e-22
3.261316e-05 3.220230e-06 -7.961746e-07
1.555190e-05 2.738810e-05 -7.341251e-07
1.552277e-05 -2.744029e-05 -7.615187e-07
2.783444e-05 -1.731995e-05 -7.874287e-07
2.783444e-05 1.731995e-05 -7.874287e-07
-3.249771e-05 -4.317399e-06 7.873748e-07
-2.257210e-05 2.377480e-05 7.873748e-07
5.157541e-06 -3.076409e-05 -1.989897e-07
1.904038e-05 2.491533e-05 -5.778186e-07
1.904038e-05 -2.491533e-05 -5.778186e-07
-1.090205e-05 3.132546e-05 -2.443140e-22
1.712780e-05 2.625275e-05 5.608122e-07
1.712780e-05 -2.625275e-05 5.608122e-07
1.237094e-05 2.911152e-05 8.387775e-07
-1.187843e-06 3.261922e-05 8.798255e-07
-3.091312e-05 -1.047873e-05 8.798218e-07
-2.898588e-05 1.500813e-05 8.798218e-07
2.635083e-05 -1.745523e-05 -8.233553e-07
2.635083e-05 1.745523e-05 -8.233553e-07
2.971435e-05 -1.046858e-05 -7.422655e-07
2.971435e-05 1.046858e-05 -7.422655e-07
-1.149114e-05 3.111419e-05 -2.443140e-22
-1.018833e-05 -3.115695e-05 -7.895424e-07
-1.366187e-05 -2.974666e-05 -8.233594e-07
2.850883e-05 1.302831e-05 -5.589699e-07
2.850883e-05 -1.302831e-05 -5.589699e-07
6.310946e-06 3.213341e-05 8.140745e-07
-3.241270e-05 3.787611e-06 8.838365e-07
1.441450e-05 2.765859e-05 1.778263e-07
2.926207e-06 3.103976e-05 -8.941051e-08
-1.604228e-05 -2.857474e-05 -7.975237e-07
-2.597906e-05 -1.750101e-05 5.271875e-07
-1.207613e-05 3.089184e-05 -2.443140e-22
-2.794313e-05 -1.463330e-05 7.749877e-07
1.392768e-05 2.834515e-05 8.051908e-07
1.387336e-05 -2.974310e-05 -7.577582e-07
3.060632e-05 6.344079e-06 3.995905e-07
3.060632e-05 -6.344079e-06 3.995905e-07
1.385225e-05 -2.829781e-05 -7.439319e-07
1.335914e-05 2.979837e-05 -8.715997e-07
-4.317606e-07 3.165119e-05 -8.532207e-07
-2.254004e-06 3.157379e-05 -8.532207e-07
2.724513e-05 1.594182e-05 -7.934966e-07
-1.265683e-05 3.065850e-05 -2.443140e-22
2.724513e-05 -1.594182e-05 -7.934966e-07
-2.112283e-05 2.352529e-05 8.293653e-07
-3.121196e-05 -5.029380e-06 8.279672e-07
-1.631821e-05 2.707322e-05 8.254249e-07
-8.683454e-06 3.039475e-05 8.254249e-07
-2.956050e-05 -9.904193e-06 -6.627871e-08
-2.780671e-05 1.409621e-05 -6.627871e-08
-1.125270e-05 -3.073982e-05 -8.228461e-07
3.756385e-06 -3.251843e-05 -8.228541e-07
1.038701e-06 -3.209129e-05 -9.955115e-07
-1.323302e-05 3.041424e-05 -2.443140e-22
-7.559209e-06 3.183423e-05 8.331040e-07
-1.560881e-05 2.875631e-05 8.331040e-07
3.080477e-05 -1.096826e-05 8.460777e-07
3.080477e-05 1.096826e-05 8.460777e-07
-2.006028e-05 2.386660e-05 -8.942581e-08
2.493995e-06 3.266015e-05 8.083802e-07
2.190226e-05 -2.441795e-05 -7.727452e-07
2.190226e-05 2.441795e-05 -7.727452e-07
2.493202e-05 -1.960746e-05 8.889780e-07
2.493202e-05 1.960746e-05 8.889780e-07
-1.380450e-05 3.015916e-05 -2.443140e-22
1.295659e-05 -2.840155e-05 -2.928353e-07
2.729994e-05 1.581901e-05 7.822898e-07
2.729994e-05 -1.581901e-05 7.822898e-07
-2.275048e-05 -2.354220e-05 -8.201119e-07
-2.210693e-05 -2.424757e-05 -7.637076e-07
2.552604e-05 1.858387e-05 7.994702e-07
2.552604e-05 -1.858387e-05 7.994702e-07
1.552680e-05 2.878346e-05 8.428814e-07
1.565008e-05 -2.879030e-05 7.982596e-07
-1.811837e-05 -2.562447e-05 6.116966e-07
-1.437106e-05 2.989333e-05 -2.443140e-22
3.091990e-05 4.798908e-06 4.682225e-07
3.091990e-05 -4.798908e-06 4.682225e-07
8.668520e-07 3.277187e-05 -7.873028e-07
-3.037482e-05 -1.227134e-05 -8.049385e-07
-3.008922e-05 1.301831e-05 -7.862298e-07
-3.170470e-05 -8.345614e-06 -7.862298e-07
-2.818413e-05 1.669941e-05 -8.049385e-07
-1.956934e-05 2.630187e-05 -7.873003e-07
-1.202320e-05 3.049902e-05 -7.873003e-07
-3.642964e-06 3.258030e-05 -7.873003e-07
-1.493251e-05 2.961687e-05 -2.443140e-22
-8.468898e-06 -3.165096e-05 8.016835e-07
-1.524246e-05 -2.900499e-05 8.003609e-07
-1.997065e-05 -2.595044e-05 -8.154953e-07
-2.073610e-05 -2.543476e-05 -7.604724e-07
3.205479e-05 6.595509e-06 8.285308e-07
3.205479e-05 -6.595509e-06 8.285308e-07
2.668689e-05 1.894786e-05 8.264687e-07
2.668689e-05 -1.894786e-05 8.264687e-07
-2.910521e-06 -3.261578e-05 -8.154127e-07
-2.011047e-06 -3.275355e-05 -7.614172e-07
3.257967e-05 6.221275e-06 -2.443140e-22
-1.548864e-05 2.932986e-05 -2.443140e-22
3.233176e-05 5.028646e-06 8.324030e-07
3.233176e-05 -5.028646e-06 8.324030e-07
2.370886e-05 2.066636e-05 6.912177e-07
2.370886e-05 -2.066636e-05 6.912177e-07
-1.852590e-05 -2.701694e-05 8.059576e-07
-1.522647e-05 2.727919e-05 3.610186e-07
-7.575800e-06 3.030853e-05 3.610186e-07
-1.394104e-06 3.277542e-05 -7.699127e-07
-9.903782e-06 3.128210e-05 -7.637902e-07
-1.772789e-05 2.761117e-05 -7.637902e-07
-1.603926e-05 2.903241e-05 -2.443140e-22
-3.093809e-05 1.093112e-05 -7.637902e-07
-2.701085e-05 1.862978e-05 -7.637902e-07
-3.223006e-05 -6.154516e-06 -7.637902e-07
1.177351e-05 -2.932640e-05 8.190182e-07
3.764105e-06 3.128725e-05 -7.496857e-07
-3.001549e-05 9.599250e-06 -7.498926e-07
6.329595e-06 -3.210345e-05 -8.317376e-07
-3.189078e-05 7.558789e-06 7.942208e-07
-2.238177e-05 2.232800e-05 8.279902e-07
-3.144071e-05 -3.311303e-06 8.279902e-07
-1.658417e-05 2.872463e-05 -2.443140e-22
3.025897e-05 -9.227711e-06 8.411563e-07
3.025897e-05 9.227711e-06 8.411563e-07
1.120262e-05 3.071753e-05 -8.477110e-07
2.114372e-05 -2.502410e-05 8.044117e-07
2.114372e-05 2.502410e-05 8.044117e-07
3.182839e-05 7.778727e-06 -8.011216e-07
3.182839e-05 -7.778727e-06 -8.011216e-07
1.100059e-05 -3.086076e-05 8.028756e-07
7.542012e-07 -3.271235e-05 8.320282e-07
-2.911283e-06 -3.259128e-05 8.320252e-07
-1.712318e-05 2.840661e-05 -2.443140e-22
3.081282e-06 3.255799e-05 -8.433895e-07
-5.831296e-06 3.217940e-05 -8.433774e-07
-1.403095e-05 2.954065e-05 -8.433773e-07
-3.203315e-05 6.587503e-06 -8.433773e-07
-3.262169e-05 2.311513e-06 -8.433773e-07
-2.125722e-05 2.485254e-05 -8.433773e-07
-3.265950e-05 -1.695618e-06 -8.433773e-07
-2.413721e-05 2.206611e-05 -8.433773e-07
7.039247e-06 3.193725e-05 -8.431750e-07
2.654935e-05 -1.916024e-05 -8.183793e-07
-1.765608e-05 2.807849e-05 -2.443140e-22
2.654935e-05 1.916024e-05 -8.183793e-07
-8.863081e-06 -3.045258e-05 8.878155e-07
3.194558e-05 -7.536638e-06 7.551517e-07
3.194558e-05 7.536638e-06 7.551517e-07
-1.415326e-05 -2.836144e-05 8.776324e-07
1.120907e-05 -2.935701e-05 -6.613736e-07
3.016756e-05 -7.931502e-06 -1.959020e-07
3.016756e-05 7.931502e-06 -1.959020e-07
2.382637e-05 2.245347e-05 8.197447e-07
2.382637e-05 -2.245347e-05 8.197447e-07
-1.818271e-05 2.774037e-05 -2.443140e-22
1.449038e-05 -2.762727e-05 2.147363e-07
3.102038e-05 3.249863e-06 -1.822423e-07
3.102038e-05 -3.249863e-06 -1.822423e-07
-3.100003e-05 -1.042970e-05 -8.408292e-07
-2.907917e-05 1.497272e-05 -8.408292e-07
1.713356e-05 2.795560e-05 -7.833959e-07
1.713356e-05 -2.795560e-05 -7.833959e-07
-1.705273e-05 -2.684310e-05 9.266627e-07
2.613800e-06 -3.266873e-05 -7.951421e-07
-2.098976e-05 -2.364920e-05 -8.319101e-07
-1.870286e-05 2.739237e-05 -2.443140e-22
-2.030730e-05 -2.421699e-05 -8.211605e-07
2.945688e-05 1.442981e-05 -7.729708e-07
2.945688e-05 -1.442981e-05 -7.729708e-07
3.274655e-05 8.338772e-07 8.069843e-07
3.274655e-05 -8.338772e-07 8.069843e-07
-5.947841e-06 -3.223576e-05 -7.899722e-07
-2.533767e-05 2.083618e-05 7.702630e-07
-3.276285e-05 -3.236633e-07 8.016376e-07
9.903209e-06 3.123197e-05 8.016379e-07
-2.288401e-05 -2.237497e-05 -9.835948e-07
-1.921635e-05 2.703462e-05 -2.443140e-22
2.211364e-05 2.266269e-05 8.591314e-07
2.211364e-05 -2.266269e-05 8.591314e-07
1.598345e-05 2.681558e-05 -2.941465e-07
1.598345e-05 -2.681558e-05 -2.941465e-07
-2.559245e-05 1.875508e-05 8.942619e-07
2.954863e-05 -1.045370e-05 5.568786e-07
2.954863e-05 1.045370e-05 5.568786e-07
-8.645492e-06 3.034423e-05 -7.821543e-07
-1.626838e-05 2.703436e-05 -7.821543e-07
-3.114677e-05 -4.938797e-06 -7.692914e-07
-1.972300e-05 2.666725e-05 -2.443140e-22
-2.110495e-05 2.343882e-05 -7.729933e-07
3.256408e-05 4.154212e-06 7.504360e-07
3.256408e-05 -4.154212e-06 7.504360e-07
-7.648244e-06 -3.189306e-05 -7.762353e-07
-2.743132e-05 -1.797050e-05 -7.792560e-07
3.651553e-06 -3.262266e-05 7.518354e-07
1.860229e-05 2.563579e-05 8.649052e-07
1.860229e-05 -2.563579e-05 8.649052e-07
-1.117188e-05 -3.084703e-05 7.676633e-07
9.743454e-06 2.970499e-05 4.113657e-07
-2.022262e-05 2.629038e-05 -2.443140e-22
-1.276300e-05 -3.026473e-05 7.344356e-07
-3.125629e-05 -6.173089e-07 4.119125e-07
-6.170078e-07 -3.163980e-05 -8.481266e-07
-1.499927e-06 -3.158253e-05 -8.303476e-07
9.221125e-06 -3.141570e-05 -8.184626e-07
3.119639e-05 -1.019631e-05 7.570057e-07
3.119639e-05 1.019631e-05 7.570057e-07
2.879306e-05 1.318081e-05 8.606518e-07
2.879306e-05 -1.318081e-05 8.606518e-07
1.836375e-05 -2.716944e-05 7.793879e-07
3.245649e-05 6.834858e-06 -2.443140e-22
-2.071505e-05 2.590416e-05 -2.443140e-22
1.836375e-05 2.716944e-05 7.793879e-07
2.995273e-05 1.330914e-05 7.925699e-07
3.033030e-05 1.251590e-05 7.648075e-07
2.995273e-05 -1.330914e-05 7.925699e-07
3.033030e-05 -1.251590e-05 7.648075e-07
3.957207e-07 3.123476e-05 -3.512773e-07
-3.043201e-06 3.108868e-05 -3.512799e-07
1.534062e-05 -2.904248e-05 -7.351098e-07
-2.482638e-07 -3.278181e-05 -7.877578e-07
2.274881e-05 2.158204e-05 5.774417e-07
-2.120011e-05 2.550871e-05 -2.443140e-22
2.274881e-05 -2.158204e-05 5.774417e-07
-2.527466e-06 3.137239e-05 7.137425e-07
-1.422157e-07 3.147371e-05 7.137403e-07
2.498824e-05 -2.122836e-05 7.836215e-07
2.498824e-05 2.122836e-05 7.836215e-07
-1.324492e-06 3.117942e-05 -2.588580e-07
3.143135e-05 -4.122209e-06 -8.796361e-07
3.143135e-05 4.122209e-06 -8.796361e-07
[...]
POINT_DATA 4160
VECTORS 10.000GHz_fone_imag double
-2.419591e-05 -4.044442e-06 1.808340e-02
-7.529583e-05 -2.402836e-04 1.792578e-02
-3.986158e-04 3.594966e-04 1.812222e-02
-8.910687e-03 -1.829238e-02 -3.735130e-03
9.821182e-03 -9.293373e-03 -1.797868e-02
9.820951e-03 9.292971e-03 -1.797825e-02
4.153834e-04 2.055408e-05 -2.280745e-02
-1.332710e-02 3.160269e-03 -1.765931e-02
-1.332615e-02 -3.160594e-03 -1.765840e-02
2.995890e-03 -1.721159e-02 8.354146e-03
7.328316e-03 -1.579539e-02 8.346550e-03
2.465551e-03 1.594787e-02 1.001442e-02
1.523200e-02 -1.737984e-03 1.094327e-02
4.230069e-05 -1.029217e-04 1.796827e-02
1.526705e-02 1.716490e-03 1.087629e-02
7.919953e-03 1.397172e-02 -1.528863e-02
7.975309e-03 -1.450633e-02 -1.470347e-02
1.248086e-02 -8.119327e-03 1.120867e-02
1.248093e-02 8.119145e-03 1.120888e-02
1.488094e-02 1.965050e-03 1.083897e-02
1.018650e-02 -1.088970e-02 1.106020e-02
5.888105e-04 -4.431131e-03 -2.249482e-02
7.854642e-03 1.000412e-02 -1.836168e-02
7.852964e-03 -1.001136e-02 -1.836985e-02
6.401847e-05 -1.613165e-04 1.800268e-02
-6.871562e-03 -1.059216e-02 -1.871223e-02
-6.913591e-03 1.067617e-02 -1.870288e-02
-6.980371e-03 -1.659360e-02 -1.221829e-02
3.602734e-04 -1.733223e-02 8.668218e-03
1.612411e-02 5.371487e-03 8.843192e-03
1.518186e-02 -7.761687e-03 8.822398e-03
1.453303e-02 -1.010002e-02 -1.269250e-02
1.453292e-02 1.009978e-02 -1.269255e-02
1.535698e-02 -5.448991e-03 -1.489220e-02
1.535720e-02 5.449201e-03 -1.489173e-02
-2.486717e-04 -5.187077e-05 1.809883e-02
-4.914749e-03 -1.486206e-02 1.101137e-02
-6.630676e-03 -1.436555e-02 1.024571e-02
1.160600e-02 5.245238e-03 -1.855056e-02
1.160656e-02 -5.245393e-03 -1.854998e-02
-3.530687e-03 -1.547908e-02 1.038498e-02
1.721898e-02 -1.883412e-03 8.571212e-03
-1.849552e-03 -3.278892e-03 -2.228458e-02
2.324033e-04 1.936763e-03 -2.283964e-02
-7.640588e-03 -1.349062e-02 1.098293e-02
9.998270e-03 6.888562e-03 -1.905678e-02
1.297474e-04 -3.209089e-04 1.789371e-02
1.495634e-02 7.933240e-03 -1.412728e-02
-7.345559e-03 -1.543187e-02 -1.324191e-02
6.293186e-03 -1.302478e-02 1.158867e-02
-8.648586e-03 -1.628024e-03 -2.103724e-02
-8.648860e-03 1.625932e-03 -2.104121e-02
7.092762e-03 -1.470462e-02 -1.490420e-02
6.844442e-03 1.536708e-02 8.961990e-03
2.130526e-04 1.806848e-02 -1.154791e-02
-1.489633e-03 1.817990e-02 -1.165763e-02
1.481075e-02 8.626709e-03 -1.341102e-02
1.915256e-04 -4.169431e-04 1.797420e-02
1.481074e-02 -8.626854e-03 -1.341097e-02
1.169771e-02 -1.308102e-02 -1.250896e-02
1.753804e-02 2.608548e-03 -1.243971e-02
8.873348e-03 -1.489543e-02 -1.292765e-02
4.699556e-03 -1.669485e-02 -1.295352e-02
-1.552056e-03 -5.412996e-04 -2.297432e-02
-1.377793e-03 5.508910e-04 -2.287466e-02
-5.569391e-03 -1.500241e-02 1.013545e-02
1.924701e-03 -1.588188e-02 1.023351e-02
5.541468e-04 -2.022808e-02 -1.894446e-03
3.517186e-04 3.125847e-05 1.807895e-02
3.747444e-03 -1.597014e-02 1.011118e-02
7.776554e-03 -1.442505e-02 1.012286e-02
-1.519804e-02 5.528539e-03 9.739948e-03
-1.519785e-02 -5.528587e-03 9.740333e-03
-1.074492e-03 1.495609e-03 -2.288891e-02
-1.120032e-03 -1.580223e-02 1.069982e-02
1.022723e-02 -1.100121e-02 1.112522e-02
1.022798e-02 1.100118e-02 1.112599e-02
-1.518554e-02 1.177035e-02 -9.884164e-03
-1.518498e-02 -1.176957e-02 -9.884823e-03
-1.061163e-04 2.606207e-04 1.805148e-02
2.758062e-03 -6.238294e-03 -2.175267e-02
-1.472254e-02 -8.549636e-03 -1.374251e-02
-1.472239e-02 8.549666e-03 -1.374273e-02
-1.104783e-02 -1.119947e-02 1.056686e-02
-1.025627e-02 -1.080010e-02 1.155652e-02
-1.404651e-02 -1.017326e-02 -1.353723e-02
-1.404659e-02 1.017350e-02 -1.353729e-02
-7.836285e-03 -1.437670e-02 9.598017e-03
-7.409304e-03 1.343274e-02 1.068564e-02
8.759912e-03 1.148630e-02 -1.731524e-02
8.148221e-05 2.353874e-04 1.798254e-02
-1.037423e-02 -1.856474e-03 -1.970192e-02
-1.038424e-02 1.843099e-03 -1.970501e-02
1.565085e-04 1.504113e-02 1.116418e-02
-1.426069e-02 -5.971814e-03 1.076448e-02
-1.398837e-02 5.881007e-03 1.114956e-02
-1.461730e-02 -3.754638e-03 1.124942e-02
-1.338370e-02 8.032073e-03 1.059101e-02
-8.733166e-03 1.225451e-02 1.134440e-02
-5.535093e-03 1.413859e-02 1.130076e-02
-1.479993e-03 1.502434e-02 1.118505e-02
-4.204301e-04 1.626586e-04 1.805023e-02
4.034457e-03 1.504721e-02 1.058665e-02
7.340885e-03 1.365323e-02 1.040810e-02
-9.132160e-03 -1.255203e-02 1.072839e-02
-9.359517e-03 -1.156191e-02 1.161620e-02
-1.576794e-02 -3.395927e-03 9.783712e-03
-1.576475e-02 3.394849e-03 9.784935e-03
-1.330612e-02 -9.012238e-03 9.994764e-03
-1.330594e-02 9.012222e-03 9.994455e-03
-1.358348e-03 -1.556413e-02 1.024527e-02
-9.424854e-04 -1.477074e-02 1.162978e-02
-4.585347e-06 -6.155683e-05 1.795832e-02
2.105074e-04 1.652948e-04 1.795274e-02
-1.569872e-02 -2.388984e-03 9.813068e-03
-1.568632e-02 2.384332e-03 9.805917e-03
-1.119804e-02 -9.844335e-03 -1.667293e-02
-1.119825e-02 9.844485e-03 -1.667333e-02
8.253086e-03 1.269167e-02 1.076107e-02
3.608442e-03 -6.347598e-03 -2.121819e-02
1.833932e-03 -7.056248e-03 -2.122432e-02
-5.996360e-04 1.524410e-02 1.158889e-02
-4.610837e-03 1.399700e-02 1.145711e-02
-8.115603e-03 1.231638e-02 1.145597e-02
-1.581419e-04 2.101464e-04 1.807477e-02
-1.389353e-02 5.095051e-03 1.136509e-02
-1.199017e-02 8.484506e-03 1.153598e-02
-1.448744e-02 -2.800829e-03 1.143280e-02
-6.894295e-03 1.633630e-02 -1.295310e-02
1.773553e-03 1.618018e-02 -1.484052e-02
-1.530881e-02 4.605287e-03 -1.522179e-02
3.060388e-03 -1.566367e-02 1.032459e-02
1.482511e-02 -3.206351e-03 1.113148e-02
1.263038e-02 -1.244753e-02 -1.258594e-02
1.769594e-02 1.778591e-03 -1.258696e-02
-1.627634e-04 -2.447828e-06 1.802293e-02
-1.720590e-02 5.240721e-03 -1.223293e-02
-1.720518e-02 -5.241022e-03 -1.223278e-02
5.612335e-03 1.524610e-02 9.383481e-03
-1.043817e-02 1.159786e-02 1.083730e-02
-1.044005e-02 -1.159876e-02 1.083839e-02
1.476478e-02 3.258351e-03 1.118931e-02
1.476490e-02 -3.257249e-03 1.118909e-02
-5.120843e-03 1.478943e-02 1.039604e-02
-3.623906e-04 1.603365e-02 9.937369e-03
1.396223e-03 1.592820e-02 9.964485e-03
-4.855397e-05 2.904671e-04 1.826503e-02
1.635944e-03 1.618921e-02 9.700132e-03
-2.975326e-03 1.603011e-02 9.526741e-03
-6.940851e-03 1.471994e-02 9.486676e-03
-1.615328e-02 3.410468e-03 9.412113e-03
-1.638562e-02 1.203763e-03 9.552889e-03
-1.053212e-02 1.261228e-02 9.779510e-03
-1.628710e-02 -1.022581e-03 9.640039e-03
-1.183296e-02 1.106105e-02 9.751975e-03
3.667029e-03 1.598951e-02 9.485817e-03
1.320303e-02 -8.946634e-03 1.016636e-02
-4.769185e-04 2.421033e-04 1.812014e-02
1.320318e-02 8.946506e-03 1.016646e-02
5.115786e-03 1.784836e-02 -1.007496e-02
-1.408855e-02 3.232255e-03 1.158226e-02
-1.408981e-02 -3.233328e-03 1.158240e-02
8.500922e-03 1.647591e-02 -1.028758e-02
5.470293e-03 -1.316892e-02 -1.696376e-02
4.198730e-03 -1.194556e-03 -2.237701e-02
4.198470e-03 1.194117e-03 -2.237557e-02
-1.123018e-02 -1.060282e-02 1.044635e-02
-1.122984e-02 1.060268e-02 1.044616e-02
6.295067e-05 -9.176424e-05 1.796402e-02
-2.047300e-03 4.076897e-03 -2.236601e-02
4.024719e-03 2.956680e-04 -2.240891e-02
3.990773e-03 -3.089480e-04 -2.244894e-02
-1.529017e-02 -5.307353e-03 9.646529e-03
-1.432899e-02 7.423011e-03 9.640078e-03
7.852129e-03 1.297809e-02 1.101956e-02
8.111363e-03 -1.279336e-02 1.099268e-02
1.007220e-02 1.664696e-02 -8.564171e-03
1.335495e-03 -1.538461e-02 1.051817e-02
-1.185930e-02 -1.318058e-02 -1.265802e-02
1.121434e-04 -1.410994e-04 1.797802e-02
-1.141085e-02 -1.358255e-02 -1.274708e-02
1.293965e-02 6.443318e-03 1.116110e-02
1.293981e-02 -6.443368e-03 1.116091e-02
-1.582496e-02 -5.253706e-04 1.022605e-02
-1.577438e-02 6.353224e-04 1.038649e-02
-2.734897e-03 -1.502815e-02 1.104568e-02
1.145675e-02 -9.680775e-03 1.121996e-02
1.535623e-02 2.081437e-04 1.081065e-02
-4.923892e-03 -1.446472e-02 1.106978e-02
-1.470851e-02 -1.440161e-02 -4.027344e-03
-1.264146e-04 -5.057754e-05 1.804549e-02
-1.280593e-02 -1.321264e-02 -1.162560e-02
-1.280545e-02 1.321309e-02 -1.162515e-02
3.482150e-03 5.400660e-03 -2.184140e-02
3.400289e-03 -5.268844e-03 -2.183598e-02
1.551322e-02 -1.135285e-02 -9.986647e-03
-1.173504e-02 4.227260e-03 -1.870191e-02
-1.173493e-02 -4.227573e-03 -1.870163e-02
-4.555976e-03 1.594180e-02 -1.393896e-02
-8.526813e-03 1.419748e-02 -1.393471e-02
-1.672557e-02 -2.676060e-03 -1.439458e-02
2.905498e-04 -2.207114e-04 1.782586e-02
-1.122773e-02 1.234542e-02 -1.465126e-02
-1.430915e-02 -1.856519e-03 1.161777e-02
-1.423733e-02 1.863800e-03 1.156764e-02
-3.577473e-03 -1.473145e-02 1.124672e-02
-1.251326e-02 -8.257512e-03 1.130151e-02
-1.704903e-03 1.416781e-02 1.188166e-02
-1.092446e-02 -1.495053e-02 -1.148558e-02
-1.091401e-02 1.497653e-02 -1.147858e-02
4.646656e-03 1.360930e-02 1.173916e-02
-2.756975e-03 -8.429809e-03 -2.097910e-02
1.524084e-04 -6.002626e-05 1.810133e-02
5.450654e-03 1.313759e-02 1.204939e-02
8.798214e-03 4.206284e-04 -2.082045e-02
-2.928513e-04 -1.796896e-02 -1.201635e-02
-8.049172e-04 -1.768175e-02 -1.265180e-02
4.412459e-03 -1.512416e-02 1.019076e-02
-1.377223e-02 4.434338e-03 1.175579e-02
-1.377226e-02 -4.434624e-03 1.175616e-02
-1.657251e-02 -7.942337e-03 -1.159753e-02
-1.657271e-02 7.942429e-03 -1.159771e-02
-8.274723e-03 1.220191e-02 1.125778e-02
2.048571e-04 1.478790e-04 1.801346e-02
3.134993e-04 4.119729e-05 1.816292e-02
-8.339887e-03 -1.222814e-02 1.117486e-02
-1.376329e-02 -6.243509e-03 1.103256e-02
-1.365841e-02 -5.814085e-03 1.126621e-02
-1.376324e-02 6.243515e-03 1.103263e-02
-1.365858e-02 5.814252e-03 1.126604e-02
3.296984e-04 7.562216e-03 -2.134689e-02
-7.938959e-04 7.536156e-03 -2.128014e-02
6.255372e-03 -1.211809e-02 1.231172e-02
-3.462751e-05 -1.533864e-02 1.099001e-02
-9.539082e-03 -8.880689e-03 -1.845239e-02
-3.004585e-04 1.119006e-04 1.804126e-02
-9.539110e-03 8.880930e-03 -1.845291e-02
1.475848e-03 -1.528415e-02 -1.579688e-02
1.261958e-04 -1.557401e-02 -1.598556e-02
-1.157088e-02 9.647597e-03 1.105858e-02
-1.157133e-02 -9.648555e-03 1.105836e-02
-3.370709e-04 6.106620e-03 -2.195502e-02
1.858290e-02 -2.443459e-03 -1.057840e-02
1.855830e-02 2.444521e-03 -1.057345e-02
6.485431e-03 -1.309812e-02 1.190423e-02
2.886889e-03 -1.425744e-02 1.206614e-02
1.213758e-04 -4.797365e-04 1.799801e-02
5.180278e-03 -1.437525e-02 -1.604257e-02
8.730206e-03 -1.240215e-02 -1.609775e-02
1.409086e-02 6.283104e-03 -1.609161e-02
1.491598e-02 3.426922e-03 -1.598651e-02
1.304912e-02 -8.281870e-03 -1.589330e-02
1.428376e-02 -5.563681e-03 -1.598841e-02
-2.709276e-03 7.121571e-03 -2.148212e-02
-7.403741e-03 -1.756670e-03 -2.141620e-02
-6.699630e-03 4.303131e-03 -2.123169e-02
-4.588923e-03 6.262730e-03 -2.143252e-02
3.911049e-04 -2.983765e-04 1.792896e-02
-7.086703e-03 2.922202e-03 -2.139312e-02
-7.154135e-03 -2.969261e-03 -2.149675e-02
-1.256678e-02 -4.728104e-03 -1.787335e-02
-1.256673e-02 4.728026e-03 -1.787358e-02
1.368491e-02 4.414692e-03 1.222444e-02
1.294984e-02 -6.422099e-03 1.235231e-02
9.511869e-04 -1.402241e-02 1.219589e-02
1.712125e-02 3.173756e-03 -1.328107e-02
1.712772e-02 -3.174731e-03 -1.328480e-02
-6.843672e-03 -1.856743e-02 -6.738519e-03
4.534167e-05 4.267573e-04 1.798271e-02
2.519972e-03 -1.988318e-02 -6.558211e-03
1.839700e-02 4.055877e-03 -1.078770e-02
1.840172e-02 -4.055762e-03 -1.078481e-02
-1.584889e-02 -1.177855e-03 -1.518062e-02
-1.593848e-02 1.082728e-03 -1.533147e-02
-1.143414e-02 -1.312272e-02 -1.367450e-02
-1.143403e-02 1.312393e-02 -1.367554e-02
1.216291e-02 1.467643e-02 -8.799777e-03
1.578610e-02 -5.369293e-03 -1.417164e-02
-1.563961e-03 -1.677323e-02 -1.421523e-02
-4.150020e-04 -3.554052e-04 1.788187e-02
-1.650710e-02 -1.114269e-02 -7.458357e-03
-2.864346e-03 7.389257e-03 -2.113750e-02
4.724527e-03 -1.998437e-02 -1.234286e-03
2.908196e-04 -1.474351e-02 1.149231e-02
1.747915e-03 -1.024395e-03 -2.302970e-02
1.747979e-03 1.024404e-03 -2.302961e-02
9.382007e-03 1.133481e-02 1.164741e-02
1.158690e-02 9.323304e-03 1.147673e-02
-1.356687e-03 -5.107953e-03 -2.187314e-02
-2.505481e-03 -4.603986e-03 -2.202261e-02
3.758266e-04 -3.958875e-04 1.788461e-02
7.184572e-03 1.498965e-02 -1.430981e-02
1.328403e-02 7.323801e-03 1.088723e-02
-1.461170e-02 -7.441889e-03 -1.482847e-02
2.031680e-02 -4.073923e-04 -2.652955e-03
2.030627e-02 4.474901e-04 -2.668252e-03
1.047865e-02 -1.041468e-02 1.149350e-02
1.047877e-02 1.041459e-02 1.149395e-02
-2.436610e-03 -1.636178e-02 -1.450261e-02
1.581737e-02 -4.601481e-03 -1.456045e-02
-1.738420e-02 -4.036285e-03 -1.200276e-02
3.378707e-04 3.968714e-04 1.785688e-02
-1.522492e-02 9.529849e-03 -1.192605e-02
-1.635036e-02 -7.219684e-03 -1.206702e-02
-1.678362e-02 6.750339e-03 -1.143983e-02
-1.018191e-02 1.458393e-02 -1.211632e-02
-5.984612e-03 1.675418e-02 -1.207820e-02
1.327214e-02 -2.044966e-03 1.281877e-02
1.326966e-02 2.055598e-03 1.281379e-02
2.639845e-03 1.409095e-02 1.186900e-02
-6.289404e-03 -1.334499e-02 1.109009e-02
1.058970e-02 8.706573e-03 1.281812e-02
-1.675323e-04 -1.582820e-05 1.783508e-02
-7.011376e-03 -1.757561e-02 -9.568337e-03
2.870431e-03 -1.935859e-02 -8.718428e-03
-5.619033e-03 -1.369349e-02 1.134480e-02
1.484350e-02 1.160386e-03 1.112014e-02
1.084314e-02 -1.005306e-02 1.114330e-02
2.548341e-04 1.401620e-02 1.251847e-02
1.200058e-02 1.596511e-02 -5.782736e-03
1.206494e-02 1.380677e-02 -1.118508e-02
1.206581e-02 -1.380858e-02 -1.118492e-02
3.648176e-03 -1.415373e-02 1.190870e-02
-7.577011e-05 3.127439e-04 1.803977e-02
7.189492e-03 -1.270238e-02 1.189675e-02
-1.229597e-02 1.191991e-02 -1.354299e-02
-1.748989e-02 -1.525464e-03 -1.319873e-02
-9.756496e-03 -9.808586e-03 1.231754e-02
-9.756045e-03 9.808398e-03 1.231726e-02
6.448451e-03 1.615993e-02 -1.303445e-02
1.465841e-02 -1.175523e-02 -1.077663e-02
9.597791e-03 1.623822e-02 -1.086827e-02
3.368048e-04 -3.433144e-03 -2.261581e-02
1.292029e-02 -3.897947e-03 1.293017e-02
3.886729e-05 4.520523e-05 1.788226e-02
-1.137077e-05 1.711838e-05 1.817650e-02
2.339546e-03 -1.411043e-02 1.223508e-02
-8.350236e-03 -1.497897e-02 -1.381248e-02
-8.357124e-03 1.519064e-02 -1.365235e-02
7.676012e-03 -4.650770e-03 -2.105491e-02
7.675808e-03 4.650685e-03 -2.105463e-02
-1.182150e-02 -6.441647e-03 -1.809464e-02
-1.696483e-03 -1.326771e-02 1.288327e-02
3.664159e-03 1.781627e-02 -1.147100e-02
-5.923744e-03 1.674318e-02 -1.270629e-02
8.116909e-03 2.492867e-04 -2.135569e-02
-3.723695e-04 1.987187e-04 1.814578e-02
8.173718e-03 -2.784771e-04 -2.130412e-02
-1.214675e-03 1.397200e-02 1.234542e-02
-3.553444e-03 -5.323511e-03 -2.174531e-02
-6.984316e-03 -1.177050e-02 1.239432e-02
-7.133358e-03 1.182934e-02 1.239168e-02
9.832707e-03 1.044069e-02 1.198503e-02
7.881106e-03 4.691933e-03 -2.088494e-02
4.014386e-03 5.346189e-03 -2.191651e-02
4.015443e-03 -5.356725e-03 -2.193724e-02
-6.250434e-03 1.319584e-02 1.174633e-02
8.369393e-05 -2.852527e-04 1.823890e-02
-7.710504e-03 1.533172e-02 -1.379454e-02
-5.756963e-03 1.214871e-02 -1.808495e-02
-4.929629e-03 -8.862290e-03 -2.038388e-02
-5.559888e-03 -1.293837e-02 1.240157e-02
4.668733e-03 -1.781045e-02 -1.144674e-02
1.237248e-02 9.577055e-03 -1.577834e-02
1.237267e-02 -9.577412e-03 -1.577843e-02
-5.362998e-04 3.343830e-03 -2.282860e-02
-1.287884e-03 2.762309e-03 -2.289094e-02
1.431619e-02 3.854225e-03 1.164124e-02
3.904043e-04 -3.392200e-04 1.822691e-02
1.431566e-02 -3.853661e-03 1.164037e-02
-4.601111e-03 1.377839e-02 1.203742e-02
-1.074933e-02 -6.502277e-03 1.362358e-02
-1.074932e-02 6.502206e-03 1.362343e-02
-1.225278e-02 -1.652826e-02 -1.639145e-03
1.700181e-02 -3.823757e-03 -1.373852e-02
-3.094282e-03 -1.097176e-02 -1.954088e-02
-3.665671e-03 -1.709666e-02 -1.354378e-02
-1.300721e-02 -6.231987e-03 1.249327e-02
1.775892e-02 -1.602263e-03 -1.288027e-02
2.420783e-04 5.280494e-05 1.818968e-02
1.227808e-02 -6.807968e-03 1.225072e-02
1.227791e-02 6.807890e-03 1.225106e-02
1.107538e-02 8.835001e-03 -1.752058e-02
4.292453e-03 1.337460e-02 1.199847e-02
5.774847e-03 1.253228e-02 1.234598e-02
-1.490420e-02 -1.463551e-02 -4.775524e-03
1.274186e-02 -1.279347e-03 1.395287e-02
-2.437729e-03 -2.027978e-02 -1.352659e-03
-2.610515e-03 -2.143369e-03 -2.268576e-02
-3.015822e-03 1.354010e-02 1.212754e-02
3.435089e-04 -8.723223e-05 1.807337e-02
9.649613e-03 -8.563945e-03 1.307973e-02
9.649643e-03 8.563922e-03 1.308021e-02
6.777439e-03 1.717902e-02 -1.073328e-02
-2.869548e-03 1.837691e-02 -1.024619e-02
-6.026991e-03 5.428543e-03 -2.155645e-02
-9.988965e-03 -4.331550e-04 -2.062930e-02
-5.509360e-03 1.815179e-02 -1.036332e-02
-5.166778e-03 -1.741176e-02 -1.172210e-02
8.132834e-04 1.635351e-02 -1.449396e-02
2.757669e-05 1.733382e-02 -1.367812e-02
-1.396991e-05 6.736086e-05 1.792766e-02
1.115080e-02 8.106088e-03 1.218051e-02
1.829165e-02 -1.371216e-04 -1.152953e-02
-1.023790e-03 -1.115380e-02 -1.950761e-02
1.992980e-04 -1.115393e-02 -1.953778e-02
7.259469e-04 1.971335e-02 -7.086273e-03
-1.948401e-02 -4.970749e-03 -7.127012e-03
-1.829297e-02 7.577526e-03 -7.067191e-03
-1.843687e-02 -7.462272e-03 -7.301116e-03
-1.175654e-02 1.603306e-02 -7.280698e-03
-1.707810e-02 1.036317e-02 -7.182711e-03
-2.206239e-05 -2.593143e-04 1.790321e-02
-7.383341e-03 1.857602e-02 -7.240168e-03
-2.435383e-03 1.963065e-02 -7.099831e-03
1.008199e-04 -6.175003e-04 -2.298240e-02
3.433385e-03 9.194413e-03 -2.059448e-02
3.379043e-03 -3.949043e-04 -2.268220e-02
9.463266e-03 9.224825e-03 1.307658e-02
-1.174592e-02 -6.443173e-03 1.279422e-02
4.929889e-03 -1.302771e-02 1.236612e-02
-1.152371e-02 -5.670541e-03 1.341349e-02
-1.152376e-02 5.670565e-03 1.341344e-02
1.831585e-04 6.726011e-05 1.803585e-02
-1.652582e-02 -4.361716e-04 -1.453401e-02
-1.648067e-02 4.128680e-04 -1.452632e-02
-1.263075e-02 -8.986215e-04 1.351481e-02
-1.250802e-02 7.174084e-04 1.372900e-02
-6.557869e-03 -1.786889e-02 -1.012970e-02
1.919329e-03 -1.992756e-02 -5.877519e-03
1.924263e-02 4.967520e-03 -7.117641e-03
1.817839e-02 -7.774407e-03 -7.689277e-03
1.677784e-02 -1.027315e-02 -7.673206e-03
1.835481e-02 7.668087e-03 -7.235374e-03
3.161881e-05 -4.537910e-05 1.804186e-02
-1.922593e-04 -2.015802e-02 -5.796793e-03
-9.710293e-03 -8.655446e-03 1.338344e-02
-1.120643e-02 -1.446256e-02 -1.214775e-02
-1.120147e-02 1.446828e-02 -1.215071e-02
1.813508e-02 -2.620300e-03 -1.220043e-02
-3.371959e-03 1.816883e-02 -1.100662e-02
-1.077862e-02 -6.690512e-03 -1.832340e-02
-1.077837e-02 6.690632e-03 -1.832354e-02
1.031384e-02 1.734246e-02 -5.282643e-03
7.110329e-03 -1.852436e-02 -7.213086e-03
-4.586143e-04 1.944505e-04 1.788685e-02
1.545997e-04 2.309971e-04 1.821250e-02
1.153507e-02 -1.616584e-02 -7.017316e-03
-1.733006e-02 -1.045285e-02 -6.496053e-03
1.904520e-02 1.128912e-03 -1.008196e-02
1.431886e-02 -1.278628e-02 -9.185371e-03
1.482286e-02 7.698952e-03 -1.471418e-02
1.482276e-02 -7.698957e-03 -1.471423e-02
-4.308740e-03 1.932495e-02 -6.481247e-03
1.879482e-04 1.338257e-02 1.304574e-02
-1.293645e-02 -3.091933e-03 1.314895e-02
-1.234732e-02 4.933104e-03 1.307712e-02
-4.017070e-04 2.748244e-04 1.817327e-02
-1.221839e-02 -5.304439e-03 1.305831e-02
-1.123512e-02 7.094863e-03 1.323225e-02
-7.741688e-03 1.083021e-02 1.315046e-02
-4.630877e-03 1.251551e-02 1.316372e-02
-1.214208e-03 1.335537e-02 1.312902e-02
-1.388704e-04 8.631311e-04 -2.288945e-02
1.343495e-02 1.389580e-02 -9.083949e-03
-8.366561e-03 -1.161663e-02 1.203159e-02
-8.306030e-03 1.160673e-02 1.204257e-02
3.392067e-03 -1.539989e-02 -1.518920e-02
-2.917586e-04 -7.865961e-05 1.803320e-02
7.314845e-03 -1.388128e-02 -1.520453e-02
-8.423439e-03 -5.658832e-03 -2.025745e-02
-8.423673e-03 5.658917e-03 -2.025766e-02
5.694631e-03 1.901666e-02 -6.852959e-03
8.674861e-03 1.793708e-02 -6.833870e-03
3.669855e-03 -1.703099e-02 -1.317391e-02
8.002548e-03 -1.548466e-02 -1.312607e-02
6.865141e-03 -1.171769e-02 1.289989e-02
6.742353e-03 1.169292e-02 1.300621e-02
1.035460e-02 -1.629802e-02 -1.000075e-02
-2.160934e-04 7.604118e-04 1.796376e-02
1.027822e-02 1.625269e-02 -1.002072e-02
-4.045740e-03 -1.077886e-02 -1.962529e-02
6.585723e-03 -4.650807e-03 -2.119994e-02
-4.688737e-03 1.807283e-02 -1.096304e-02
-3.116126e-03 2.490747e-03 -2.257381e-02
1.124781e-02 -1.555163e-02 -9.139255e-03
1.125324e-02 1.553791e-02 -9.137584e-03
-7.799045e-03 -1.137750e-02 -1.742766e-02
1.172880e-02 8.075672e-04 -1.924573e-02
8.752569e-03 -8.140218e-03 -1.923083e-02
-6.575297e-04 -9.530744e-05 1.816540e-02