# vtk DataFile Version 2.0
Electric current density generated by TTH
ASCII
DATASET UNSTRUCTURED_GRID
POINTS 12523 double
1.500000e-05 0.000000e+00 -1.000000e-07
1.498146e-05 7.454706e-07 -1.000000e-07
5.822659e-06 1.382377e-05 -1.000000e-07
1.423574e-05 4.726903e-06 1.000000e-07
-2.797159e-06 -1.196665e-05 1.000000e-07
1.212444e-05 4.914335e-08 1.000000e-07
1.208079e-05 7.967745e-07 1.000000e-07
1.316277e-05 -5.585255e-07 1.000000e-07
-1.210828e-05 5.337981e-07 1.000000e-07
3.859850e-06 1.437883e-05 1.000000e-07
1.133932e-05 -4.830196e-06 1.000000e-07
-4.176711e-06 1.136449e-05 1.000000e-07
9.007021e-06 8.118851e-06 1.000000e-07
9.899116e-06 7.258994e-06 1.000000e-07
1.418075e-05 4.889415e-06 1.000000e-07
-1.341337e-05 -6.386646e-06 1.000000e-07
-1.101047e-06 -1.375930e-05 1.000000e-07
-1.046644e-05 -6.855640e-06 1.000000e-07
-4.542029e-06 1.289878e-05 1.000000e-07
-1.144533e-05 5.562826e-06 1.000000e-07
-4.293163e-06 1.179071e-05 1.000000e-07
4.992623e-06 1.219642e-05 1.000000e-07
1.078315e-06 -1.231933e-05 1.000000e-07
-7.762102e-06 9.529476e-06 1.000000e-07
3.967634e-06 -1.311132e-05 1.000000e-07
1.411984e-05 5.062624e-06 1.000000e-07
1.241608e-05 -1.664224e-06 1.000000e-07
3.258474e-06 1.167392e-05 1.000000e-07
-7.326583e-06 9.865877e-06 1.000000e-07
-5.507918e-06 1.129744e-05 1.000000e-07
1.190110e-05 -5.005440e-06 1.000000e-07
-9.957047e-06 -1.101760e-05 1.000000e-07
9.560407e-06 7.412034e-06 1.000000e-07
1.156112e-05 6.264476e-06 1.000000e-07
4.119095e-06 1.138762e-05 1.000000e-07
-1.197232e-05 1.813917e-06 1.000000e-07
1.405899e-05 5.229223e-06 1.000000e-07
9.734788e-06 -7.191111e-06 1.000000e-07
2.472148e-06 1.185620e-05 1.000000e-07
7.045162e-06 1.032029e-05 1.000000e-07
-5.009057e-07 -1.232896e-05 1.000000e-07
1.197278e-05 1.803913e-06 1.000000e-07
-1.149870e-05 3.796615e-06 1.000000e-07
4.893696e-06 -1.108682e-05 1.000000e-07
-9.970646e-06 7.088264e-06 1.000000e-07
1.137975e-05 -4.594184e-06 1.000000e-07
-1.634496e-06 1.216727e-05 1.000000e-07
1.399804e-05 5.390264e-06 1.000000e-07
3.570697e-06 1.169011e-05 1.000000e-07
-9.172254e-08 1.210625e-05 1.000000e-07
1.323202e-05 -5.831005e-06 1.000000e-07
3.697482e-09 1.477737e-05 1.000000e-07
5.690626e-06 1.092839e-05 1.000000e-07
1.181725e-05 9.064900e-06 1.000000e-07
4.748187e-06 1.342621e-05 1.000000e-07
1.197308e-05 3.636840e-06 1.000000e-07
9.072336e-06 -8.011269e-06 1.000000e-07
-1.117445e-05 -4.596544e-06 1.000000e-07
1.393407e-05 5.553532e-06 1.000000e-07
-1.472377e-05 5.781143e-07 1.000000e-07
-5.662778e-06 -1.090809e-05 1.000000e-07
-1.772641e-06 -1.227499e-05 1.000000e-07
1.183442e-05 2.544190e-06 1.000000e-07
1.158493e-05 9.348137e-06 1.000000e-07
-8.370616e-06 -8.984056e-06 1.000000e-07
1.288483e-05 7.103465e-07 1.000000e-07
-7.237976e-06 -9.982303e-06 1.000000e-07
9.710310e-06 7.230605e-06 1.000000e-07
-1.126336e-05 -4.435815e-06 1.000000e-07
1.386433e-05 5.725421e-06 1.000000e-07
6.059130e-06 1.048034e-05 1.000000e-07
-1.068323e-05 -7.126903e-06 1.000000e-07
9.031960e-06 -1.048380e-05 1.000000e-07
3.100903e-06 -1.359399e-05 1.000000e-07
-1.334064e-05 -4.244250e-07 1.000000e-07
1.336380e-05 6.506505e-06 1.000000e-07
1.252117e-05 5.170296e-07 1.000000e-07
1.166437e-05 -7.708821e-06 1.000000e-07
6.836893e-06 1.322999e-05 1.000000e-07
-1.199979e-05 -2.650002e-06 1.000000e-07
1.379896e-05 5.881205e-06 1.000000e-07
1.004857e-06 -1.381825e-05 1.000000e-07
-7.196276e-06 -9.767166e-06 1.000000e-07
2.723558e-06 1.417526e-05 1.000000e-07
5.378331e-06 -1.119164e-05 1.000000e-07
5.228054e-06 -1.128320e-05 1.000000e-07
-1.028157e-05 -6.645429e-06 1.000000e-07
1.106553e-05 5.515116e-06 1.000000e-07
-1.179709e-05 -2.768733e-06 1.000000e-07
2.759550e-06 -1.438668e-05 1.000000e-07
4.556905e-06 -1.397037e-05 1.000000e-07
1.372991e-05 6.040653e-06 1.000000e-07
-9.894574e-06 7.169781e-06 1.000000e-07
-9.811985e-06 -8.275412e-06 1.000000e-07
1.210460e-05 2.203119e-06 1.000000e-07
1.226144e-05 -3.494641e-06 1.000000e-07
1.157992e-05 8.774961e-06 1.000000e-07
-1.085904e-05 5.328970e-06 1.000000e-07
1.170484e-05 3.681955e-06 1.000000e-07
7.287536e-06 -1.042680e-05 1.000000e-07
8.836343e-06 -8.245342e-06 1.000000e-07
-1.425621e-05 -4.153651e-06 1.000000e-07
1.366646e-05 6.182878e-06 1.000000e-07
-9.745544e-06 8.163204e-06 1.000000e-07
-1.415781e-05 -4.461071e-06 1.000000e-07
1.482542e-05 6.619484e-07 1.000000e-07
-9.122135e-06 1.088169e-05 1.000000e-07
8.835988e-06 8.256937e-06 1.000000e-07
-3.095430e-06 -1.351824e-05 1.000000e-07
-3.251501e-06 -1.310281e-05 1.000000e-07
-1.154645e-05 -9.392721e-06 1.000000e-07
9.181256e-06 8.338690e-06 1.000000e-07
-4.855011e-06 1.340066e-05 1.000000e-07
5.651042e-06 1.389481e-05 -1.000000e-07
1.359763e-05 6.332806e-06 1.000000e-07
9.977958e-06 -7.465823e-06 1.000000e-07
-9.218521e-06 8.366867e-06 1.000000e-07
1.129459e-05 -5.733143e-06 1.000000e-07
-1.231652e-05 -1.000796e-08 1.000000e-07
5.918791e-06 -1.058304e-05 1.000000e-07
-5.542078e-06 -1.102772e-05 1.000000e-07
1.212032e-05 -9.342943e-08 1.000000e-07
2.812687e-06 -1.202556e-05 1.000000e-07
-8.528523e-06 -1.210117e-05 1.000000e-07
-8.695458e-06 -1.202576e-05 1.000000e-07
1.352519e-05 6.486079e-06 1.000000e-07
-1.209457e-05 1.755786e-07 1.000000e-07
-1.453300e-05 -2.862501e-06 1.000000e-07
1.167859e-05 4.916909e-06 1.000000e-07
1.112103e-05 -4.777774e-06 1.000000e-07
-1.053057e-05 -5.956738e-06 1.000000e-07
1.320741e-05 6.886510e-06 1.000000e-07
1.175292e-05 -5.176489e-06 1.000000e-07
-6.111779e-06 1.353513e-05 1.000000e-07
1.269055e-05 2.364266e-06 1.000000e-07
-1.330775e-07 -1.474722e-05 1.000000e-07
1.344726e-05 6.646145e-06 1.000000e-07
-5.722571e-06 -1.068277e-05 1.000000e-07
-9.516296e-06 7.499563e-06 1.000000e-07
5.208380e-06 -1.094652e-05 1.000000e-07
5.026133e-06 1.100914e-05 1.000000e-07
5.210466e-06 1.106293e-05 1.000000e-07
1.158369e-05 8.474714e-06 1.000000e-07
-1.188714e-05 -2.268683e-06 1.000000e-07
-6.158712e-06 1.107076e-05 1.000000e-07
1.202249e-05 -1.373298e-06 1.000000e-07
4.263528e-06 -1.161945e-05 1.000000e-07
1.337645e-05 6.787522e-06 1.000000e-07
2.370961e-06 -1.203123e-05 1.000000e-07
3.814622e-06 -1.195750e-05 1.000000e-07
-1.426854e-05 3.960211e-06 1.000000e-07
-1.778913e-06 1.199217e-05 1.000000e-07
-1.177519e-05 -4.158924e-06 1.000000e-07
1.028791e-05 7.373924e-06 1.000000e-07
-7.136665e-06 1.000089e-05 1.000000e-07
-2.160400e-06 -1.255390e-05 1.000000e-07
8.538687e-06 1.073068e-05 1.000000e-07
-9.370300e-07 -1.471040e-05 1.000000e-07
1.332508e-05 6.887833e-06 1.000000e-07
2.267260e-07 1.424033e-05 1.000000e-07
1.162878e-05 3.388408e-06 1.000000e-07
5.696724e-06 -1.231835e-05 1.000000e-07
-1.258245e-05 9.998097e-07 1.000000e-07
-8.304721e-06 1.102637e-05 1.000000e-07
-3.035430e-06 -1.235867e-05 1.000000e-07
7.772063e-06 9.560792e-06 1.000000e-07
-1.002639e-05 1.099260e-05 1.000000e-07
-3.674582e-06 1.167711e-05 1.000000e-07
8.266090e-06 9.094455e-06 1.000000e-07
1.327716e-05 6.979765e-06 1.000000e-07
-6.309933e-06 1.093484e-05 1.000000e-07
-1.373431e-05 -5.712721e-06 1.000000e-07
-1.188344e-05 -6.917770e-06 1.000000e-07
-1.173542e-05 -6.609604e-06 1.000000e-07
-1.192535e-05 -2.792143e-06 1.000000e-07
6.394200e-06 -1.330481e-05 1.000000e-07
-9.419082e-06 -7.817930e-06 1.000000e-07
1.367598e-05 3.417830e-06 1.000000e-07
1.358008e-05 3.086431e-06 1.000000e-07
1.184363e-05 -8.524882e-06 1.000000e-07
1.320985e-05 7.106316e-06 1.000000e-07
-1.193798e-05 -2.065487e-06 1.000000e-07
1.172901e-05 4.023147e-06 1.000000e-07
4.838251e-06 -1.150892e-05 1.000000e-07
-9.004889e-06 8.513322e-06 1.000000e-07
-1.212864e-05 -1.734882e-06 1.000000e-07
-5.962048e-06 -1.142252e-05 1.000000e-07
3.027088e-06 1.225760e-05 1.000000e-07
9.494473e-06 8.041771e-06 1.000000e-07
4.940527e-06 1.134388e-05 1.000000e-07
-6.819381e-06 1.021346e-05 1.000000e-07
1.312221e-05 7.266889e-06 1.000000e-07
4.360332e-06 -1.149131e-05 1.000000e-07
7.676435e-06 -1.077751e-05 1.000000e-07
1.255308e-05 6.600767e-06 1.000000e-07
9.106756e-06 1.104330e-05 1.000000e-07
-1.361175e-05 -2.060452e-06 1.000000e-07
9.379168e-06 8.748301e-06 1.000000e-07
7.333410e-06 1.077893e-05 1.000000e-07
-8.994574e-06 -8.124874e-06 1.000000e-07
1.159322e-05 6.974427e-06 1.000000e-07
1.058124e-05 8.419945e-06 1.000000e-07
1.302382e-05 7.441785e-06 1.000000e-07
-1.210339e-05 1.994926e-06 1.000000e-07
1.176008e-05 3.367300e-06 1.000000e-07
-3.859687e-06 -1.165815e-05 1.000000e-07
1.236170e-05 1.097384e-06 1.000000e-07
8.119833e-06 9.273561e-06 1.000000e-07
7.728615e-07 -1.468229e-05 1.000000e-07
5.930402e-06 -1.168362e-05 1.000000e-07
1.205076e-05 -1.053337e-06 1.000000e-07
-1.156036e-05 -3.585586e-06 1.000000e-07
8.067367e-06 -9.301708e-06 1.000000e-07
1.292979e-05 7.603974e-06 1.000000e-07
8.008328e-06 -9.212620e-06 1.000000e-07
1.163095e-05 3.896818e-06 1.000000e-07
-8.669135e-06 8.446866e-06 1.000000e-07
-9.006020e-06 -1.175286e-05 1.000000e-07
6.188049e-07 -1.209700e-05 1.000000e-07
1.250675e-05 -6.238128e-06 1.000000e-07
-7.373896e-07 -1.244826e-05 1.000000e-07
-1.027636e-05 8.939652e-06 1.000000e-07
-1.005765e-05 8.843320e-06 1.000000e-07
8.289702e-06 9.325879e-06 1.000000e-07
5.478428e-06 1.396377e-05 -1.000000e-07
1.284841e-05 7.740701e-06 1.000000e-07
8.568345e-06 8.760850e-06 1.000000e-07
1.368897e-05 -7.556394e-07 1.000000e-07
1.059255e-05 5.879348e-06 1.000000e-07
6.729763e-06 1.043855e-05 1.000000e-07
-7.287447e-06 1.064557e-05 1.000000e-07
-1.253458e-05 -8.023605e-06 1.000000e-07
1.141105e-05 -5.624175e-06 1.000000e-07
9.751419e-06 1.060375e-05 1.000000e-07
7.206837e-06 9.729728e-06 1.000000e-07
1.308066e-06 -1.222600e-05 1.000000e-07
1.275893e-05 7.887319e-06 1.000000e-07
-7.402470e-06 9.753956e-06 1.000000e-07
-4.268660e-07 1.251804e-05 1.000000e-07
1.160328e-05 5.100190e-06 1.000000e-07
-1.298125e-05 5.682554e-06 1.000000e-07
-5.913480e-06 1.116275e-05 1.000000e-07
-2.303342e-06 -1.207816e-05 1.000000e-07
2.346002e-06 1.186755e-05 1.000000e-07
8.519618e-06 1.209477e-05 1.000000e-07
1.204833e-05 1.311458e-06 1.000000e-07
-6.040940e-06 1.083760e-05 1.000000e-07
1.268366e-05 8.007796e-06 1.000000e-07
[...]
POINT_DATA 12523
VECTORS 10.000GHz_fone_imag double
-9.859172e+08 -5.234718e+11 7.654746e+07
2.522070e+10 -5.187994e+11 -1.283321e+09
4.819684e+11 -2.021655e+11 -5.589426e+08
1.665678e+11 -5.008673e+11 -5.660478e+08
-6.080723e+11 1.407869e+11 7.534726e+08
-4.587322e+08 -7.245477e+11 -1.036225e+09
5.105514e+10 -7.387098e+11 1.819751e+09
-1.747546e+10 -3.852413e+11 -1.285937e+08
3.459871e+10 7.402682e+11 1.200600e+09
4.726608e+11 -1.273024e+11 2.510849e+08
-2.308108e+11 -5.402428e+11 -1.222859e+09
6.953081e+11 2.543265e+11 5.709344e+08
4.798278e+11 -5.345027e+11 -5.806611e+08
3.787014e+11 -5.104745e+11 -7.760500e+08
1.707903e+11 -4.942192e+11 8.524105e+08
-2.026943e+11 4.260627e+11 2.410615e+08
-3.478275e+11 2.706835e+10 2.562382e+08
-2.818700e+11 4.297629e+11 9.103049e+08
3.302641e+11 1.154641e+11 -1.527665e+08
2.001613e+11 4.142699e+11 -1.042255e+09
4.694556e+11 1.714925e+11 -6.584450e+08
3.561886e+11 -1.468439e+11 -3.148230e+07
-5.729593e+11 -4.981703e+10 -1.077441e+09
4.671593e+11 3.799449e+11 -1.721219e+07
-3.412283e+11 -1.036446e+11 -8.135202e+07
1.760331e+11 -4.897969e+11 9.751403e+07
-6.855272e+10 -5.040749e+11 1.202977e+08
7.041366e+11 -1.948355e+11 1.487521e+09
4.955611e+11 3.681125e+11 -4.464712e+08
4.420331e+11 2.160723e+11 -5.185386e+07
-1.590296e+11 -3.814708e+11 -4.013870e+08
-3.513760e+11 3.157026e+11 -1.130377e+09
4.685421e+11 -6.054432e+11 -2.900732e+09
1.870433e+11 -3.438593e+11 2.376116e+08
6.961445e+11 -2.523865e+11 -1.270170e+09
1.124264e+11 7.329241e+11 -2.930509e+08
1.811256e+11 -4.891048e+11 5.935659e+08
-4.497237e+11 -6.063217e+11 2.819031e+09
7.323077e+11 -1.490872e+11 -2.410827e+09
4.295257e+11 -2.924122e+11 -7.355766e+07
-5.918676e+11 2.370755e+10 -7.834077e+06
1.079416e+11 -7.242556e+11 -1.115993e+09
2.369775e+11 7.136503e+11 1.737738e+09
-6.716728e+11 -2.959424e+11 -1.183106e+09
3.786528e+11 5.323583e+11 1.840835e-05
-2.365332e+11 -5.841350e+11 -1.496469e+09
6.258240e+11 8.438204e+10 3.405508e+08
1.875006e+11 -4.831816e+11 2.169235e+08
6.290369e+11 -1.947011e+11 1.588920e+09
7.375301e+11 5.848616e+09 -2.682013e+09
-1.511124e+11 -3.420203e+11 -4.972058e+08
4.499624e+11 1.911551e+07 -8.539537e+08
5.210766e+11 -2.694363e+11 1.252615e+09
3.024614e+11 -3.947287e+11 2.278717e+07
3.394910e+11 -1.196152e+11 -1.136235e+08
1.488394e+11 -4.870827e+11 9.157518e+08
-5.126206e+11 -5.803977e+11 -4.542522e+08
-2.956685e+11 7.074063e+11 7.366256e-06
1.916091e+11 -4.823878e+11 4.458408e+07
1.808364e+10 4.553454e+11 3.916090e+07
-5.432233e+11 2.810031e+11 3.086157e+08
-5.503951e+11 7.908970e+10 -2.307535e+08
1.609432e+11 -7.419295e+11 9.604923e+07
3.089889e+11 -3.824737e+11 -3.946977e+08
-4.574408e+11 4.259572e+11 -7.955762e+08
2.327443e+10 -4.275890e+11 -7.472429e+08
-4.812438e+11 3.510556e+11 -1.509978e+09
4.444010e+11 -5.965095e+11 -3.836244e+08
-2.722429e+11 6.983953e+11 2.471580e+09
1.991976e+11 -4.836692e+11 -1.207706e+09
6.552505e+11 -3.810588e+11 1.033080e+09
-2.365827e+11 3.558121e+11 -2.006143e+07
-2.633803e+11 -2.268206e+11 -1.018216e+08
-3.401425e+11 -7.586691e+10 1.105793e+07
-1.426207e+10 3.702958e+11 4.111199e+08
2.076723e+11 -4.287426e+11 8.366604e+08
2.212070e+10 -5.156482e+11 8.834083e+08
-1.920370e+11 -2.895462e+11 2.629583e+07
4.332930e+11 -2.241466e+11 -1.860558e+09
-1.345371e+11 6.049291e+11 -1.056954e+09
2.077318e+11 -4.898362e+11 -3.454587e+08
-3.484528e+11 -2.539428e+10 1.404863e+08
-5.734631e+11 4.247818e+11 -2.235365e+09
3.737025e+11 -7.213837e+10 2.479031e+08
-4.918955e+11 -2.380817e+11 -7.669259e+08
-4.916282e+11 -2.275623e+11 7.326986e+08
-3.510395e+11 5.403150e+11 2.744062e+08
2.549576e+11 -5.133544e+11 1.248881e+09
-1.702792e+11 7.136379e+11 1.507122e+09
-4.129309e+11 -8.029117e+10 1.379367e+08
-4.102115e+11 -1.346753e+11 2.324000e+08
2.130900e+11 -4.820991e+11 1.742293e+09
3.794054e+11 5.255351e+11 -7.356866e+08
-2.803272e+11 3.349104e+11 2.935576e+08
1.072384e+11 -5.897246e+11 4.187608e+08
-1.210695e+11 -4.327868e+11 3.059929e+08
2.331010e+11 -3.074447e+11 1.490337e+08
3.383325e+11 6.919242e+11 2.546867e-06
1.878991e+11 -6.036160e+11 -1.164159e+09
-3.796717e+11 -2.634214e+11 2.819723e-05
-5.270751e+11 -5.639047e+11 1.030178e+09
-1.321168e+11 4.515656e+11 -1.049900e+09
2.154011e+11 -4.782093e+11 -1.159363e+09
2.975360e+11 3.565777e+11 -2.156464e+08
-1.391840e+11 4.453107e+11 4.853845e+08
2.108114e+10 -4.795777e+11 -1.123377e+08
2.709554e+11 2.268820e+11 1.913291e+07
5.285612e+11 -5.613397e+11 -2.214239e+09
-3.392600e+11 7.603536e+10 -1.479620e+08
-3.498706e+11 8.664690e+10 -1.233909e+08
-3.076091e+11 3.780510e+11 4.376723e+08
3.766937e+11 -4.134495e+11 1.211875e+09
3.379277e+11 1.227023e+11 1.140868e+08
4.818423e+11 -1.944274e+11 -1.040091e+08
2.243261e+11 -4.834114e+11 -4.943216e+08
-3.177785e+11 -4.247800e+11 -9.730822e+08
3.563370e+11 3.936897e+11 -1.349649e+09
-2.185742e+11 -4.283769e+11 2.704779e+08
5.645306e+08 5.958088e+11 -8.429751e+08
-6.406634e+11 -3.579223e+11 1.122053e+09
-5.173499e+11 2.615346e+11 1.191819e+09
-8.901091e+09 -7.360050e+11 -1.779054e+09
-5.634437e+11 -1.322726e+11 -1.422494e-05
-3.734510e+11 2.606208e+11 -6.586891e+08
-3.743043e+11 2.729415e+11 1.198478e+08
2.301710e+11 -4.786173e+11 1.172739e+09
1.521845e+10 7.416020e+11 1.039659e+09
-8.768895e+10 4.464411e+11 -9.894603e+08
1.796906e+11 -4.300479e+11 2.367619e+08
-2.954275e+11 -6.866076e+11 8.847635e+08
-3.643089e+11 6.454696e+11 -9.452675e+08
2.310692e+11 -4.430457e+11 -7.544525e+07
-1.739825e+11 -3.931296e+11 3.661149e+08
4.350701e+11 1.967257e+11 -1.047187e+09
7.561797e+10 -4.106199e+11 -4.727714e+07
-4.467930e+11 3.602802e+09 -4.177952e+07
2.343666e+11 -4.748173e+11 -2.635334e+08
-6.555874e+11 3.490773e+11 -2.994041e+08
4.589290e+11 5.806254e+11 1.273116e+08
-6.641033e+11 -3.157636e+11 -1.829625e+09
6.787980e+11 -3.090532e+11 1.050312e+09
5.905911e+11 -2.763889e+11 1.216951e+09
2.133051e+11 -2.911891e+11 -4.120314e+07
-1.356945e+11 7.210632e+11 1.446623e+09
4.091500e+11 2.277968e+11 4.057861e+08
-8.478166e+10 -7.405961e+11 1.330338e+09
-5.322352e+11 -1.982269e+11 2.218744e+09
2.399422e+11 -4.744304e+11 -8.298700e+08
-6.286870e+11 -1.247184e+11 -1.410696e+07
-4.813004e+11 -1.526933e+11 1.855549e+09
1.226037e+11 4.361506e+11 1.871149e+09
7.427783e+11 1.092139e+11 8.407162e+08
-1.741486e+11 4.977908e+11 -6.099553e+08
2.826703e+11 -3.923637e+11 -8.545228e+08
5.040488e+11 3.575629e+11 -7.381610e+08
-4.508156e+11 7.761345e+10 7.484788e+07
2.736335e+11 -2.176787e+11 -4.837777e+07
-4.307775e+11 2.876419e+10 5.643333e+08
2.441854e+11 -4.733869e+11 5.556022e+08
3.606892e+11 -6.299366e+09 -5.146787e+07
2.113139e+11 -7.199366e+11 2.473490e+08
-3.234518e+11 -1.488049e+11 -1.779528e+08
3.866619e+10 4.837937e+11 -6.389175e+08
2.772982e+11 2.100485e+11 -3.668497e+07
-4.394034e+11 1.100490e+11 -8.042667e+07
4.677005e+11 -3.788289e+11 -1.006222e+09
3.619491e+11 3.281087e+11 -3.225179e+08
6.129983e+11 1.924565e+11 -7.196977e+08
4.517144e+11 -4.073203e+11 -6.336184e+08
2.480550e+11 -4.690316e+11 2.540496e+08
4.104367e+11 2.371340e+11 4.266176e+08
-1.826385e+11 4.422450e+11 5.926826e+08
-1.754600e+11 3.012961e+11 -5.189084e+08
-1.767031e+11 3.130654e+11 -1.020046e+08
-1.447144e+11 6.240374e+11 6.740870e+08
-4.044976e+11 -1.930981e+11 6.298047e+08
-4.170979e+11 5.052740e+11 -2.645507e+08
8.427529e+10 -3.400542e+11 2.633663e+08
7.589291e+10 -3.388613e+11 2.696504e+07
-2.399387e+11 -3.328217e+11 6.734368e+08
2.505614e+11 -4.647879e+11 1.671003e+08
-1.232364e+11 7.183912e+11 1.406525e+09
1.847074e+11 -5.415075e+11 3.488657e+08
-4.835926e+11 -2.043111e+11 -5.130710e+08
3.812863e+11 4.031817e+11 2.814686e+08
-8.872067e+10 6.277189e+11 3.895550e+08
-3.835936e+11 2.000362e+11 5.871684e+07
4.675785e+11 -1.151752e+11 -8.609222e+08
3.471981e+11 -4.117838e+11 -1.659342e+09
5.182820e+11 -2.252333e+11 -2.172949e+09
5.179065e+11 3.453010e+11 2.080239e+09
2.554883e+11 -4.587325e+11 4.658401e+08
-5.723833e+11 -2.164902e+11 2.319364e+09
-3.114567e+11 -2.211105e+11 -9.421542e+08
1.643964e+11 -3.112753e+11 -1.213676e+08
2.825651e+11 -2.318858e+11 -2.896917e+08
-5.144771e+10 3.451927e+11 3.467066e+08
3.018880e+11 -3.214924e+11 8.584715e+07
3.351665e+11 -2.272763e+11 9.343027e+07
-4.903540e+11 5.413092e+11 1.236485e+09
1.813471e+11 -3.040851e+11 -4.394551e+07
2.233703e+11 -2.785756e+11 -3.277151e+08
2.584877e+11 -4.554561e+11 -2.637295e+08
1.033896e+11 6.263897e+11 -3.289749e+08
1.791665e+11 -6.293037e+11 4.004096e+08
-5.961196e+11 1.965700e+11 -1.717910e+09
4.903836e+10 -5.476692e+11 8.394391e+08
4.497772e+11 -3.945909e+11 -1.498687e+09
-4.492624e+11 -2.296803e+10 9.519879e+08
-3.480036e+11 -1.768666e+11 5.937097e+08
-6.599080e+10 -7.400747e+11 -9.273237e+07
-2.205009e+11 7.046664e+11 9.385435e+08
-4.558790e+11 -3.952735e+11 6.635506e+08
2.688638e+11 -4.564601e+11 6.916969e+08
-5.104678e+11 -4.455318e+11 2.456187e+09
1.978269e+11 -5.916089e+11 -1.372667e+09
5.375548e+11 5.496587e+11 -9.087632e+08
-3.625675e+11 2.762972e+11 -4.870891e+08
-7.546195e+11 -3.760661e+10 -1.255778e+09
-1.545845e+11 -3.107270e+11 1.012699e+08
-5.295444e+11 3.303120e+10 -9.765386e+08
2.307145e+11 2.641472e+11 3.711352e+08
2.420914e+11 2.733523e+11 7.365830e+08
3.987445e+11 -3.546715e+11 -8.904196e+08
4.821430e+11 -1.895696e+11 3.460515e+07
2.731525e+11 -4.533857e+11 1.300912e+08
4.503229e+11 -4.411842e+11 -3.087918e+08
-2.040122e+10 -3.489412e+11 3.069060e+08
3.593655e+11 -6.431159e+11 2.860271e+08
4.585831e+11 -2.953622e+11 1.148979e+09
3.507795e+11 2.415980e+11 -1.224670e+09
-2.662822e+11 4.154872e+11 -3.729682e+08
-2.005868e+11 -4.058769e+11 8.279883e+08
2.737557e+11 -2.514750e+11 -2.382306e+08
5.971370e+11 -4.425420e+11 7.610657e+08
-6.235420e+11 -6.633880e+10 2.054996e+09
2.789177e+11 -4.514881e+11 -3.091120e+07
5.197351e+11 3.942007e+11 -9.835167e+08
5.155976e+11 1.871626e+10 3.828151e+08
1.884281e+11 -4.268813e+11 -1.600344e+08
1.429020e+11 3.260024e+11 -2.984296e+08
4.284435e+11 2.267991e+11 -6.840214e+08
-5.938661e+11 1.137445e+11 1.429877e+09
7.508873e+11 -1.460381e+11 1.732850e+09
3.712667e+11 -2.598747e+11 -1.022115e+09
8.072480e+10 -7.282849e+11 -9.084552e+07
4.843626e+11 2.701428e+11 6.721811e+08
2.827876e+11 -4.466288e+11 1.190740e+08
3.702923e+11 3.366764e+11 -1.859941e+09
-5.935369e+10 7.307737e+11 -1.877802e+08
-4.464318e+11 1.472463e+11 -6.065252e+08
4.579270e+11 -1.608654e+11 -4.334841e+08
-2.457109e+11 -2.929171e+11 -4.163483e+08
-3.063710e+11 -3.712054e+11 6.088305e+08
-1.660269e+11 6.331403e+11 5.144959e+08
-1.299328e+11 -4.715640e+11 2.597149e+08
3.136487e+11 -6.833884e+11 -1.690108e+09
1.531344e+11 4.579834e+11 9.920323e+08
2.837807e+11 -4.474546e+11 8.625990e+08
-3.891018e+11 3.836697e+11 2.155085e+08
3.516040e+11 -2.842303e+11 -2.512001e+08
-5.385875e+11 5.142620e+11 -1.208607e+08
-3.212163e+11 -5.800566e+11 1.702458e+09
9.550116e+10 -7.238118e+11 5.605616e+08
-5.405248e+11 1.098441e+11 7.035375e+08
3.668068e+11 2.981912e+11 -6.458273e+08
-1.657051e+10 -4.473070e+11 6.061836e+08
-3.790185e+11 -4.909773e+11 4.562571e+08
2.041102e+11 7.024215e+11 1.090353e+09
2.913779e+11 -4.426122e+11 -7.313216e+08
2.346265e+10 4.608871e+11 5.913815e+08
-5.113950e+09 -5.865332e+11 -1.992369e+09
2.478189e+11 -2.506351e+11 -3.789936e+08
-8.343048e+10 -3.371291e+11 -1.158021e+08
4.332599e+11 -6.561454e+11 4.881527e-07
-6.578646e+11 -3.302803e+11 8.087502e+08
3.230942e+11 -3.710961e+11 -1.576716e+08
2.225512e+11 4.983590e+11 3.987869e+08
-3.000499e+11 4.291253e+11 3.635303e+08
-3.559184e+11 -3.384394e+11 -1.494114e+09
2.901032e+11 -4.375491e+11 -1.460445e+09
4.983980e+11 -3.760914e+11 1.473225e+09
-1.766633e+11 4.477295e+11 4.576121e+08
-2.256516e+11 -3.276312e+11 1.009967e+09
-2.385377e+11 5.497794e+11 -1.358007e+09
-4.009473e+11 -5.294870e+11 -4.174746e+08
5.092078e+11 2.318161e+11 4.302426e+08
-1.985909e+09 4.362547e+11 1.157303e+09
-3.749120e+11 -6.590480e+11 -3.049546e+09
-4.117768e+10 7.769863e+11 9.161239e+08
-4.909928e+11 1.487562e+11 6.011994e+07
2.976671e+11 -4.340293e+11 1.618799e+09
-3.704926e+11 2.023208e+11 -9.654380e+08
2.109677e+11 -6.949501e+11 6.166640e+08
6.086622e+11 -1.177948e+11 -2.477992e+08
-7.935047e+10 -3.654191e+11 -1.123510e+08
2.374543e+10 5.499377e+11 -3.025347e+08
-2.617730e+11 -3.271783e+11 -3.343429e+08
3.178317e+11 -3.749881e+11 -2.807708e+08
3.366421e+11 -1.413743e+11 1.617578e+08
5.502722e+11 5.323764e+11 6.106023e+08
2.073408e+11 -2.843803e+11 9.259821e+07
2.975822e+11 -4.290300e+11 -3.219275e+08
1.849490e+11 3.287944e+11 -1.805387e-06
4.181113e+11 3.911847e+10 7.223225e+08
-1.641288e+11 -3.224749e+11 -2.674961e+08
-5.918155e+11 9.165788e+10 4.594865e+08
4.209768e+11 4.151411e+11 -7.564964e+07
3.112011e+10 5.894176e+11 3.618737e+08
5.947315e+10 -7.152795e+11 8.430418e+08
-4.720992e+11 -3.825450e+11 1.420426e+09
-3.747998e+11 -9.935080e+10 1.912713e+08
4.571516e+11 -1.243195e+11 2.869054e+08
3.031343e+11 -4.247650e+11 -4.646953e+08
7.671867e+11 -8.331706e+10 -2.068420e-05
3.414501e+11 -8.871375e+10 -6.930800e+07
-1.714723e+11 3.001349e+11 -1.085370e-05
4.307278e+11 -2.122133e+11 -1.267000e+09
4.959144e+11 -2.951960e+09 -4.766595e+08
4.738305e+11 1.804182e+09 -1.951797e+08
3.084990e+11 1.743348e+11 1.165972e+08
2.992097e+11 1.740647e+11 -2.319116e+08
-4.381473e+11 -5.996868e+11 -4.248070e+08
-3.298036e+11 -4.188426e+11 -4.870964e+08
3.091378e+11 -4.249415e+11 -2.867704e+08
3.669671e+11 4.653154e+11 7.605913e+07
1.458077e+11 -4.201964e+11 8.473682e+08
3.656054e+11 -1.144491e+11 -1.096037e+08
-4.204837e+11 1.935761e+11 9.286838e+08
6.531790e+11 -2.083880e+11 -6.332382e+08
3.358330e+11 -1.019733e+11 -1.778436e+07
1.746924e+11 -7.449215e+11 1.043104e+09
1.679043e+11 -3.474853e+11 -7.438398e+07
-4.077928e+11 -1.858346e+11 -2.008610e+09
-4.704091e+11 5.581782e+11 -1.141283e+08
4.881670e+11 -1.867861e+11 2.219388e+08
3.159341e+11 -4.251275e+11 -4.441225e+08
4.130162e+11 4.756677e+11 4.005027e+08
-6.605670e+10 5.653290e+11 -6.945367e+08
3.238480e+11 -6.754105e+11 -2.869465e+09
7.417949e+11 1.850484e+11 -7.577503e+08
1.072284e+09 -3.556465e+11 -1.712399e+08
-3.535110e+11 5.388909e+10 5.778868e+08
-3.023741e+11 1.874819e+11 -2.518940e+08
4.291073e+11 -1.316652e+11 -3.388972e+08
4.068513e+11 2.684600e+11 1.429483e+08
-3.691608e+11 -4.498766e+11 3.984508e+08
3.230034e+11 -4.242955e+11 7.774459e+08
-3.154275e+09 -4.474769e+11 -1.434322e+09
4.466426e+11 1.177745e+11 -1.325694e+09
3.915378e+11 -4.607698e+11 1.760789e+08
1.795700e+11 -4.804972e+11 -1.788853e+08
4.465884e+11 4.950288e+11 -1.091586e+09
3.214622e+11 6.858294e+11 3.098585e+08
-4.823669e+11 -7.402305e+10 6.460889e+08
-1.726985e+11 4.606981e+11 1.063102e-06
-1.621247e+11 4.486933e+11 3.296699e+08
-1.196934e+11 -3.258428e+11 4.921152e+07
3.245109e+11 -4.192703e+11 6.123310e+08
2.653211e+11 -2.934759e+11 9.483439e+08
-3.830094e+11 -4.797664e+11 -2.031113e+09
5.955002e+11 3.314576e+11 8.597935e+08
-5.081947e+11 1.135091e+11 9.825852e+08
-4.208660e+11 3.693808e+11 6.904526e+08
2.607753e+11 3.020980e+11 -8.819771e+08
-2.245578e+11 -4.293512e+11 -2.443100e+08
-2.064562e+11 -3.801090e+11 -3.060527e+08
3.327588e+11 4.371763e+11 -3.085331e+07
2.534528e+11 -6.838140e+11 6.880229e+08
3.280328e+11 -4.182465e+11 -6.442985e+08
-4.107621e+11 -6.430421e+11 -1.032403e+09
3.621033e+11 4.381355e+11 2.442600e+09
-2.191811e+11 7.396697e+11 1.609544e+09
-3.615999e+11 -3.001991e+11 4.002528e+08
-7.250539e+11 -1.458333e+11 1.276465e+09
-2.576736e+11 -2.327552e+11 1.940648e+08
-2.059267e+11 -3.025708e+11 -2.287386e+08
3.110125e+11 -3.766291e+11 2.902052e+08
3.855314e+11 -6.345889e+11 5.846877e+08
7.290026e+10 5.329270e+11 1.135857e+09
3.333213e+11 -4.161851e+11 -7.792641e+08
5.743662e+11 -4.985637e+11 4.781789e+08
-2.229630e+11 -2.878418e+11 -2.402578e+08
-2.133666e+11 -2.761321e+11 3.071582e+08
-9.096913e+10 -3.390959e+11 3.016986e+08
-4.715413e+11 9.581011e+10 9.470402e+08
3.389085e+11 -2.104813e+11 -2.914011e+08
-4.157911e+11 -1.719932e+11 -8.101034e+08
-1.664674e+11 3.382105e+11 3.622004e+08
1.528763e+11 4.853392e+11 3.969547e+08
-2.704359e+11 5.812792e+11 -1.867471e+09
3.350112e+11 -4.115437e+11 7.266240e+08
-6.152250e+11 -1.776074e+11 -4.543068e+08
-2.451816e+11 -5.914236e+11 -1.147401e+09
4.894130e+11 5.533834e+11 5.484896e+08
-3.933864e+11 -5.488071e+11 -1.346029e+09
-3.607828e+11 -1.175634e+10 -1.981846e+08
5.437726e+11 3.377025e+11 3.141839e+08
-2.244625e+11 -2.676657e+11 -1.101992e+08
-2.209409e+11 -2.682765e+11 5.123815e+07
6.518047e+10 5.390877e+11 -1.860620e+09
3.517304e+11 -4.744857e+11 -4.185273e+08
3.397248e+11 -4.108728e+11 -3.847512e+08
2.348781e+11 -4.286830e+11 -5.020045e+08
-4.185215e+11 1.957756e+11 9.657768e+08
4.240050e+11 3.235694e+11 -4.575240e+07
-4.430089e+11 -4.005969e+11 5.031300e-05
-4.741075e+11 -4.549650e+11 -2.124137e+08
5.180951e+11 -4.897510e+10 -3.015130e+09
3.554831e+09 -4.766406e+11 4.431731e+08
5.872317e+11 6.309940e+10 -6.815698e+07
3.619727e+11 -2.934811e+11 -3.385843e+08
-3.185230e+11 -1.652824e+11 -8.423359e+07
3.419083e+11 -4.039357e+11 7.838779e+08
-1.014692e+10 -3.538316e+11 5.558400e+07
-1.248315e+10 -3.458316e+11 -6.957690e-07
-4.031525e+11 9.884227e+10 6.338823e+08
3.407646e+11 -5.423020e+11 -7.985678e+08
-1.687668e+11 -3.077628e+11 -1.211398e+08
-4.578387e+11 2.276005e+11 3.199737e+08
-1.203266e+11 -4.003943e+11 3.806449e+08
-4.741033e+11 5.689987e+11 1.000060e+09
-2.218597e+11 4.263588e+11 1.800301e+08
4.681013e+11 5.838261e+11 -9.683017e+08
3.451222e+11 -4.021797e+11 -4.957281e+08
5.342163e+11 -5.526158e+11 1.449838e+09
4.418289e+11 -7.292977e+10 -1.552456e+09
-6.236762e+11 3.969764e+11 1.928048e+09
-4.175469e+11 5.104600e+11 3.435733e+08
-2.890596e+11 -2.493484e+11 1.676184e+08
6.160034e+11 -3.365601e+10 -1.251758e+09
-5.364263e+11 1.414611e+11 1.248254e+09
2.105997e+11 -4.458416e+11 1.708671e+07
2.737443e+11 3.984280e+11 -8.495202e+08
-4.517410e+11 -3.088271e+11 -1.756915e+08
3.522448e+11 -4.010734e+11 6.299732e+08
-4.409225e+11 -3.083712e+11 -1.075629e+09
-1.871002e+11 5.535512e+11 3.907222e+08
-1.798486e+11 5.507752e+11 -2.438779e+09
-2.930600e+11 -2.057142e+11 1.460951e+08
-3.465140e+11 -5.294941e+11 1.994993e+09
1.956297e+11 -3.197041e+11 7.748350e+08
-3.841351e+11 -3.744827e+11 -2.349516e+08
2.073220e+11 -5.246312e+11 1.533989e+09
1.054680e+11 -4.711173e+11 1.059052e+09
4.954543e+11 -3.870441e+11 7.760968e+08
4.920874e+11 -1.789478e+11 -2.649957e+08
3.533354e+11 -3.923996e+11 6.396387e+08
2.191136e+11 -3.179293e+11 -3.334577e+08
-6.067345e+11 2.346593e+11 -1.118221e+09
-5.029860e+10 -4.481815e+11 6.412027e+08
-3.388686e+11 -2.048229e+11 -6.833206e+08
2.661052e+11 4.274353e+11 6.852217e+08
-5.380454e+10 4.928410e+11 3.021655e+09
-4.474929e+11 2.016990e+10 -2.514482e+08
2.252360e+11 -3.134455e+11 4.130616e+08
3.539114e+11 3.318555e+11 1.130989e+09
-3.707439e+11 1.031049e+11 4.353125e+08
3.533473e+11 -3.890477e+11 2.712836e+07
2.813620e+10 -7.336811e+11 -4.872150e+08
8.720925e+10 -3.440834e+11 -4.715597e+08
1.708977e+11 -6.213273e+11 -1.120568e+09
4.480074e+11 6.140682e+11 3.911079e+08
-4.502778e+11 -3.809797e+11 3.188835e+08
-5.625688e+11 3.005518e+11 4.017204e+08
-9.764890e+10 3.792533e+11 7.086107e+08
-4.793243e+11 -6.207912e+11 6.276890e+08
5.117099e+10 5.888259e+11 1.148172e+08
1.171554e+11 -5.686943e+11 2.227777e+09
3.596502e+11 -3.833037e+11 -3.110278e+07
2.609836e+11 -2.816348e+11 1.827998e+08
-2.934969e+11 5.178966e+11 9.055929e+08
8.210387e+10 5.231112e+11 -7.416996e+08
-4.239854e+11 -5.248873e+10 7.593819e+07
6.346511e+11 4.277225e+11 -6.306529e+08
1.948969e+10 -6.446438e+11 1.790541e+08
3.684783e+11 9.131290e+10 -7.397059e+07
5.475938e+11 -1.973957e+11 8.155780e+08
6.388989e+11 -1.652171e+11 4.350637e+09
3.733388e+11 3.111698e+11 -1.512013e+09
3.578765e+11 -3.778273e+11 3.563838e+08
3.649360e+11 -3.512393e+11 -4.310199e+08
-5.685689e+11 4.964507e+11 -9.040459e-06
-3.095228e+11 -1.989925e+11 3.261604e+08
3.554129e+11 2.398618e+11 4.482233e+08
-4.986281e+11 5.357368e+10 1.892148e+08
-4.912868e+11 6.242640e+10 1.608344e+09
-7.096761e+11 2.142881e+11 2.281028e+09
3.055329e+11 3.864458e+11 7.758046e+08
2.631993e+11 3.992936e+11 5.979032e+07
2.579205e+11 3.106531e+11 1.211590e+09
3.642120e+11 -3.745349e+11 -5.179054e+08