# vtk DataFile Version 2.0
Electric current density generated by TTH
ASCII
DATASET UNSTRUCTURED_GRID
POINTS 109 double
1.500000e-05 0.000000e+00 -1.000000e-07
4.635255e-06 1.426585e-05 -1.000000e-07
-6.616688e-06 -1.213445e-05 7.125660e-13
6.430307e-06 -1.224256e-05 -2.197247e-13
-1.315343e-05 -4.444385e-06 4.043372e-13
-1.359695e-05 2.274463e-06 -1.724970e-13
1.365060e-05 2.100358e-06 5.634961e-14
-9.294665e-06 -1.020921e-05 -1.232591e-13
9.295885e-06 1.020820e-05 1.606204e-12
-1.212323e-05 6.568693e-06 -9.407208e-13
-1.388729e-05 -2.148477e-11 2.956156e-13
1.101882e-05 8.425734e-06 -1.569019e-13
1.091049e-20 1.500000e-05 -1.000000e-07
-1.212328e-05 -6.568635e-06 4.552504e-13
1.021831e-05 -9.385429e-06 -9.989158e-13
-4.635255e-06 1.426585e-05 -1.000000e-07
-8.816779e-06 1.213525e-05 -1.000000e-07
-1.213525e-05 8.816779e-06 -1.000000e-07
-1.426585e-05 4.635255e-06 -1.000000e-07
-1.500000e-05 3.514366e-20 -1.000000e-07
-1.426585e-05 -4.635255e-06 -1.000000e-07
-1.213525e-05 -8.816779e-06 -1.000000e-07
-8.816779e-06 -1.213525e-05 -1.000000e-07
1.300000e-05 0.000000e+00 -1.000000e-07
-4.635255e-06 -1.426585e-05 -1.000000e-07
-9.601419e-20 -1.500000e-05 -1.000000e-07
4.635255e-06 -1.426585e-05 -1.000000e-07
8.816779e-06 -1.213525e-05 -1.000000e-07
1.213525e-05 -8.816779e-06 -1.000000e-07
1.426585e-05 -4.635255e-06 -1.000000e-07
1.221600e-05 4.446262e-06 -1.000000e-07
9.958578e-06 8.356239e-06 -1.000000e-07
6.500000e-06 1.125833e-05 -1.000000e-07
2.257426e-06 1.280250e-05 -1.000000e-07
1.500000e-05 0.000000e+00 1.000000e-07
-2.257426e-06 1.280250e-05 -1.000000e-07
-6.500000e-06 1.125833e-05 -1.000000e-07
-9.958578e-06 8.356239e-06 -1.000000e-07
-1.221600e-05 4.446262e-06 -1.000000e-07
-1.300000e-05 -1.572744e-20 -1.000000e-07
-1.221600e-05 -4.446262e-06 -1.000000e-07
-9.958578e-06 -8.356239e-06 -1.000000e-07
-6.500000e-06 -1.125833e-05 -1.000000e-07
-2.257426e-06 -1.280250e-05 -1.000000e-07
2.257426e-06 -1.280250e-05 -1.000000e-07
1.300000e-05 0.000000e+00 1.000000e-07
6.500000e-06 -1.125833e-05 -1.000000e-07
9.958578e-06 -8.356239e-06 -1.000000e-07
1.221600e-05 -4.446262e-06 -1.000000e-07
1.426585e-05 4.635255e-06 1.000000e-07
1.213525e-05 8.816779e-06 1.000000e-07
8.816779e-06 1.213525e-05 1.000000e-07
4.635255e-06 1.426585e-05 1.000000e-07
1.091049e-20 1.500000e-05 1.000000e-07
-4.635255e-06 1.426585e-05 1.000000e-07
-8.816779e-06 1.213525e-05 1.000000e-07
-1.213525e-05 8.816779e-06 1.000000e-07
-1.426585e-05 4.635255e-06 1.000000e-07
-1.500000e-05 3.514366e-20 1.000000e-07
-1.426585e-05 -4.635255e-06 1.000000e-07
-1.213525e-05 -8.816779e-06 1.000000e-07
-8.816779e-06 -1.213525e-05 1.000000e-07
-4.635255e-06 -1.426585e-05 1.000000e-07
-9.601419e-20 -1.500000e-05 1.000000e-07
4.635255e-06 -1.426585e-05 1.000000e-07
8.816779e-06 -1.213525e-05 1.000000e-07
1.213525e-05 -8.816779e-06 1.000000e-07
1.426585e-05 -4.635255e-06 1.000000e-07
1.221600e-05 4.446262e-06 1.000000e-07
9.958578e-06 8.356239e-06 1.000000e-07
6.500000e-06 1.125833e-05 1.000000e-07
2.257426e-06 1.280250e-05 1.000000e-07
-2.257426e-06 1.280250e-05 1.000000e-07
-6.500000e-06 1.125833e-05 1.000000e-07
-9.958578e-06 8.356239e-06 1.000000e-07
-1.221600e-05 4.446262e-06 1.000000e-07
1.426585e-05 4.635255e-06 -1.000000e-07
-1.300000e-05 -1.572744e-20 1.000000e-07
-1.221600e-05 -4.446262e-06 1.000000e-07
-9.958578e-06 -8.356239e-06 1.000000e-07
-6.500000e-06 -1.125833e-05 1.000000e-07
-2.257426e-06 -1.280250e-05 1.000000e-07
2.257426e-06 -1.280250e-05 1.000000e-07
6.500000e-06 -1.125833e-05 1.000000e-07
9.958578e-06 -8.356239e-06 1.000000e-07
1.221600e-05 -4.446262e-06 1.000000e-07
2.245607e-06 1.356534e-05 -3.145501e-13
1.213525e-05 8.816779e-06 -1.000000e-07
1.210477e-05 -6.620738e-06 -6.975546e-14
4.451954e-06 1.307920e-05 -1.188588e-12
-1.134931e-06 -1.373400e-05 -2.705122e-12
-3.478508e-06 1.339350e-05 1.660492e-13
8.417034e-06 -1.090292e-05 -1.175950e-12
1.317192e-05 4.442032e-06 2.739774e-13
1.316906e-05 -4.443263e-06 -1.232535e-14
-1.315344e-05 4.444320e-06 -9.835839e-15
-9.291444e-06 1.021305e-05 -6.761921e-14
-1.101848e-05 -8.425619e-06 1.838026e-13
8.816779e-06 1.213525e-05 -1.000000e-07
-4.388673e-06 -1.308962e-05 3.369931e-13
3.463012e-06 -1.343428e-05 -4.284592e-12
6.626038e-06 1.213395e-05 -1.843777e-13
1.365053e-05 -2.100309e-06 6.307473e-13
-1.359694e-05 -2.274500e-06 2.082401e-13
-6.523846e-06 1.220982e-05 -4.764053e-13
-1.101791e-05 8.425689e-06 5.123446e-14
1.212396e-05 6.568042e-06 3.978865e-14
-8.148284e-08 1.380269e-05 4.526282e-13
9.450740e-07 -1.379919e-05 3.209277e-14
CELLS 284 1420
4 53 1 52 86
4 12 1 53 86
4 33 71 89 86
4 89 1 33 86
4 90 81 43 99
4 108 100 44 82
4 15 35 12 91
4 90 24 99 43
4 90 24 43 25
4 100 25 108 44
4 100 25 44 26
4 65 84 14 92
4 88 84 14 66
4 92 46 3 83
4 6 30 93 76
4 85 102 94 48
4 5 38 18 95
4 40 103 20 4
4 54 16 104 55
4 65 14 84 66
4 3 46 27 26
4 47 14 84 92
4 13 59 78 4
4 2 42 24 22
4 46 92 3 27
4 58 18 5 19
4 103 58 10 19
4 96 17 16 37
4 13 79 60 97
4 85 102 48 45
4 48 45 102 23
4 5 38 95 75
4 18 5 95 57
4 68 6 93 49
4 68 6 49 45
4 103 20 4 59
4 103 40 20 39
4 45 102 34 67
4 18 58 5 57
4 5 19 18 39
4 6 45 34 49
4 20 103 19 59
4 103 20 19 39
4 106 76 93 30
4 9 18 38 95
4 21 7 41 97
4 56 96 16 55
4 22 7 60 61
4 88 14 47 28
4 17 96 16 56
4 98 87 8 31
4 9 37 17 105
4 106 87 30 31
4 9 37 105 74
4 13 79 97 41
4 49 87 106 50
4 17 56 57 9
4 13 59 4 20
4 106 76 30 87
4 9 18 95 57
4 17 105 56 9
4 36 16 37 96
4 97 60 13 21
4 83 92 46 84
4 7 80 2 42
4 8 70 101 32
4 16 104 96 36
4 42 41 22 7
4 8 70 32 69
4 43 81 90 82
4 44 90 82 43
4 107 35 12 33
4 35 91 73 72
4 99 81 43 80
4 70 33 71 89
4 70 33 89 32
4 99 42 24 2
4 83 100 82 44
4 100 83 46 44
4 104 16 96 55
4 92 46 84 47
4 22 42 7 2
4 8 32 101 98
4 44 90 43 25
4 99 42 2 80
4 32 89 1 33
4 26 100 46 44
4 12 107 33 86
4 53 107 12 86
4 48 29 94 88
4 94 29 67 88
4 67 28 66 88
4 29 28 67 88
4 85 67 66 88
4 12 33 1 86
4 48 28 29 88
4 71 53 52 86
4 13 59 60 78
4 20 13 60 21
4 91 53 107 12
4 107 91 12 35
4 11 31 69 8
4 104 15 36 16
4 91 35 36 15
4 36 35 91 73
4 6 102 45 23
4 6 102 23 0
4 6 102 0 34
4 6 102 34 45
4 11 106 87 50
4 11 31 8 87
4 8 50 11 87
4 11 31 87 106
4 20 40 13 21
4 20 13 40 4
4 13 41 97 21
4 13 41 21 40
4 8 50 69 11
4 8 50 51 69
4 47 88 28 48
4 47 14 27 28
4 65 28 14 66
4 27 14 47 92
4 88 14 28 66
4 89 71 52 86
4 52 1 89 86
4 70 89 71 52
4 70 89 101 32
4 32 101 1 89
4 63 81 90 62
4 62 25 90 63
4 90 81 63 82
4 44 108 82 90
4 44 108 90 25
4 15 91 12 54
4 91 54 73 72
4 91 53 12 54
4 104 91 36 15
4 36 91 104 73
4 3 65 92 83
4 3 65 83 64
4 92 46 47 27
4 83 92 84 65
4 69 106 11 50
4 6 30 76 23
4 68 6 45 23
4 6 30 23 68
4 106 76 87 49
4 106 76 49 93
4 85 102 45 67
4 85 102 67 94
4 48 94 85 88
4 85 94 67 88
4 5 38 75 39
4 5 38 39 18
4 5 75 95 57
4 9 18 57 17
4 9 18 17 38
4 105 17 96 37
4 56 74 96 55
4 17 105 96 56
4 36 96 37 74
4 96 73 74 36
4 73 96 74 55
4 21 7 97 60
4 104 91 54 73
4 13 79 41 78
4 13 41 40 78
4 13 79 78 60
4 90 81 99 62
4 90 24 25 62
4 90 24 62 99
4 62 81 99 80
4 62 99 24 2
4 63 64 100 82
4 63 26 100 64
4 83 64 82 100
4 3 83 46 100
4 26 3 46 100
4 51 101 70 52
4 51 101 52 98
4 8 70 69 51
4 8 32 98 31
4 8 32 31 69
4 102 48 29 94
4 94 29 102 67
4 48 102 29 23
4 102 29 34 67
4 0 29 102 23
4 102 29 0 34
4 40 77 103 78
4 77 103 78 59
4 77 40 103 39
4 103 58 19 59
4 10 39 5 77
4 54 104 73 55
4 104 73 96 36
4 73 104 96 55
4 54 91 104 15
4 104 15 16 54
4 21 7 60 22
4 21 7 22 41
4 10 39 19 5
4 27 14 65 28
4 65 14 27 92
4 58 5 77 10
4 103 58 77 10
4 9 37 74 38
4 9 37 38 17
4 9 74 105 56
4 74 105 96 37
4 105 74 96 56
4 68 106 30 31
4 49 106 68 50
4 69 68 106 50
4 106 68 69 31
4 106 93 68 30
4 106 49 68 93
4 71 35 107 33
4 107 71 33 86
4 53 71 107 86
4 72 71 107 53
4 107 71 72 35
4 63 100 108 82
4 100 25 26 63
4 100 25 63 108
4 108 63 82 90
4 108 63 90 25
4 103 58 59 77
4 101 1 52 98
4 101 1 98 32
4 70 89 52 101
4 101 52 1 89
4 7 80 61 2
4 2 62 61 24
4 99 42 80 43
4 99 42 43 24
4 62 99 2 80
4 3 65 64 27
4 64 3 27 26
4 3 65 27 92
4 64 83 3 100
4 26 64 3 100
4 40 103 4 78
4 103 4 78 59
4 13 59 20 60
4 4 13 40 78
4 58 5 10 19
4 5 75 57 77
4 5 75 77 39
4 5 58 77 57
4 10 39 77 103
4 6 76 93 49
4 6 30 68 93
4 76 6 34 49
4 6 76 0 23
4 0 76 6 34
4 97 41 79 7
4 7 79 60 61
4 42 41 7 79
4 7 80 42 79
4 60 97 79 7
4 98 87 51 8
4 8 50 87 51
4 8 70 51 101
4 8 101 51 98
4 9 74 56 75
4 9 56 57 75
4 9 74 75 38
4 9 95 38 75
4 95 9 57 75
4 22 2 7 61
4 7 80 79 61
4 91 53 54 72
4 72 91 107 35
4 91 53 72 107
4 61 2 24 22
4 2 62 80 61
4 47 85 88 48
4 85 88 84 47
4 85 84 88 66
4 11 31 106 69
4 47 84 14 88
4 10 39 103 19
CELL_TYPES 284
10
10
10
10
10
10
10
10
10
10
10
10
10
10
10
10
10
10
10
10
10
10
10
10
10
10
10
10
10
10
10
10
10
10
10
10
10
10
10
10
10
10
10
10
10
10
10
10
10
10
10
10
10
10
10
10
10
10
10
10
10
10
10
10
10
10
10
10
10
10
10
10
10
10
10
10
10
10
10
10
10
10
10
10
10
10
10
10
10
10
10
10
10
10
10
10
10
10
10
10
10
10
10
10
10
10
10
10
10
10
10
10
10
10
10
10
10
10
10
10
10
10
10
10
10
10
10
10
10
10
10
10
10
10
10
10
10
10
10
10
10
10
10
10
10
10
10
10
10
10
10
10
10
10
10
10
10
10
10
10
10
10
10
10
10
10
10
10
10
10
10
10
10
10
10
10
10
10
10
10
10
10
10
10
10
10
10
10
10
10
10
10
10
10
10
10
10
10
10
10
10
10
10
10
10
10
10
10
10
10
10
10
10
10
10
10
10
10
10
10
10
10
10
10
10
10
10
10
10
10
10
10
10
10
10
10
10
10
10
10
10
10
10
10
10
10
10
10
10
10
10
10
10
10
10
10
10
10
10
10
10
10
10
10
10
10
10
10
10
10
10
10
10
10
10
10
10
10
10
10
10
10
10
10
POINT_DATA 109
VECTORS 10.000GHz_fone_imag double
-7.418301e+06 -4.982375e+11 -1.761807e+06
4.684012e+11 -1.479554e+11 -3.696836e+06
-4.569417e+11 2.456253e+11 -1.169682e+06
-4.613734e+11 -2.418283e+11 1.372053e+05
-1.717263e+11 5.061826e+11 4.646793e+06
8.670603e+10 5.211240e+11 6.230856e+05
7.115235e+10 -5.295447e+11 1.522386e+06
-3.968971e+11 3.589186e+11 -1.677763e+06
3.967301e+11 -3.589086e+11 2.098013e+06
2.505457e+11 4.654722e+11 1.096484e+06
1.579310e+07 5.348605e+11 3.052833e+06
3.242878e+11 -4.234987e+11 6.552656e+06
4.907856e+11 1.430115e+10 -1.546506e+08
-2.505023e+11 4.654721e+11 1.324097e+06
-3.525300e+11 -3.771184e+11 3.626119e+05
4.649347e+11 1.625376e+11 2.270515e+08
4.059975e+11 2.984117e+11 -2.110004e+07
2.837066e+11 4.036019e+11 3.660186e+07
1.406098e+11 4.715480e+11 1.336652e+07
-8.972602e+09 4.927847e+11 -4.662773e+07
-1.551920e+11 4.636514e+11 -5.994984e+07
-2.875991e+11 3.941892e+11 6.249995e+07
-3.946065e+11 3.045290e+11 8.235160e+07
1.208806e+10 -5.584158e+11 1.263185e+08
-4.707259e+11 1.601608e+11 -6.953763e+07
-4.959825e+11 -5.845141e+09 -1.092887e+07
-4.741501e+11 -1.517090e+11 2.443580e+07
-3.993682e+11 -2.892205e+11 2.130890e+07
-2.887938e+11 -4.094479e+11 -9.285965e+06
-1.427922e+11 -4.763006e+11 4.061577e+07
1.934532e+11 -5.198034e+11 -2.186471e+08
3.501282e+11 -4.407280e+11 -9.598313e+07
4.797816e+11 -2.821093e+11 -4.490850e+07
5.540164e+11 -1.055391e+11 8.059258e+06
1.076940e+07 -5.007830e+11 -2.117136e+06
5.684722e+11 9.082428e+10 -1.196733e+08
4.786384e+11 2.808762e+11 -7.714546e+06
3.532279e+11 4.278911e+11 6.635209e+07
2.046161e+11 5.232756e+11 7.282669e+07
9.908701e+09 5.536837e+11 2.936481e+07
-1.844162e+11 5.322291e+11 -6.880052e+07
-3.500795e+11 4.406771e+11 -1.004860e+08
-4.801410e+11 2.827865e+11 1.724029e+06
-5.707010e+11 1.037378e+11 -1.363275e+08
-5.539154e+11 -8.560150e+10 -2.075597e+08
-1.208081e+10 -5.585301e+11 1.256429e+08
-4.847810e+11 -2.808010e+11 5.896663e+07
-3.580343e+11 -4.255679e+11 2.302819e+07
-1.836367e+11 -5.245880e+11 4.633723e+07
1.569883e+11 -4.658448e+11 1.408549e+07
2.875903e+11 -3.941466e+11 -6.282291e+07
3.946093e+11 -3.045240e+11 -8.556443e+07
4.651573e+11 -1.650960e+11 3.815202e+07
4.952664e+11 -2.162888e+09 3.779738e+07
4.801162e+11 1.649885e+11 -8.137716e+07
3.957517e+11 2.916094e+11 2.501971e+08
2.947435e+11 3.906843e+11 -5.493552e+07
1.551925e+11 4.636951e+11 -6.130741e+07
8.982493e+09 4.928098e+11 -4.670977e+07
-1.406153e+11 4.715738e+11 1.350463e+07
-2.905382e+11 3.995509e+11 1.332012e+08
-4.054263e+11 2.857714e+11 -1.639333e+08
-4.698475e+11 1.423936e+11 1.643406e+08
-4.899420e+11 -2.259929e+10 8.348143e+06
-4.661356e+11 -1.723956e+11 -2.460572e+08
-3.910111e+11 -3.046482e+11 -4.841025e+07
-2.814285e+11 -4.022926e+11 2.087721e+08
-1.573474e+11 -4.665926e+11 -9.912250e+06
1.958985e+11 -5.262396e+11 1.055382e+08
3.651488e+11 -4.246362e+11 1.148640e+08
4.897963e+11 -2.625371e+11 9.971286e+06
5.555594e+11 -8.387077e+10 2.602955e+07
5.549059e+11 8.562580e+10 1.723875e+08
4.871063e+11 2.607204e+11 -2.031807e+06
3.609658e+11 4.365688e+11 -1.330127e+08
1.844179e+11 5.322306e+11 -6.851626e+07
1.427866e+11 -4.761733e+11 -2.343626e+07
-9.909205e+09 5.537106e+11 2.975520e+07
-2.046127e+11 5.232960e+11 7.225943e+07
-3.651246e+11 4.246175e+11 1.127867e+08
-4.879391e+11 2.623918e+11 2.633389e+07
-5.569741e+11 1.023056e+11 1.382799e+08
-5.561769e+11 -6.393664e+10 1.722626e+08
-4.944703e+11 -2.609841e+11 -4.416198e+07
-3.739352e+11 -4.102835e+11 1.346444e+07
-2.041738e+11 -5.208214e+11 -2.273078e+08
5.161313e+11 -8.420207e+10 -5.361016e+05
2.905348e+11 -3.995248e+11 -1.318109e+08
-2.597658e+11 -4.661013e+11 -1.966668e+05
4.896666e+11 -1.705701e+11 -7.742337e+05
-5.242444e+11 5.169956e+10 8.378000e+04
5.115350e+11 1.243142e+11 2.451661e+06
-4.091002e+11 -3.236739e+11 1.172446e+06
1.702139e+11 -5.053473e+11 3.825448e+05
-1.705505e+11 -5.054050e+11 7.154133e+06
1.717423e+11 5.061810e+11 4.576801e+06
3.973793e+11 3.586886e+11 5.243859e+05
-3.242836e+11 4.235019e+11 -3.906725e+06
4.053124e+11 -2.857278e+11 1.620767e+08
-5.064305e+11 1.624053e+11 -2.670122e+06
-5.140352e+11 -1.295316e+11 -1.202312e+06
4.563779e+11 -2.451381e+11 -6.367213e+05
-7.111215e+10 -5.295747e+11 -1.617109e+05
-8.670330e+10 5.211237e+11 5.218437e+05
4.576140e+11 2.443194e+11 6.950592e+05
3.243716e+11 4.235177e+11 5.524284e+06
2.505855e+11 -4.652112e+11 -6.287763e+05
5.333378e+11 1.237538e+10 2.778477e+06
-5.223653e+11 -3.405577e+10 -5.221201e+06
