# vtk DataFile Version 2.0
Electric current density generated by TTH
ASCII
DATASET UNSTRUCTURED_GRID
POINTS 11156 double
1.500000e-05 0.000000e+00 -1.000000e-07
1.495988e-05 1.096328e-06 -1.000000e-07
5.478428e-06 1.396377e-05 -1.000000e-07
1.411984e-05 5.062624e-06 1.000000e-07
2.370961e-06 -1.203123e-05 1.000000e-07
3.814622e-06 -1.195750e-05 1.000000e-07
-1.426854e-05 3.960211e-06 1.000000e-07
-1.778913e-06 1.199217e-05 1.000000e-07
-1.177519e-05 -4.158924e-06 1.000000e-07
1.028791e-05 7.373924e-06 1.000000e-07
-7.136665e-06 1.000089e-05 1.000000e-07
-2.160400e-06 -1.255390e-05 1.000000e-07
8.538687e-06 1.073068e-05 1.000000e-07
-9.370300e-07 -1.471040e-05 1.000000e-07
1.405899e-05 5.229223e-06 1.000000e-07
2.267260e-07 1.424033e-05 1.000000e-07
1.162878e-05 3.388408e-06 1.000000e-07
5.696724e-06 -1.231835e-05 1.000000e-07
-1.258245e-05 9.998097e-07 1.000000e-07
-8.304721e-06 1.102637e-05 1.000000e-07
-3.035430e-06 -1.235867e-05 1.000000e-07
7.772063e-06 9.560792e-06 1.000000e-07
-1.002639e-05 1.099260e-05 1.000000e-07
-3.674582e-06 1.167711e-05 1.000000e-07
8.266090e-06 9.094455e-06 1.000000e-07
1.399804e-05 5.390264e-06 1.000000e-07
-6.309933e-06 1.093484e-05 1.000000e-07
-1.373431e-05 -5.712721e-06 1.000000e-07
-1.188344e-05 -6.917770e-06 1.000000e-07
-1.173542e-05 -6.609604e-06 1.000000e-07
-1.192535e-05 -2.792143e-06 1.000000e-07
6.394200e-06 -1.330481e-05 1.000000e-07
-9.419082e-06 -7.817930e-06 1.000000e-07
1.367598e-05 3.417830e-06 1.000000e-07
1.358008e-05 3.086431e-06 1.000000e-07
1.184363e-05 -8.524882e-06 1.000000e-07
1.393407e-05 5.553532e-06 1.000000e-07
-1.193798e-05 -2.065487e-06 1.000000e-07
1.172901e-05 4.023147e-06 1.000000e-07
4.838251e-06 -1.150892e-05 1.000000e-07
-9.004889e-06 8.513322e-06 1.000000e-07
-1.212864e-05 -1.734882e-06 1.000000e-07
-5.962048e-06 -1.142252e-05 1.000000e-07
3.027088e-06 1.225760e-05 1.000000e-07
9.494473e-06 8.041771e-06 1.000000e-07
4.940527e-06 1.134388e-05 1.000000e-07
-6.819381e-06 1.021346e-05 1.000000e-07
1.386433e-05 5.725421e-06 1.000000e-07
4.360332e-06 -1.149131e-05 1.000000e-07
7.676435e-06 -1.077751e-05 1.000000e-07
1.255308e-05 6.600767e-06 1.000000e-07
9.106756e-06 1.104330e-05 1.000000e-07
-1.361175e-05 -2.060452e-06 1.000000e-07
9.379168e-06 8.748301e-06 1.000000e-07
7.333410e-06 1.077893e-05 1.000000e-07
-8.994574e-06 -8.124874e-06 1.000000e-07
1.159322e-05 6.974427e-06 1.000000e-07
1.058124e-05 8.419945e-06 1.000000e-07
1.379896e-05 5.881205e-06 1.000000e-07
-1.210339e-05 1.994926e-06 1.000000e-07
1.176008e-05 3.367300e-06 1.000000e-07
-3.859687e-06 -1.165815e-05 1.000000e-07
1.236170e-05 1.097384e-06 1.000000e-07
8.119833e-06 9.273561e-06 1.000000e-07
7.728615e-07 -1.468229e-05 1.000000e-07
5.930402e-06 -1.168362e-05 1.000000e-07
1.205076e-05 -1.053337e-06 1.000000e-07
-1.156036e-05 -3.585586e-06 1.000000e-07
8.067367e-06 -9.301708e-06 1.000000e-07
1.372991e-05 6.040653e-06 1.000000e-07
8.008328e-06 -9.212620e-06 1.000000e-07
1.163095e-05 3.896818e-06 1.000000e-07
-8.669135e-06 8.446866e-06 1.000000e-07
-9.006020e-06 -1.175286e-05 1.000000e-07
6.188049e-07 -1.209700e-05 1.000000e-07
1.250675e-05 -6.238128e-06 1.000000e-07
-7.373896e-07 -1.244826e-05 1.000000e-07
-1.027636e-05 8.939652e-06 1.000000e-07
-1.005765e-05 8.843320e-06 1.000000e-07
8.289702e-06 9.325879e-06 1.000000e-07
1.366646e-05 6.182878e-06 1.000000e-07
8.568345e-06 8.760850e-06 1.000000e-07
1.368897e-05 -7.556394e-07 1.000000e-07
1.059255e-05 5.879348e-06 1.000000e-07
6.729763e-06 1.043855e-05 1.000000e-07
-7.287447e-06 1.064557e-05 1.000000e-07
-1.253458e-05 -8.023605e-06 1.000000e-07
1.141105e-05 -5.624175e-06 1.000000e-07
9.751419e-06 1.060375e-05 1.000000e-07
7.206837e-06 9.729728e-06 1.000000e-07
1.308066e-06 -1.222600e-05 1.000000e-07
1.359763e-05 6.332806e-06 1.000000e-07
-7.402470e-06 9.753956e-06 1.000000e-07
-4.268660e-07 1.251804e-05 1.000000e-07
1.160328e-05 5.100190e-06 1.000000e-07
-1.298125e-05 5.682554e-06 1.000000e-07
-5.913480e-06 1.116275e-05 1.000000e-07
-2.303342e-06 -1.207816e-05 1.000000e-07
2.346002e-06 1.186755e-05 1.000000e-07
8.519618e-06 1.209477e-05 1.000000e-07
1.204833e-05 1.311458e-06 1.000000e-07
-6.040940e-06 1.083760e-05 1.000000e-07
1.352519e-05 6.486079e-06 1.000000e-07
-8.462438e-06 9.264371e-06 1.000000e-07
-1.207206e-05 -9.558103e-07 1.000000e-07
-4.654043e-06 -1.408514e-05 1.000000e-07
4.926366e-06 1.404445e-05 1.000000e-07
1.013454e-05 -8.469514e-06 1.000000e-07
1.148373e-05 -9.436215e-06 1.000000e-07
-1.180977e-05 -3.132390e-06 1.000000e-07
1.433544e-05 -3.938225e-06 1.000000e-07
1.097984e-05 5.063040e-06 1.000000e-07
-1.197651e-05 4.011620e-06 1.000000e-07
5.316442e-06 1.402624e-05 -1.000000e-07
1.344726e-05 6.646145e-06 1.000000e-07
-8.716010e-06 -8.836449e-06 1.000000e-07
9.287171e-06 1.151414e-05 1.000000e-07
-8.355541e-06 -8.764471e-06 1.000000e-07
1.071477e-05 -5.905752e-06 1.000000e-07
1.202368e-05 1.571809e-06 1.000000e-07
-2.436644e-06 -1.217566e-05 1.000000e-07
-9.376832e-06 1.153515e-05 1.000000e-07
1.477835e-05 -5.101687e-07 1.000000e-07
9.728748e-06 -7.492927e-06 1.000000e-07
-1.163118e-05 3.412445e-06 1.000000e-07
1.337645e-05 6.787522e-06 1.000000e-07
-1.273913e-05 6.247316e-07 1.000000e-07
1.234866e-05 -7.742476e-08 1.000000e-07
1.003690e-05 9.923922e-06 1.000000e-07
1.336327e-05 -3.318867e-06 1.000000e-07
1.005435e-05 6.694621e-06 1.000000e-07
5.413297e-06 -1.084199e-05 1.000000e-07
1.122683e-05 9.780946e-06 1.000000e-07
-1.136606e-05 5.062304e-06 1.000000e-07
-1.019544e-05 -7.180953e-06 1.000000e-07
1.023241e-05 -1.079991e-05 1.000000e-07
1.332508e-05 6.887833e-06 1.000000e-07
7.377174e-06 9.808831e-06 1.000000e-07
-1.383497e-05 -5.476195e-06 1.000000e-07
1.203259e-05 -8.293023e-06 1.000000e-07
-1.129847e-05 -4.894512e-06 1.000000e-07
9.710241e-06 -7.386551e-06 1.000000e-07
-5.087260e-06 1.132618e-05 1.000000e-07
-1.471797e-05 -7.836012e-08 1.000000e-07
1.052868e-05 -5.951395e-06 1.000000e-07
-1.206218e-05 -6.039733e-07 1.000000e-07
-3.622566e-06 -1.201260e-05 1.000000e-07
1.327716e-05 6.979765e-06 1.000000e-07
-6.178671e-06 -1.127603e-05 1.000000e-07
1.162620e-05 3.503401e-06 1.000000e-07
2.355789e-06 1.204317e-05 1.000000e-07
1.297545e-05 -2.854791e-06 1.000000e-07
-1.239278e-05 5.066693e-07 1.000000e-07
1.143957e-05 -9.144230e-06 1.000000e-07
1.132764e-05 9.657767e-06 1.000000e-07
5.511130e-06 1.318573e-05 1.000000e-07
-8.389036e-06 8.696416e-06 1.000000e-07
1.101303e-05 8.075273e-06 1.000000e-07
1.320985e-05 7.106316e-06 1.000000e-07
-1.153579e-05 6.509371e-06 1.000000e-07
-1.360755e-06 1.462046e-05 1.000000e-07
1.204063e-05 -6.117357e-06 1.000000e-07
-1.906956e-06 -1.218506e-05 1.000000e-07
-8.665591e-06 8.782540e-06 1.000000e-07
-1.232457e-05 6.745713e-07 1.000000e-07
1.209824e-05 1.058403e-06 1.000000e-07
7.743307e-06 -9.553869e-06 1.000000e-07
3.477356e-06 -1.269264e-05 1.000000e-07
3.334567e-06 1.218785e-05 1.000000e-07
1.312221e-05 7.266889e-06 1.000000e-07
1.342875e-06 1.201373e-05 1.000000e-07
3.423240e-06 1.317569e-05 1.000000e-07
-1.212677e-05 -6.907558e-06 1.000000e-07
6.571316e-06 1.334593e-05 1.000000e-07
7.572807e-08 1.258446e-05 1.000000e-07
-7.434099e-08 1.266075e-05 1.000000e-07
-7.010848e-06 1.230035e-05 1.000000e-07
-6.974965e-06 1.200226e-05 1.000000e-07
9.798266e-06 -7.106858e-06 1.000000e-07
9.797381e-06 -7.716042e-06 1.000000e-07
1.302382e-05 7.441785e-06 1.000000e-07
-9.643761e-06 7.664066e-06 1.000000e-07
1.207359e-05 4.196177e-06 1.000000e-07
4.343356e-06 1.380815e-05 1.000000e-07
-5.319147e-06 -1.153653e-05 1.000000e-07
3.713847e-06 1.161625e-05 1.000000e-07
4.109141e-06 1.352992e-05 1.000000e-07
1.177068e-05 2.772100e-06 1.000000e-07
1.184886e-05 5.772309e-06 1.000000e-07
6.124058e-06 -1.344020e-05 1.000000e-07
-9.236865e-06 -7.836502e-06 1.000000e-07
1.292979e-05 7.603974e-06 1.000000e-07
-9.259323e-06 8.031382e-06 1.000000e-07
-1.231018e-05 -1.403711e-06 1.000000e-07
1.091186e-05 5.234441e-06 1.000000e-07
-2.954129e-06 1.172330e-05 1.000000e-07
1.424398e-05 2.761534e-09 1.000000e-07
-1.989121e-06 -1.336091e-05 1.000000e-07
-7.454086e-06 -1.200126e-05 1.000000e-07
3.757932e-06 1.216758e-05 1.000000e-07
-8.196407e-06 1.242263e-05 1.000000e-07
9.525410e-06 -7.815502e-06 1.000000e-07
1.284841e-05 7.740701e-06 1.000000e-07
1.479651e-05 -9.183704e-08 1.000000e-07
-3.754311e-06 1.430884e-05 1.000000e-07
9.355819e-06 7.995517e-06 1.000000e-07
1.173858e-05 4.385903e-06 1.000000e-07
-9.030170e-06 8.213853e-06 1.000000e-07
-1.098170e-05 5.062185e-06 1.000000e-07
1.932614e-06 -1.244770e-05 1.000000e-07
-1.393810e-05 -5.220875e-06 1.000000e-07
-1.393418e-05 -5.067492e-06 1.000000e-07
1.300137e-05 -4.765667e-06 1.000000e-07
1.275893e-05 7.887319e-06 1.000000e-07
1.084371e-05 9.731966e-06 1.000000e-07
9.607851e-06 -7.656810e-06 1.000000e-07
-5.953467e-06 1.063642e-05 1.000000e-07
-2.701768e-06 -1.219476e-05 1.000000e-07
-8.196186e-06 -9.305659e-06 1.000000e-07
-1.105198e-05 9.571150e-06 1.000000e-07
1.120044e-05 -5.879699e-06 1.000000e-07
1.130716e-05 -6.119649e-06 1.000000e-07
-9.857817e-06 7.522652e-06 1.000000e-07
1.136390e-05 4.208158e-06 1.000000e-07
5.155385e-06 1.408623e-05 -1.000000e-07
1.268366e-05 8.007796e-06 1.000000e-07
1.019930e-05 -6.508453e-06 1.000000e-07
-9.554383e-06 7.882225e-06 1.000000e-07
-1.158292e-05 -3.409584e-06 1.000000e-07
8.068537e-06 -9.774394e-06 1.000000e-07
2.369167e-06 -1.188985e-05 1.000000e-07
9.275661e-06 -1.023838e-05 1.000000e-07
1.189203e-05 -8.086833e-06 1.000000e-07
1.149533e-05 9.466646e-06 1.000000e-07
1.031919e-05 6.310473e-06 1.000000e-07
-1.232098e-05 1.712647e-06 1.000000e-07
1.262815e-05 8.095042e-06 1.000000e-07
7.937366e-06 9.118490e-06 1.000000e-07
1.059093e-05 -8.207327e-06 1.000000e-07
1.085545e-05 -8.397774e-06 1.000000e-07
1.311550e-05 -3.589039e-06 1.000000e-07
-2.997584e-06 -1.457215e-05 1.000000e-07
6.846866e-06 1.114357e-05 1.000000e-07
5.662614e-06 -1.365450e-05 1.000000e-07
-1.295812e-05 -6.369823e-06 1.000000e-07
-1.195526e-05 3.787827e-06 1.000000e-07
-1.109614e-05 -5.157630e-06 1.000000e-07
1.256731e-05 8.189176e-06 1.000000e-07
[...]
POINT_DATA 11156
VECTORS 10.000GHz_fone_imag double
2.959286e-02 -5.086783e-05 5.625310e-02
2.933420e-02 2.174532e-03 5.614559e-02
1.076859e-02 2.742488e-02 5.622508e-02
-2.767303e-02 -9.960872e-03 5.620856e-02
-1.310965e-02 6.629873e-02 -3.921497e-02
-1.784311e-02 5.614336e-02 -1.991061e-02
4.516301e-02 -1.258500e-02 2.810401e-02
9.958041e-03 -6.754977e-02 -6.001628e-02
5.730255e-02 2.017122e-02 -2.273475e-02
-4.569123e-02 -3.265432e-02 -1.613838e-02
3.875240e-02 -5.437362e-02 -3.683355e-02
9.127131e-03 5.333296e-02 -1.371645e-02
-2.667148e-02 -3.343842e-02 -1.940024e-04
3.182350e-03 4.661717e-02 2.279252e-02
-2.756402e-02 -1.026248e-02 5.620302e-02
-8.291398e-04 -4.310127e-02 6.099971e-03
-6.499124e-02 -1.884219e-02 -6.182362e-02
-1.824593e-02 3.942692e-02 -1.373591e-03
5.681932e-02 -4.593828e-03 -1.731029e-02
2.557012e-02 -3.389708e-02 6.933348e-04
1.298853e-02 5.287080e-02 -1.411339e-02
-4.148749e-02 -5.111169e-02 -3.365703e-02
3.078177e-02 -3.374460e-02 3.586939e-02
2.028118e-02 -6.486388e-02 -4.190140e-02
-4.481968e-02 -4.937068e-02 -3.690148e-02
-2.741610e-02 -1.060220e-02 5.616081e-02
2.838879e-02 -4.937566e-02 -1.743785e-02
4.215093e-02 1.754856e-02 3.509288e-02
3.673880e-02 2.149312e-02 2.874049e-04
3.845702e-02 2.167297e-02 -2.378285e-03
6.606568e-02 1.542151e-02 -4.107021e-02
-2.020614e-02 4.213776e-02 2.459343e-02
5.232975e-02 4.326565e-02 -4.198327e-02
-4.119902e-02 -1.025518e-02 4.099926e-03
-4.123588e-02 -9.312885e-03 2.143633e-03
-3.706815e-02 2.669345e-02 1.542570e-02
-2.730188e-02 -1.088337e-02 5.619565e-02
6.691961e-02 1.157649e-02 -6.085088e-02
-6.003252e-02 -2.058621e-02 -2.778008e-02
-2.363812e-02 5.607726e-02 -2.296080e-02
4.615545e-02 -4.365744e-02 -2.850387e-02
6.705405e-02 9.548665e-03 -4.061223e-02
2.378959e-02 4.535334e-02 -1.036067e-02
-1.361808e-02 -5.527379e-02 -1.698255e-02
-4.733141e-02 -3.995671e-02 -2.551954e-02
-2.565245e-02 -5.879523e-02 -2.986105e-02
3.720321e-02 -5.575868e-02 -3.729792e-02
-2.716957e-02 -1.122660e-02 5.627513e-02
-2.373809e-02 6.258037e-02 -3.635287e-02
-2.694675e-02 3.773817e-02 -5.398342e-03
-3.783894e-02 -1.984841e-02 5.507321e-03
-2.760475e-02 -3.352096e-02 7.468812e-03
4.215305e-02 6.374704e-03 4.081539e-04
-3.828297e-02 -3.583278e-02 -1.182423e-02
-2.742915e-02 -4.029654e-02 -7.891934e-03
5.039045e-02 4.567604e-02 -5.977669e-02
-3.737792e-02 -2.242565e-02 -1.911178e-03
-3.424441e-02 -2.730632e-02 -1.973689e-03
-2.714425e-02 -1.156004e-02 5.635317e-02
6.654517e-02 -1.098774e-02 -3.868923e-02
-6.548156e-02 -1.876271e-02 -4.259904e-02
2.109279e-02 6.361550e-02 -3.731061e-02
-6.285111e-02 -5.647379e-03 -2.706377e-02
-4.327887e-02 -4.932280e-02 -3.362901e-02
-2.576947e-03 4.706355e-02 2.059548e-02
-2.170150e-02 4.262792e-02 -6.674926e-03
-6.658906e-02 5.882323e-03 -6.487596e-02
6.422645e-02 1.987890e-02 -6.337051e-02
-4.323684e-02 4.986129e-02 -3.468002e-02
-2.700130e-02 -1.187027e-02 5.630191e-02
-4.494934e-02 5.173287e-02 -4.613298e-02
-6.384194e-02 -2.132146e-02 -3.915506e-02
4.818300e-02 -4.686501e-02 -6.347041e-02
2.843932e-02 3.729705e-02 2.824822e-02
-3.610705e-03 6.756342e-02 -6.197908e-02
-3.783581e-02 1.890988e-02 2.744199e-03
3.699933e-03 6.119459e-02 -2.384698e-02
3.249039e-02 -2.834723e-02 -1.146053e-03
3.361644e-02 -2.951643e-02 -3.509160e-03
-4.054323e-02 -4.557949e-02 -2.364501e-02
-2.686434e-02 -1.214649e-02 5.626787e-02
-4.725744e-02 -4.836689e-02 -4.027292e-02
-4.261370e-02 2.480425e-03 -6.947928e-05
-5.931896e-02 -3.293102e-02 -6.100878e-02
-3.400543e-02 -5.289895e-02 -2.644082e-02
2.880849e-02 -4.209145e-02 -1.032804e-02
3.845177e-02 2.461905e-02 3.682072e-02
-4.891889e-02 2.413296e-02 -1.425356e-02
-2.985306e-02 -3.242072e-02 9.564156e-03
-4.012380e-02 -5.417421e-02 -6.257325e-02
-7.175877e-03 6.638047e-02 -3.601974e-02
-2.676288e-02 -1.246763e-02 5.637672e-02
4.096020e-02 -5.400426e-02 -4.117645e-02
2.059868e-03 -5.955497e-02 -2.127244e-02
-5.106386e-02 -2.249602e-02 -1.569848e-02
3.910972e-02 -1.718619e-02 5.099691e-03
2.660720e-02 -5.012890e-02 -1.684164e-02
1.247980e-02 6.546531e-02 -3.605198e-02
-1.301936e-02 -6.563670e-02 -6.508625e-02
-2.700774e-02 -3.850405e-02 2.704974e-02
-6.759361e-02 -7.380308e-03 -6.000503e-02
3.078093e-02 -5.517468e-02 -2.744557e-02
-2.658458e-02 -1.274382e-02 5.631511e-02
3.974137e-02 -4.355095e-02 -2.042559e-02
6.731709e-02 5.314384e-03 -6.190827e-02
1.471456e-02 4.430007e-02 3.093327e-02
-1.509233e-02 -4.300395e-02 3.662009e-02
-3.565247e-02 2.986415e-02 -5.473336e-03
-3.562761e-02 2.922392e-02 3.412266e-02
6.610568e-02 1.745431e-02 -4.459256e-02
-4.434147e-02 1.222416e-02 3.472273e-02
-6.037990e-02 -2.779758e-02 -6.626493e-02
5.386174e-02 -1.804904e-02 -1.702549e-02
1.048650e-02 2.755608e-02 5.623893e-02
-2.643341e-02 -1.305740e-02 5.630987e-02
4.418246e-02 4.470127e-02 -2.735093e-02
-2.945632e-02 -3.656734e-02 2.708810e-02
4.658167e-02 4.876623e-02 -6.223076e-02
-5.968149e-02 3.298774e-02 -4.240812e-02
-6.770078e-02 -8.879455e-03 -5.901773e-02
1.239749e-02 6.171446e-02 -2.656253e-02
2.908763e-02 -3.577279e-02 3.421618e-02
-4.687274e-02 1.646469e-03 2.626693e-02
-5.304550e-02 4.087822e-02 -3.778373e-02
6.535437e-02 -1.905032e-02 -5.966135e-02
-2.631311e-02 -1.334075e-02 5.634844e-02
5.367696e-02 -2.722280e-03 -1.344096e-02
-6.487861e-02 6.015413e-04 -3.174016e-02
-3.028318e-02 -2.989068e-02 4.333437e-03
-4.129722e-02 1.017549e-02 4.671846e-04
-5.484142e-02 -3.642512e-02 -6.951940e-02
-3.035133e-02 6.077447e-02 -6.035515e-02
-3.415696e-02 -2.973393e-02 3.751661e-02
5.669313e-02 -2.530362e-02 -2.525927e-02
5.005143e-02 3.512327e-02 -2.376723e-02
-3.148749e-02 3.317844e-02 3.592614e-02
-2.622364e-02 -1.353538e-02 5.635893e-02
-4.037675e-02 -5.371170e-02 -3.845962e-02
4.246341e-02 1.681121e-02 3.589407e-02
-3.768390e-02 2.605933e-02 1.650318e-02
6.060235e-02 2.624561e-02 -3.449857e-02
-5.461356e-02 4.146942e-02 -4.702556e-02
2.592401e-02 -5.737930e-02 -2.686601e-02
4.656594e-02 1.887330e-04 2.136524e-02
-5.800884e-02 3.299085e-02 -6.571904e-02
6.536280e-02 3.304635e-03 -6.996581e-02
1.701642e-02 5.647363e-02 -2.026640e-02
-2.610167e-02 -1.374462e-02 5.634131e-02
2.478112e-02 4.536674e-02 -1.093730e-02
-6.572431e-02 -1.981687e-02 -5.606623e-02
-1.285712e-02 -6.591397e-02 -3.864403e-02
-4.464518e-02 9.811296e-03 -4.385047e-03
6.311210e-02 -2.767377e-03 -2.780991e-02
-3.609581e-02 2.883918e-02 1.797407e-02
-3.462067e-02 -2.951944e-02 3.714222e-02
-1.671556e-02 -3.988159e-02 7.093730e-03
4.581530e-02 -4.740490e-02 -6.819461e-02
-3.466568e-02 -2.540539e-02 -5.949837e-04
-2.597266e-02 -1.400787e-02 5.627289e-02
4.019118e-02 -2.267949e-02 -5.016622e-03
4.458548e-03 -4.622763e-02 1.934670e-02
-3.905600e-02 1.995713e-02 -2.045263e-03
1.011373e-02 6.475075e-02 -3.260427e-02
4.582386e-02 -4.644797e-02 -3.244400e-02
6.510699e-02 -3.591743e-03 -3.170543e-02
-6.836746e-02 -6.017779e-03 -5.567666e-02
-4.187816e-02 5.156382e-02 -3.590313e-02
-1.237214e-02 4.521996e-02 -6.170699e-03
-1.492045e-02 -5.471672e-02 -1.690838e-02
-2.578283e-02 -1.430028e-02 5.625336e-02
-7.364018e-03 -6.609888e-02 -6.721140e-02
-1.081970e-02 -4.178581e-02 -1.103414e-03
3.678662e-02 2.092784e-02 2.545630e-03
-2.019157e-02 -4.106192e-02 3.570686e-02
-4.175737e-04 -5.783675e-02 -1.889615e-02
4.137713e-04 -5.598149e-02 -1.632589e-02
2.111189e-02 -3.708197e-02 5.048774e-03
2.125141e-02 -3.660839e-02 1.729609e-03
-5.437114e-02 3.955249e-02 -6.367970e-02
-4.805895e-02 3.788337e-02 -2.388254e-02
-2.563062e-02 -1.461982e-02 5.624879e-02
5.153224e-02 -4.095138e-02 -3.403492e-02
-5.037362e-02 -1.751033e-02 -1.282671e-02
-1.338876e-02 -4.247363e-02 1.147720e-02
2.304052e-02 5.006386e-02 -1.509051e-02
-2.085185e-02 -6.541484e-02 -4.769003e-02
-1.241470e-02 -4.071455e-02 4.684388e-03
-6.485230e-02 -1.523021e-02 -6.597916e-02
-4.206382e-02 -2.054074e-02 -5.705773e-03
-1.941794e-02 4.248358e-02 2.520603e-02
5.161313e-02 4.372461e-02 -6.127482e-02
-2.535555e-02 -1.496732e-02 5.636566e-02
5.099017e-02 -4.425338e-02 -4.020558e-02
6.336891e-02 7.251698e-03 -2.822526e-02
-6.063768e-02 -2.908821e-02 -6.365924e-02
1.617663e-02 -6.440051e-02 -6.698935e-02
-4.302873e-02 -1.238654e-04 6.040542e-03
6.629515e-03 4.332649e-02 -2.076324e-03
2.246058e-02 3.625320e-02 4.287514e-03
-1.593361e-02 -5.177393e-02 -1.372447e-02
2.512418e-02 -3.804071e-02 3.658590e-02
-5.082351e-02 4.158689e-02 -3.381469e-02
-2.521211e-02 -1.522839e-02 5.636445e-02
-4.690044e-02 3.571227e-04 2.703339e-02
1.184605e-02 -4.544570e-02 2.718693e-02
-5.033892e-02 -4.292019e-02 -3.491940e-02
-5.574800e-02 -2.086789e-02 -2.099651e-02
5.076872e-02 -4.611503e-02 -4.614277e-02
6.036855e-02 -2.786364e-02 -6.599053e-02
-8.831771e-03 5.696023e-02 -1.846423e-02
4.271565e-02 1.597767e-02 3.687750e-02
4.375088e-02 1.589922e-02 3.022856e-02
-3.973282e-02 1.465248e-02 1.264804e-03
-2.505618e-02 -1.552457e-02 5.639606e-02
-3.381130e-02 -3.045994e-02 1.464783e-02
-5.219101e-02 4.166479e-02 -3.709561e-02
3.362088e-02 -6.012231e-02 -4.855835e-02
1.311356e-02 5.919945e-02 -2.260005e-02
4.189906e-02 4.755243e-02 -2.795809e-02
3.475178e-02 -3.003320e-02 1.683407e-02
-4.994830e-02 2.618315e-02 -1.631903e-02
-4.559337e-02 2.465738e-02 -1.089161e-02
5.030018e-02 -3.837123e-02 -2.817334e-02
-6.360835e-02 -2.359814e-02 -6.025866e-02
1.010950e-02 2.769765e-02 5.619644e-02
-2.492505e-02 -1.575495e-02 5.640032e-02
-5.646937e-02 3.602372e-02 -6.447523e-02
4.923099e-02 -4.056836e-02 -2.907515e-02
6.244655e-02 1.844740e-02 -7.037284e-02
-3.549645e-02 4.290548e-02 -1.566948e-02
-1.334289e-02 6.686021e-02 -5.949519e-02
-2.850339e-02 3.149126e-02 8.795070e-04
-3.625852e-02 2.463414e-02 9.119472e-03
-3.489446e-02 -2.875173e-02 3.781474e-02
-5.711266e-02 -3.483629e-02 -6.509524e-02
6.158244e-02 -8.489611e-03 -2.560208e-02
-2.488386e-02 -1.590183e-02 5.635006e-02
-4.350114e-02 -4.994471e-02 -6.688231e-02
-3.529869e-02 2.731187e-02 -3.412206e-03
-3.375089e-02 2.618914e-02 -1.375160e-04
-4.162755e-02 1.126634e-02 -1.249147e-03
9.090863e-03 4.479482e-02 3.586362e-02
-2.519025e-02 -4.092632e-02 -7.130713e-03
-1.779411e-02 4.324041e-02 2.628196e-02
3.976834e-02 1.953712e-02 1.060040e-02
5.642762e-02 -1.791119e-02 -2.023513e-02
6.180620e-02 2.872725e-02 -4.233657e-02
-2.472186e-02 -1.617630e-02 5.631289e-02
-1.892138e-02 6.504985e-02 -4.042149e-02
-6.284005e-02 2.613790e-02 -4.283209e-02
5.055218e-02 -4.469096e-02 -6.237926e-02
-5.551936e-02 4.001582e-02 -4.440926e-02
-1.616674e-03 4.376616e-02 -2.283754e-03
3.579952e-02 -5.785039e-02 -4.191988e-02
-3.248905e-02 2.732670e-02 3.387114e-03
-3.279141e-02 2.700496e-02 7.176691e-04
6.232204e-02 -7.464569e-03 -2.651842e-02
-5.227424e-02 -3.879355e-02 -3.178225e-02
-2.455296e-02 -1.637356e-02 5.631555e-02
-4.013176e-02 -2.191462e-02 3.614705e-02
1.984498e-02 4.222341e-02 2.982718e-02
3.723066e-02 -4.851374e-02 -2.401502e-02
-4.425845e-02 4.839372e-02 -3.339374e-02
-4.738367e-02 4.927302e-02 -4.465587e-02
-5.752939e-03 -6.023471e-02 -2.294849e-02
-4.658105e-02 -4.367453e-04 3.174542e-02
7.105171e-03 -6.528295e-02 -3.304892e-02
-3.456305e-02 -4.290708e-02 -1.503321e-02
-1.972294e-02 3.818537e-02 5.999461e-03
-2.436866e-02 -1.666619e-02 5.629180e-02
-4.285047e-02 1.353633e-03 5.802429e-03
-4.234385e-02 1.531578e-03 1.836183e-03
1.100192e-02 4.486165e-02 1.792285e-02
-5.746955e-02 -3.612723e-02 -4.103399e-02
-3.737687e-02 2.056944e-02 5.333566e-03
2.671395e-02 5.384091e-02 -2.215286e-02
-4.829541e-02 1.454032e-02 -9.641340e-03
5.195341e-02 4.336882e-02 -6.149277e-02
5.131391e-02 2.670999e-02 -1.834960e-02
5.255910e-02 -4.220573e-02 -6.316319e-02
-2.414872e-02 -1.684895e-02 5.625868e-02
-4.804848e-02 -4.618970e-02 -6.619295e-02
-8.592449e-03 -5.268278e-02 -1.269621e-02
3.636042e-02 5.704912e-02 -6.206824e-02
5.279070e-02 4.290619e-02 -4.158213e-02
-3.045981e-02 3.518826e-02 -5.267275e-03
-3.680210e-03 -6.714617e-02 -3.873126e-02
1.607488e-02 6.126925e-02 -2.780878e-02
-4.089574e-02 -1.944710e-02 3.721892e-02
3.752400e-02 -2.569869e-02 3.686712e-02
-3.533537e-02 5.150449e-02 -2.618290e-02
-2.395151e-02 -1.711134e-02 5.625587e-02
-3.543677e-02 5.055377e-02 -2.490186e-02
6.137388e-02 2.095853e-02 -3.138012e-02
6.158700e-02 2.028123e-02 -3.153952e-02
-2.466278e-02 3.498045e-02 5.662592e-03
-5.674753e-02 3.698687e-02 -4.099111e-02
-3.748732e-02 -2.300002e-02 9.571338e-03
-4.312590e-02 4.408403e-02 -2.466223e-02
-5.937388e-02 -2.364382e-02 -2.921335e-02
-5.601536e-02 -1.253545e-02 -1.776814e-02
-4.130926e-02 -5.278292e-02 -3.788282e-02
-2.380323e-02 -1.736179e-02 5.628685e-02
-3.693468e-02 -2.565116e-02 1.297173e-02
2.444590e-02 6.364105e-02 -4.314035e-02
-4.653661e-02 5.420186e-03 2.763177e-02
-2.355342e-02 3.907393e-02 1.495671e-02
3.749552e-02 -2.331842e-02 4.073499e-02
5.762451e-02 6.357797e-03 -1.856432e-02
2.093610e-03 4.693532e-02 2.635322e-02
-3.644192e-02 -2.607576e-02 1.257965e-02
3.114816e-02 -3.336461e-02 3.639494e-02
1.199175e-02 4.257065e-02 1.079901e-02
-2.368400e-02 -1.763474e-02 5.634578e-02
-6.726696e-02 -2.622981e-03 -6.259076e-02
-4.238011e-02 -1.067745e-02 -2.136433e-03
-6.561323e-02 -1.801081e-02 -4.257944e-02
5.424647e-02 -3.943872e-02 -6.375438e-02
-4.214106e-02 4.959279e-02 -3.229409e-02
3.186241e-02 5.970245e-02 -4.068203e-02
4.624168e-02 1.185070e-02 -6.696178e-03
-5.222263e-02 4.037766e-02 -6.784843e-02
6.522704e-02 -5.797831e-03 -3.295591e-02
-6.409561e-02 -1.334448e-02 -3.281781e-02
-2.352658e-02 -1.787382e-02 5.637299e-02
-3.405057e-02 -3.175895e-02 -5.464459e-03
5.712962e-02 3.238716e-02 -3.308972e-02
6.054643e-02 -9.607845e-03 -2.406575e-02
-5.557333e-03 4.606194e-02 1.924643e-02
3.695148e-02 -5.464361e-02 -6.760160e-02
-6.813529e-02 -2.233746e-03 -4.377898e-02
1.099942e-02 -4.465163e-02 -4.938453e-03
-2.211218e-02 -6.152942e-02 -3.260438e-02
-1.707031e-02 -6.643800e-02 -4.553503e-02
2.908267e-02 -3.494558e-02 3.673431e-02
9.853798e-03 2.779298e-02 5.617352e-02
-2.335181e-02 -1.808047e-02 5.633653e-02
-4.100906e-02 -4.251597e-02 -2.022844e-02
4.440637e-02 5.062781e-02 -6.352106e-02
-2.434547e-02 3.768512e-02 -3.692711e-03
2.620292e-02 -3.877352e-02 2.209834e-02
6.510563e-03 5.892857e-02 -2.037620e-02
7.101862e-03 5.729894e-02 -1.813514e-02
1.921537e-02 6.398303e-02 -6.486151e-02
4.535528e-02 -3.578961e-02 -1.842473e-02
3.857041e-02 -2.533519e-02 3.402939e-02
3.540260e-02 -2.940612e-02 1.678864e-02
-2.320751e-02 -1.827103e-02 5.634726e-02
5.072070e-02 4.490943e-02 -6.094732e-02
-4.668556e-02 -8.599796e-04 3.151444e-02
-4.239319e-02 4.076464e-02 -1.964625e-02
-3.938383e-02 5.212693e-02 -6.967833e-02
4.247743e-02 -1.279970e-03 3.049820e-03
-3.675117e-02 -2.098445e-02 2.984637e-03
-4.397891e-02 -5.232692e-02 -4.540734e-02
2.821500e-02 3.212462e-02 3.378281e-04
-6.522805e-02 -1.718320e-02 -6.284660e-02
-5.965287e-03 5.118906e-02 -1.061549e-02
-2.303159e-02 -1.846239e-02 5.637994e-02
-3.102159e-02 4.992444e-02 -1.974099e-02
-5.125837e-02 4.446801e-02 -4.234939e-02
-1.536591e-03 5.430452e-02 -1.389956e-02
4.549500e-02 1.077617e-02 2.959602e-02
1.846337e-02 3.812928e-02 1.171821e-03
3.561810e-02 4.215111e-02 -1.518110e-02
3.617685e-02 4.398699e-02 -1.718145e-02
4.367564e-02 5.169864e-02 -6.191645e-02
2.256579e-02 4.105199e-02 2.463797e-02
1.481966e-02 -4.308359e-02 -4.310484e-03
-2.286883e-02 -1.861106e-02 5.635623e-02
-6.637141e-02 -1.612202e-02 -5.885183e-02
-9.743844e-03 -6.752310e-02 -5.931200e-02
3.663575e-02 -2.792081e-02 -4.650346e-03
-2.459814e-02 4.633998e-02 -1.166431e-02
-4.802176e-02 -1.732483e-02 -1.063366e-02
-5.881135e-02 3.055557e-02 -6.663558e-02
-4.253272e-02 1.201876e-02 1.059394e-02
-3.397308e-02 -2.851453e-02 4.035115e-02
1.279859e-02 -4.098716e-02 6.341001e-03
-3.486786e-02 5.672863e-02 -6.710781e-02
-2.264005e-02 -1.878065e-02 5.638481e-02
-4.817561e-02 -3.912817e-02 -2.550279e-02
-2.043348e-02 5.778442e-02 -2.383434e-02
-4.107138e-02 -1.107141e-02 2.749785e-04
6.514003e-02 1.859372e-02 -4.076235e-02
-4.699269e-02 4.772671e-02 -6.410535e-02
-6.195701e-02 -2.906587e-02 -4.438226e-02
-3.801200e-02 -1.927553e-02 1.868135e-04
-5.147562e-02 -4.394375e-02 -6.144892e-02
4.648926e-02 3.138208e-03 -5.488648e-03
-3.098731e-02 3.229259e-02 1.246704e-02
-2.242092e-02 -1.896526e-02 5.639468e-02
-3.900750e-02 -2.386681e-02 3.597860e-02
-3.680807e-02 2.809910e-02 1.872439e-02
3.347632e-02 2.647327e-02 7.896565e-05
-2.263610e-02 -5.199445e-02 -1.690983e-02
4.475040e-02 1.189300e-02 3.282582e-02
3.773163e-02 -5.524668e-02 -3.700743e-02
3.294529e-02 -5.623823e-02 -3.189522e-02
3.320899e-02 5.782049e-02 -3.653813e-02
-1.202562e-02 -4.303233e-02 3.947483e-02
3.633393e-02 3.962359e-02 -1.330097e-02
-2.233390e-02 -1.925836e-02 5.634254e-02
4.617243e-02 7.231387e-03 2.488072e-02
3.051522e-02 -4.720317e-02 -1.625876e-02
3.323228e-02 -2.689617e-02 -2.722193e-04
-2.656610e-02 4.307207e-02 -9.933159e-03
-3.927444e-02 -1.630271e-02 4.417129e-03
-2.724781e-02 3.364990e-02 -1.459950e-03
4.917839e-02 4.572873e-02 -3.859425e-02
5.771358e-03 -5.801835e-02 -1.922832e-02
1.175523e-02 -6.687498e-02 -4.068478e-02
-4.330891e-02 1.641822e-02 1.876146e-02
-2.217768e-02 -1.948090e-02 5.635427e-02
2.402414e-02 -6.087136e-02 -3.298323e-02
1.805019e-02 -3.843811e-02 3.388233e-03
-2.569816e-02 3.452229e-02 -8.471533e-04
4.148903e-02 -5.007089e-02 -3.188088e-02
3.039082e-02 5.438534e-02 -2.560279e-02
3.612004e-02 3.806467e-02 -1.193960e-02
2.408462e-02 4.012497e-02 2.602039e-02
6.345301e-02 -2.464465e-02 -6.007204e-02
1.225384e-03 -6.723727e-02 -3.835517e-02
4.097661e-02 5.046663e-02 -3.150432e-02
-2.195035e-02 -1.971060e-02 5.625633e-02
-4.051963e-02 1.173121e-02 3.006058e-03
-4.081925e-02 1.176236e-02 3.845438e-04
5.015621e-02 4.551228e-02 -4.130604e-02
-4.626260e-02 -1.484367e-02 -7.779921e-03
5.441310e-02 1.063041e-02 -1.511023e-02
1.677914e-02 -3.974751e-02 6.879824e-03
-6.564610e-02 1.750521e-02 -6.087585e-02
3.959758e-03 6.804453e-02 -4.357829e-02
-1.557206e-02 -4.712891e-02 -8.496868e-03
2.534675e-02 -5.744543e-02 -2.666214e-02
-2.176989e-02 -1.991586e-02 5.623861e-02
3.837269e-02 -5.497670e-02 -6.399926e-02
6.223487e-02 -2.653694e-02 -6.187207e-02
6.616916e-02 -1.589027e-02 -6.016884e-02
6.246511e-02 -2.156694e-02 -3.442864e-02
3.315901e-03 -6.504654e-02 -3.197674e-02
-5.480103e-02 -3.020229e-02 -2.590658e-02
-3.917820e-02 5.624563e-02 -4.577759e-02
3.522859e-02 3.137742e-02 -6.060841e-03
-4.001137e-02 -1.382726e-02 3.612187e-03
4.868189e-03 -6.744803e-02 -3.960478e-02
9.606652e-03 2.795175e-02 5.624390e-02
-2.155623e-02 -2.011196e-02 5.622836e-02
-1.028312e-02 -6.632971e-02 -3.762156e-02
1.664172e-02 6.608972e-02 -4.214731e-02
2.099373e-02 5.245221e-02 -1.696063e-02
1.907486e-02 4.747358e-02 -1.031211e-02
6.441883e-02 1.788622e-02 -6.504561e-02
-1.261365e-02 -6.102782e-02 -2.565138e-02
-1.868264e-02 -6.312259e-02 -6.912301e-02
-5.224160e-02 4.168774e-02 -6.476541e-02
4.478541e-02 2.476262e-02 -1.036387e-02
-4.234365e-02 -5.167108e-02 -6.479395e-02
-2.134987e-02 -2.024071e-02 5.620607e-02
7.820618e-03 6.607530e-02 -3.525193e-02
3.513269e-02 2.348035e-02 2.753348e-03
2.449613e-02 6.193844e-02 -6.685128e-02
5.239156e-02 4.243488e-02 -6.245511e-02
1.645460e-02 -5.808563e-02 -2.258099e-02
-4.179204e-02 1.314041e-02 8.977411e-03
5.850123e-02 3.547755e-02 -4.337571e-02
-3.931067e-02 2.038172e-02 1.069396e-02
1.769831e-02 5.591786e-02 -1.974726e-02
-3.492371e-02 -2.647136e-02 -2.287980e-03
-2.108785e-02 -2.050819e-02 5.621309e-02
-4.821151e-02 4.853956e-02 -4.415833e-02
6.078183e-02 -3.105746e-02 -5.871336e-02
-4.567521e-02 -2.488264e-02 -1.124134e-02
-4.524540e-02 -5.072338e-02 -4.204274e-02
-6.722100e-02 9.982309e-03 -6.065794e-02
6.000499e-02 2.956607e-02 -6.528228e-02
6.750815e-02 -4.494060e-03 -6.154264e-02
-4.570870e-02 -2.671767e-02 -1.243554e-02
3.158587e-02 -6.043189e-02 -4.262379e-02
4.330598e-02 -1.763648e-02 2.521493e-02
-2.079677e-02 -2.077510e-02 5.618485e-02
3.311048e-02 5.333790e-02 -2.675620e-02
3.098612e-02 5.098913e-02 -2.122926e-02
4.666645e-02 -3.212592e-02 -1.722664e-02
-3.824703e-03 -4.411481e-02 1.057558e-02
1.452327e-02 6.486684e-02 -6.647631e-02
1.793327e-02 6.594291e-02 -4.388467e-02
3.971191e-02 -1.899791e-02 -2.171597e-03
3.173562e-02 -2.831546e-02 4.340464e-03