# vtk DataFile Version 2.0
Electric current density generated by TTH
ASCII
DATASET UNSTRUCTURED_GRID
POINTS 76 double
1.500000e-05 0.000000e+00 -1.000000e-07
-4.635255e-06 1.426585e-05 -1.000000e-07
-8.816779e-06 1.213525e-05 -1.000000e-07
-1.213525e-05 8.816779e-06 -1.000000e-07
-1.426585e-05 4.635255e-06 -1.000000e-07
-1.500000e-05 3.514366e-20 -1.000000e-07
-1.426585e-05 -4.635255e-06 -1.000000e-07
-1.213525e-05 -8.816779e-06 -1.000000e-07
-8.816779e-06 -1.213525e-05 -1.000000e-07
-4.635255e-06 -1.426585e-05 -1.000000e-07
-9.601419e-20 -1.500000e-05 -1.000000e-07
1.300000e-05 0.000000e+00 -1.000000e-07
4.635255e-06 -1.426585e-05 -1.000000e-07
8.816779e-06 -1.213525e-05 -1.000000e-07
1.213525e-05 -8.816779e-06 -1.000000e-07
1.426585e-05 -4.635255e-06 -1.000000e-07
1.221600e-05 4.446262e-06 -1.000000e-07
9.958578e-06 8.356239e-06 -1.000000e-07
6.500000e-06 1.125833e-05 -1.000000e-07
2.257426e-06 1.280250e-05 -1.000000e-07
-2.257426e-06 1.280250e-05 -1.000000e-07
-6.500000e-06 1.125833e-05 -1.000000e-07
1.500000e-05 0.000000e+00 1.000000e-07
-9.958578e-06 8.356239e-06 -1.000000e-07
-1.221600e-05 4.446262e-06 -1.000000e-07
-1.300000e-05 -1.572744e-20 -1.000000e-07
-1.221600e-05 -4.446262e-06 -1.000000e-07
-9.958578e-06 -8.356239e-06 -1.000000e-07
-6.500000e-06 -1.125833e-05 -1.000000e-07
-2.257426e-06 -1.280250e-05 -1.000000e-07
2.257426e-06 -1.280250e-05 -1.000000e-07
6.500000e-06 -1.125833e-05 -1.000000e-07
9.958578e-06 -8.356239e-06 -1.000000e-07
1.300000e-05 0.000000e+00 1.000000e-07
1.221600e-05 -4.446262e-06 -1.000000e-07
1.426585e-05 4.635255e-06 1.000000e-07
1.213525e-05 8.816779e-06 1.000000e-07
8.816779e-06 1.213525e-05 1.000000e-07
4.635255e-06 1.426585e-05 1.000000e-07
1.091049e-20 1.500000e-05 1.000000e-07
-4.635255e-06 1.426585e-05 1.000000e-07
-8.816779e-06 1.213525e-05 1.000000e-07
-1.213525e-05 8.816779e-06 1.000000e-07
-1.426585e-05 4.635255e-06 1.000000e-07
1.426585e-05 4.635255e-06 -1.000000e-07
-1.500000e-05 3.514366e-20 1.000000e-07
-1.426585e-05 -4.635255e-06 1.000000e-07
-1.213525e-05 -8.816779e-06 1.000000e-07
-8.816779e-06 -1.213525e-05 1.000000e-07
-4.635255e-06 -1.426585e-05 1.000000e-07
-9.601419e-20 -1.500000e-05 1.000000e-07
4.635255e-06 -1.426585e-05 1.000000e-07
8.816779e-06 -1.213525e-05 1.000000e-07
1.213525e-05 -8.816779e-06 1.000000e-07
1.426585e-05 -4.635255e-06 1.000000e-07
1.213525e-05 8.816779e-06 -1.000000e-07
1.221600e-05 4.446262e-06 1.000000e-07
9.958578e-06 8.356239e-06 1.000000e-07
6.500000e-06 1.125833e-05 1.000000e-07
2.257426e-06 1.280250e-05 1.000000e-07
-2.257426e-06 1.280250e-05 1.000000e-07
-6.500000e-06 1.125833e-05 1.000000e-07
-9.958578e-06 8.356239e-06 1.000000e-07
-1.221600e-05 4.446262e-06 1.000000e-07
-1.300000e-05 -1.572744e-20 1.000000e-07
-1.221600e-05 -4.446262e-06 1.000000e-07
8.816779e-06 1.213525e-05 -1.000000e-07
-9.958578e-06 -8.356239e-06 1.000000e-07
-6.500000e-06 -1.125833e-05 1.000000e-07
-2.257426e-06 -1.280250e-05 1.000000e-07
2.257426e-06 -1.280250e-05 1.000000e-07
6.500000e-06 -1.125833e-05 1.000000e-07
9.958578e-06 -8.356239e-06 1.000000e-07
1.221600e-05 -4.446262e-06 1.000000e-07
4.635255e-06 1.426585e-05 -1.000000e-07
1.091049e-20 1.500000e-05 -1.000000e-07
CELLS 152 608
3 66 17 55
3 74 18 66
3 75 19 74
3 74 19 18
3 1 20 75
3 20 19 75
3 2 21 1
3 1 21 20
3 3 23 2
3 7 8 27
3 8 9 28
3 9 10 29
3 28 9 29
3 10 12 30
3 29 10 30
3 12 13 31
3 30 12 31
3 13 14 32
3 44 11 0
3 0 11 15
3 44 16 11
3 15 11 34
3 55 16 44
3 55 17 16
3 66 18 17
3 2 23 21
3 4 24 3
3 3 24 23
3 25 4 5
3 25 24 4
3 25 5 6
3 26 6 7
3 25 6 26
3 26 7 27
3 27 8 28
3 31 13 32
3 14 15 34
3 32 14 34
3 22 0 44
3 22 44 35
3 44 55 35
3 55 66 37
3 35 55 36
3 36 55 37
3 66 74 38
3 37 66 38
3 74 75 39
3 74 39 38
3 75 1 40
3 39 75 40
3 1 2 40
3 2 3 42
3 40 2 41
3 2 42 41
3 3 4 43
3 42 3 43
3 4 5 45
3 43 4 45
3 5 6 46
3 45 5 46
3 6 7 47
3 46 6 47
3 47 7 8
3 8 9 48
3 47 8 48
3 9 10 49
3 48 9 49
3 50 10 12
3 49 10 50
3 12 13 51
3 50 12 51
3 52 13 14
3 51 13 52
3 14 15 54
3 52 14 53
3 14 54 53
3 54 15 22
3 15 0 22
3 33 56 11
3 11 56 16
3 56 17 16
3 17 57 18
3 56 57 17
3 18 58 19
3 57 58 18
3 19 59 20
3 58 59 19
3 20 61 21
3 59 60 20
3 60 61 20
3 21 62 23
3 21 61 62
3 62 24 23
3 24 63 25
3 62 63 24
3 25 64 26
3 63 64 25
3 26 65 27
3 64 65 26
3 27 67 28
3 65 67 27
3 28 68 29
3 67 68 28
3 29 70 30
3 68 69 29
3 29 69 70
3 30 71 31
3 70 71 30
3 31 72 32
3 31 71 72
3 32 73 34
3 72 73 32
3 73 33 34
3 34 33 11
3 37 57 36
3 38 58 37
3 39 59 38
3 38 59 58
3 40 60 39
3 39 60 59
3 41 61 40
3 40 61 60
3 42 62 41
3 47 48 67
3 48 49 68
3 49 50 69
3 68 49 69
3 50 51 70
3 69 50 70
3 51 52 71
3 70 51 71
3 52 53 72
3 35 33 22
3 22 33 54
3 56 33 35
3 54 33 73
3 36 56 35
3 36 57 56
3 37 58 57
3 41 62 61
3 43 63 42
3 42 63 62
3 64 43 45
3 64 63 43
3 64 45 46
3 65 46 47
3 64 46 65
3 65 47 67
3 67 48 68
3 71 52 72
3 73 53 54
3 72 53 73
CELL_TYPES 152
5
5
5
5
5
5
5
5
5
5
5
5
5
5
5
5
5
5
5
5
5
5
5
5
5
5
5
5
5
5
5
5
5
5
5
5
5
5
5
5
5
5
5
5
5
5
5
5
5
5
5
5
5
5
5
5
5
5
5
5
5
5
5
5
5
5
5
5
5
5
5
5
5
5
5
5
5
5
5
5
5
5
5
5
5
5
5
5
5
5
5
5
5
5
5
5
5
5
5
5
5
5
5
5
5
5
5
5
5
5
5
5
5
5
5
5
5
5
5
5
5
5
5
5
5
5
5
5
5
5
5
5
5
5
5
5
5
5
5
5
5
5
5
5
5
5
5
5
5
5
5
5
POINT_DATA 76
VECTORS 10.000GHz_fone_imag double
2.558320e-02 4.205459e-06 5.324344e-02
-7.998182e-03 2.432689e-02 5.309986e-02
-1.528328e-02 2.033041e-02 5.303873e-02
-2.143068e-02 1.506228e-02 5.352401e-02
-2.525155e-02 7.931806e-03 5.377277e-02
-2.660717e-02 5.119439e-06 5.390585e-02
-2.522741e-02 -7.920940e-03 5.376955e-02
-2.141520e-02 -1.506041e-02 5.352579e-02
-1.534539e-02 -2.038142e-02 5.306469e-02
-7.828414e-03 -2.392740e-02 5.269699e-02
-2.060461e-04 -2.554131e-02 5.294325e-02
4.913461e-02 -4.558096e-06 -9.505837e-02
7.940708e-03 -2.428831e-02 5.296909e-02
1.511818e-02 -2.023939e-02 5.291104e-02
2.108974e-02 -1.469481e-02 5.331543e-02
2.527388e-02 -7.907441e-03 5.385756e-02
3.987564e-02 1.536688e-02 -9.203446e-02
3.287852e-02 2.890343e-02 -9.263853e-02
2.207901e-02 3.695052e-02 -9.204861e-02
7.721810e-03 4.305522e-02 -9.257519e-02
-6.963958e-03 4.599668e-02 -9.410123e-02
-2.224719e-02 3.675580e-02 -9.186778e-02
-2.554416e-02 1.428896e-06 5.324075e-02
-3.287567e-02 2.889402e-02 -9.263769e-02
-4.001972e-02 1.538079e-02 -9.221469e-02
-4.253437e-02 2.194756e-07 -9.211240e-02
-4.003546e-02 -1.538507e-02 -9.221491e-02
-3.286993e-02 -2.889331e-02 -9.263369e-02
-2.209962e-02 -3.698302e-02 -9.205686e-02
-8.753954e-03 -4.661748e-02 -9.458996e-02
7.564288e-03 -4.428847e-02 -9.326308e-02
2.240758e-02 -3.749382e-02 -9.236664e-02
3.389774e-02 -2.717648e-02 -9.215954e-02
-4.913599e-02 -6.885263e-06 -9.506010e-02
3.984059e-02 -1.534028e-02 -9.199454e-02
-2.524135e-02 -7.894619e-03 5.384466e-02
-2.141076e-02 -1.506162e-02 5.352508e-02
-1.535530e-02 -2.038792e-02 5.307068e-02
-7.965142e-03 -2.380444e-02 5.269835e-02
9.676879e-05 -2.511501e-02 5.261985e-02
7.981834e-03 -2.438244e-02 5.310992e-02
1.525758e-02 -2.033383e-02 5.303599e-02
2.139958e-02 -1.504284e-02 5.352042e-02
2.522985e-02 -7.921059e-03 5.377082e-02
2.527324e-02 7.901686e-03 5.384742e-02
2.660913e-02 3.158654e-06 5.390622e-02
2.525165e-02 7.931370e-03 5.377182e-02
2.142892e-02 1.504619e-02 5.352671e-02
1.531547e-02 2.036160e-02 5.305996e-02
7.824502e-03 2.390036e-02 5.269528e-02
1.806994e-04 2.548774e-02 5.293517e-02
-7.968763e-03 2.424775e-02 5.296063e-02
-1.512985e-02 2.025533e-02 5.291242e-02
-2.107935e-02 1.471118e-02 5.331509e-02
-2.524275e-02 7.898247e-03 5.385487e-02
2.142160e-02 1.504446e-02 5.352615e-02
-3.985021e-02 -1.535685e-02 -9.203234e-02
-3.286370e-02 -2.888722e-02 -9.263651e-02
-2.207199e-02 -3.693759e-02 -9.204772e-02
-7.718559e-03 -4.304122e-02 -9.257416e-02
6.963745e-03 -4.595269e-02 -9.409644e-02
2.223950e-02 -3.673591e-02 -9.186651e-02
3.287133e-02 -2.889900e-02 -9.263655e-02
4.003653e-02 -1.538773e-02 -9.221625e-02
4.253544e-02 -2.258063e-07 -9.211254e-02
4.001999e-02 1.537842e-02 -9.221383e-02
1.532343e-02 2.036182e-02 5.306596e-02
3.285457e-02 2.889199e-02 -9.263193e-02
2.208785e-02 3.696727e-02 -9.205549e-02
8.744728e-03 4.659782e-02 -9.458606e-02
-7.565644e-03 4.428844e-02 -9.326141e-02
-2.240219e-02 3.748184e-02 -9.236544e-02
-3.388517e-02 2.716000e-02 -9.215768e-02
-3.984711e-02 1.534863e-02 -9.199459e-02
7.959092e-03 2.379176e-02 5.269715e-02
-8.985223e-05 2.508868e-02 5.261805e-02
