# vtk DataFile Version 2.0
Electric current density generated by TTH
ASCII
DATASET UNSTRUCTURED_GRID
POINTS 3050 double
-1.443911e-05 2.553209e-05 -3.065925e-22
2.011578e-05 -1.798239e-05 -5.997551e-07
2.011578e-05 1.798239e-05 -5.997551e-07
-2.802324e-05 -1.736717e-06 -1.251754e-06
-2.677797e-05 -1.649097e-06 -1.207064e-08
8.268583e-06 2.557847e-05 -3.606746e-07
1.517738e-05 2.465670e-05 -8.969875e-07
-1.117931e-05 2.519889e-05 -1.141805e-06
-1.261966e-05 2.450282e-05 -1.139204e-06
-1.961887e-05 1.936649e-05 -1.141803e-06
-2.070499e-05 1.819196e-05 -1.139204e-06
-1.511652e-05 2.513696e-05 -3.065925e-22
-2.528840e-05 1.098279e-05 -1.143133e-06
9.530990e-06 -2.620035e-05 1.235624e-06
2.722951e-05 2.897119e-06 -1.039618e-06
2.722951e-05 -2.897119e-06 -1.039618e-06
1.399816e-05 -2.393595e-05 1.201322e-06
-8.321988e-06 -2.550697e-05 6.291893e-08
-2.374823e-05 -1.662813e-05 8.589906e-07
2.664012e-05 3.937232e-06 -4.922481e-07
2.664012e-05 -3.937232e-06 -4.922481e-07
1.116741e-05 -2.670049e-05 9.082444e-07
-1.578312e-05 2.472385e-05 -3.065925e-22
8.816164e-06 2.554703e-05 6.737976e-07
-2.585369e-05 -1.306533e-05 8.831490e-07
-2.617081e-05 -6.009218e-06 -2.399507e-07
-7.943913e-07 -2.726123e-05 -9.563915e-07
1.114302e-05 -2.542594e-05 1.210192e-06
3.993687e-06 2.876466e-05 -8.030998e-07
-1.322015e-05 -2.458895e-05 -1.241118e-06
1.635907e-05 2.211242e-05 -1.112172e-06
1.639261e-05 -2.390314e-05 -8.661607e-07
-2.731531e-05 2.940693e-06 1.094598e-06
-1.643844e-05 2.429307e-05 -3.065925e-22
-9.321192e-07 -2.896768e-05 -8.676429e-07
2.591697e-06 -2.887084e-05 -8.631949e-07
1.777620e-07 2.901485e-05 8.322769e-07
-2.851129e-06 2.889978e-05 -8.036937e-07
1.610692e-05 -2.263571e-05 1.215532e-06
-1.853733e-05 2.062602e-05 1.202304e-06
-2.192958e-05 1.700362e-05 1.207205e-06
-1.419396e-05 2.384452e-05 1.207205e-06
-9.667285e-06 2.595315e-05 1.191007e-06
-2.470703e-05 1.273797e-05 1.219338e-06
-1.708201e-05 2.384493e-05 -3.065925e-22
-2.687422e-05 7.049120e-06 -1.215999e-06
-1.850314e-05 -2.053331e-05 1.171820e-06
-1.105177e-05 -2.678309e-05 -8.768808e-07
-8.103767e-06 -2.652189e-05 1.202390e-06
-2.759737e-05 8.837665e-06 8.725700e-07
2.215508e-05 1.618106e-05 -1.072493e-06
2.215508e-05 -1.618106e-05 -1.072493e-06
-6.483612e-06 -2.615735e-05 -5.353855e-07
-5.704950e-06 -2.679937e-05 1.050605e-06
-2.864883e-05 4.649155e-06 8.229589e-07
-1.771337e-05 2.337974e-05 -3.065925e-22
2.872233e-05 -3.786744e-06 -8.797461e-07
2.872233e-05 3.786744e-06 -8.797461e-07
-2.836001e-05 6.171064e-06 8.229108e-07
-2.173353e-05 -1.738068e-05 1.226183e-06
-2.889841e-05 1.880449e-06 8.910857e-07
-2.656105e-05 -4.343853e-06 -4.540763e-07
-2.702821e-05 4.149510e-06 -1.012873e-06
-1.355602e-06 -2.895110e-05 8.674944e-07
1.562776e-05 2.286372e-05 1.190738e-06
-1.574976e-05 -2.281936e-05 -1.200792e-06
-1.833207e-05 2.289784e-05 -3.065925e-22
-2.751392e-05 9.106585e-06 -8.685366e-07
1.295674e-06 -2.695397e-05 6.059618e-07
2.331371e-06 -2.675244e-05 2.498548e-07
1.222995e-05 -2.640877e-05 -7.216894e-07
2.855130e-05 5.012503e-06 8.621112e-07
2.855130e-05 -5.012503e-06 8.621112e-07
-9.975097e-06 2.576298e-05 -1.166637e-06
-1.386536e-05 2.389716e-05 -1.167260e-06
-1.870259e-05 2.033360e-05 -1.166696e-06
-2.165322e-05 1.715778e-05 -1.166762e-06
-1.893766e-05 2.239957e-05 -3.065925e-22
-2.485116e-05 1.207234e-05 -1.167253e-06
-2.656983e-05 6.206452e-06 -9.666321e-07
-2.405485e-05 -1.442932e-05 -1.251406e-06
-2.345379e-05 1.701056e-05 -8.775099e-07
-2.548673e-05 1.376775e-05 -8.830036e-07
-1.560938e-05 2.440708e-05 -8.789358e-07
-1.868918e-05 2.213433e-05 -8.814531e-07
-9.286091e-06 2.744238e-05 -8.796769e-07
-2.191160e-05 -1.896127e-05 -8.738354e-07
-2.676677e-05 7.227541e-06 1.200360e-06
-1.952972e-05 2.188529e-05 -3.065925e-22
1.890943e-05 -2.190252e-05 -9.137876e-07
1.891348e-05 2.187922e-05 -9.275915e-07
-2.656753e-05 3.774638e-06 1.192199e-07
-2.640958e-05 -9.010952e-06 -1.239343e-06
-2.108795e-06 -2.765851e-05 -1.204240e-06
-2.384636e-06 -2.767359e-05 1.214218e-06
-2.461736e-05 -1.078107e-05 3.361746e-07
-2.819369e-05 6.826556e-06 -8.400983e-07
2.676573e-05 2.317664e-06 -3.030723e-07
2.676573e-05 -2.317664e-06 -3.030723e-07
-2.010781e-05 2.135536e-05 -3.065925e-22
2.659389e-05 -7.954305e-06 -1.209525e-06
2.659389e-05 7.954305e-06 -1.209525e-06
4.001177e-06 2.756798e-05 1.231630e-06
-1.712695e-05 2.229868e-05 1.251225e-06
-2.408755e-05 1.448934e-05 1.251418e-06
-2.014895e-05 1.963278e-05 1.250682e-06
-1.157536e-05 2.564053e-05 1.250683e-06
-1.947332e-05 -1.876573e-05 -7.015673e-07
1.564547e-05 2.279747e-05 -1.175326e-06
-3.087063e-06 2.776662e-05 1.243598e-06
-2.067154e-05 2.081017e-05 -3.065925e-22
1.167746e-05 -2.417417e-05 2.127629e-07
7.784613e-06 -2.666883e-05 -1.215614e-06
1.542139e-05 2.455414e-05 8.543639e-07
1.879232e-05 2.213617e-05 8.070657e-07
-1.648283e-05 -2.387959e-05 -8.317882e-07
6.764009e-06 -2.635765e-05 9.012702e-07
5.003398e-06 2.636322e-05 1.136685e-07
-2.861766e-05 4.258714e-06 -9.166881e-07
-2.754830e-05 3.550584e-06 -1.214225e-06
-2.041485e-05 -2.060074e-05 8.463211e-07
-2.122048e-05 2.025011e-05 -3.065925e-22
1.090211e-06 -2.727945e-05 -9.796878e-07
1.717941e-05 2.221779e-05 -1.251751e-06
-1.159745e-05 -2.439091e-05 -6.451848e-07
2.438040e-05 -1.146284e-05 -5.176411e-07
2.438040e-05 1.146284e-05 -5.176411e-07
-1.092394e-05 -2.595062e-05 -1.249466e-06
2.798210e-05 7.646784e-06 -8.403715e-07
2.798210e-05 -7.646784e-06 -8.403715e-07
1.048733e-05 2.478808e-05 -4.576099e-07
-1.854810e-05 -2.231845e-05 8.273709e-07
-2.175426e-05 1.967557e-05 -3.065925e-22
-2.501022e-05 -1.043280e-05 -7.769783e-07
1.489281e-06 2.679827e-05 1.653866e-07
-2.781359e-05 -8.309996e-06 -8.173605e-07
2.889114e-05 2.432480e-06 -8.563943e-07
2.889114e-05 -2.432480e-06 -8.563943e-07
-1.498072e-05 -2.226342e-05 1.192879e-07
-1.631623e-05 2.396330e-05 8.592455e-07
-2.394833e-05 1.633820e-05 8.592454e-07
-2.195870e-05 1.892815e-05 8.592454e-07
-1.351739e-05 2.564643e-05 8.592450e-07
-2.227249e-05 1.908696e-05 -3.065925e-22
2.739707e-05 2.072816e-06 1.095829e-06
2.739707e-05 -2.072816e-06 1.095829e-06
-2.489806e-05 1.165167e-05 1.103533e-06
7.935862e-06 2.795245e-05 -7.828657e-07
-8.181323e-06 -2.789197e-05 -7.702834e-07
-2.279688e-05 -1.580655e-05 -1.204776e-06
-2.644408e-05 5.101266e-06 4.971937e-07
-2.666516e-05 -5.480293e-06 9.115332e-07
1.570533e-05 -2.441716e-05 8.132823e-07
2.423101e-05 -1.387952e-05 -1.242024e-06
-2.277479e-05 1.848471e-05 -3.065925e-22
2.423101e-05 1.387952e-05 -1.242024e-06
4.024423e-06 2.724563e-05 -1.129694e-06
-9.283140e-06 -2.633827e-05 1.242244e-06
-2.666454e-05 3.007238e-06 1.111464e-07
1.717423e-05 -2.232582e-05 -1.248740e-06
1.489748e-05 2.340629e-05 1.206010e-06
1.750653e-06 -2.900257e-05 7.850865e-07
-2.535721e-05 1.089894e-05 1.156018e-06
-1.273475e-05 2.448936e-05 1.156974e-06
-2.080719e-05 1.813735e-05 1.156974e-06
-2.326082e-05 1.786925e-05 -3.065925e-22
-3.129482e-06 2.666007e-05 1.898420e-07
1.045428e-05 2.703290e-05 -8.663114e-07
9.283819e-06 2.755483e-05 -7.577463e-07
-1.628164e-05 -2.400376e-05 8.441418e-07
2.552537e-05 1.090060e-05 1.208858e-06
2.552537e-05 -1.090060e-05 1.208858e-06
-1.223234e-05 2.403640e-05 -5.777686e-07
-2.017395e-05 1.789946e-05 -5.777696e-07
-2.839276e-05 -5.790699e-06 8.732508e-07
8.683542e-06 -2.772435e-05 -7.887172e-07
-2.373022e-05 1.724101e-05 -3.065925e-22
2.131039e-05 -1.667083e-05 -7.199651e-07
2.131039e-05 1.667083e-05 -7.199651e-07
-2.486297e-05 1.053806e-05 -6.390209e-07
-1.592632e-05 -2.159373e-05 -8.647442e-08
2.327612e-05 1.493762e-05 -1.177980e-06
2.327612e-05 -1.493762e-05 -1.177980e-06
-2.252132e-05 -1.830429e-05 -8.251877e-07
-2.684984e-05 1.088273e-06 3.261600e-07
-9.462913e-06 -2.511019e-05 1.166907e-07
-7.848705e-06 2.692333e-05 1.251230e-06
-2.418265e-05 1.660045e-05 -3.065925e-22
-2.655284e-05 -7.373000e-06 -1.137300e-06
-1.778905e-05 -2.194228e-05 1.240573e-06
-2.165464e-05 -1.735669e-05 -1.207934e-06
-5.455886e-06 -2.849308e-05 8.374942e-07
-1.362972e-06 2.679417e-05 2.069391e-08
7.514826e-06 2.802750e-05 8.299508e-07
-1.046708e-06 2.772605e-05 1.206210e-06
-1.601247e-05 2.286944e-05 1.241169e-06
-2.326564e-05 1.543115e-05 1.241169e-06
-1.133047e-06 2.759418e-05 -1.162995e-06
-2.461780e-05 1.594802e-05 -3.065925e-22
2.185323e-05 -1.905010e-05 8.590457e-07
2.185323e-05 1.905010e-05 8.590457e-07
-2.603306e-05 -7.385849e-06 7.257504e-07
3.580973e-06 2.659682e-05 1.427327e-07
9.846969e-06 2.510579e-05 -5.736360e-07
2.880563e-05 7.790710e-07 1.012694e-06
2.880563e-05 -7.790710e-07 1.012694e-06
-2.518878e-05 -9.248921e-06 -1.059187e-07
-2.308045e-05 -1.368571e-05 -1.034452e-07
1.695013e-05 2.087502e-05 -3.871666e-07
-2.503535e-05 1.528420e-05 -3.065925e-22
1.709654e-05 2.074692e-05 3.667202e-07
1.455374e-05 2.509238e-05 8.409911e-07
-2.482843e-05 -1.240219e-05 -1.208361e-06
-2.696565e-05 -8.272156e-06 -1.245448e-06
-2.654607e-05 1.168109e-05 8.466070e-07
-2.073085e-05 -2.033985e-05 -8.005700e-07
5.415076e-06 -2.719107e-05 -1.200254e-06
5.231060e-06 2.853118e-05 -8.418756e-07
1.578246e-05 -2.266317e-05 -1.162872e-06
2.689626e-05 8.051731e-07 4.394309e-07
-2.543501e-05 1.460945e-05 -3.065925e-22
2.689626e-05 -8.051731e-07 4.394309e-07
2.815175e-05 2.161201e-06 -1.242227e-06
2.815175e-05 -2.161201e-06 -1.242227e-06
-2.487168e-05 -1.228946e-05 1.205213e-06
7.348554e-06 2.663137e-05 -1.166617e-06
6.508471e-06 2.687674e-05 -1.176735e-06
8.875712e-06 -2.761216e-05 8.453238e-07
-5.143648e-06 2.645252e-05 -5.333819e-07
-5.598312e-06 2.847118e-05 -8.311943e-07
1.211236e-06 2.886714e-05 -9.525400e-07
-2.581649e-05 1.392425e-05 -3.065925e-22
2.264517e-06 2.755610e-05 -1.175069e-06
1.392360e-06 2.761953e-05 -1.177112e-06
-1.054599e-05 -2.566181e-05 1.205793e-06
-1.224880e-06 2.901826e-05 -7.988633e-07
-6.037076e-06 2.844062e-05 7.609532e-07
1.830254e-05 -1.977904e-05 -5.333989e-07
1.831579e-05 1.977535e-05 -5.465627e-07
-1.938899e-05 -2.116598e-05 -1.085248e-06
2.551647e-06 2.895321e-05 -7.724075e-07
-2.690843e-05 2.487905e-06 -6.702408e-07
-2.617951e-05 1.322910e-05 -3.065925e-22
[...]
POINT_DATA 3050
VECTORS 10.000GHz_fone_imag double
2.089672e+10 1.150274e+10 -9.392114e+07
-2.036599e+10 -2.354504e+10 6.642478e+08
2.035829e+10 -2.353808e+10 -6.666561e+08
-1.878237e+09 2.600031e+10 -5.387580e+08
-1.232882e+09 3.216744e+10 -2.305512e+08
3.046386e+10 -1.091905e+10 -2.013373e+08
1.995320e+10 -1.241834e+10 1.767279e+08
2.534943e+10 1.144725e+10 4.036013e+08
2.599551e+10 1.288331e+10 1.337455e+08
1.945840e+10 1.991277e+10 4.040365e+08
1.956996e+10 2.149234e+10 2.379041e+08
2.025502e+10 1.267513e+10 -3.944581e+08
1.027131e+10 2.707247e+10 -1.696418e+08
-2.739812e+10 -1.013401e+10 1.920563e+08
3.939477e+09 -3.176003e+10 1.429990e+08
-3.937482e+09 -3.175966e+10 -1.446190e+08
-2.653097e+10 -1.447659e+10 -1.781907e+08
-3.232814e+10 9.653745e+09 7.431870e+08
-1.442835e+10 1.890268e+10 -9.653080e+08
4.216545e+09 -3.090310e+10 -3.091227e+08
-4.215627e+09 -3.090863e+10 3.072716e+08
-2.256254e+10 -1.086819e+10 -8.045672e+08
1.943480e+10 1.267917e+10 -1.955567e+07
3.000253e+10 -9.672926e+09 1.784621e+09
-1.123158e+10 2.136262e+10 -9.408324e+08
-4.801918e+09 3.172178e+10 3.905571e+08
-2.981953e+10 9.793310e+08 -2.505355e+08
-2.623064e+10 -1.117948e+10 -6.635720e+08
2.316754e+10 -3.277009e+09 5.782334e+08
-2.397606e+10 1.274241e+10 8.038372e+08
2.309062e+10 -1.640788e+10 3.506887e+08
-1.956171e+10 -1.367047e+10 -2.386923e+08
2.780040e+09 2.954499e+10 2.793534e+08
1.939145e+10 1.335825e+10 4.457169e+08
-2.402437e+10 1.944321e+08 -7.915637e+08
-2.415445e+10 -1.643480e+09 -4.715449e+07
2.417463e+10 -4.188456e+08 7.642047e+07
2.332814e+10 2.379958e+09 -9.220616e+08
-2.259165e+10 -1.637188e+10 7.540728e+08
2.018034e+10 1.927909e+10 -8.300046e+08
1.746675e+10 2.379907e+10 -9.358977e+07
2.391978e+10 1.432606e+10 8.558307e+08
2.723556e+10 1.001069e+10 3.145334e+08
1.226033e+10 2.541407e+10 4.216750e+08
1.823981e+10 1.379090e+10 4.379796e+07
7.366226e+09 2.703719e+10 3.559967e+08
-2.143705e+10 1.882263e+10 2.293786e+08
-2.201770e+10 8.585895e+09 -1.110206e+09
-2.639173e+10 8.392013e+09 -1.637211e+09
7.534768e+09 2.371270e+10 -9.965575e+08
1.734555e+10 -2.325533e+10 -1.056357e+09
-1.734437e+10 -2.325776e+10 1.054565e+09
-2.898946e+10 9.122209e+09 3.179773e+08
-2.876990e+10 6.292327e+09 2.104281e+08
3.496326e+09 2.323533e+10 2.962151e+08
1.811746e+10 1.337938e+10 2.132252e+08
-3.033535e+09 -2.355271e+10 -1.789021e+09
3.035624e+09 -2.355727e+10 1.789236e+09
4.790341e+09 2.232278e+10 9.486334e+07
-1.754742e+10 2.169014e+10 -6.750877e+07
9.890775e+08 2.669600e+10 -1.419633e+08
-5.131223e+09 3.044321e+10 -4.400154e+07
5.918614e+09 2.973911e+10 -8.787730e+08
-2.377882e+10 1.268434e+09 -3.318068e+08
2.433050e+10 -1.683651e+10 -1.152554e+09
-2.409440e+10 1.633326e+10 9.869779e+08
1.757369e+10 1.426860e+10 -4.321091e+08
7.528592e+09 2.372410e+10 -1.592471e+08
-3.225503e+10 -7.898482e+08 5.084720e+08
-3.441820e+10 -3.778040e+09 -6.467122e+08
-2.152679e+10 -9.771020e+09 -2.798142e+08
3.902785e+09 -2.257790e+10 -4.510686e+08
-3.903616e+09 -2.257619e+10 4.530178e+08
2.727787e+10 1.139890e+10 -1.629191e+08
2.491812e+10 1.473416e+10 -8.056280e+08
2.048636e+10 2.004654e+10 3.095926e+08
1.785782e+10 2.257135e+10 -1.057734e+09
1.767755e+10 1.446958e+10 -2.229193e+08
1.268152e+10 2.645077e+10 2.595798e+08
6.759287e+09 3.026706e+10 -7.459991e+08
-1.313204e+10 2.390758e+10 6.279474e+08
1.347316e+10 1.994768e+10 -3.035805e+08
1.141910e+10 2.082086e+10 7.326220e+08
1.997688e+10 1.359331e+10 -5.724731e+08
1.885306e+10 1.519388e+10 4.605090e+08
2.261780e+10 7.047301e+09 -2.180003e+08
-1.573897e+10 2.243703e+10 1.420386e+08
7.125327e+09 2.642613e+10 4.769390e+08
1.786387e+10 1.568580e+10 -6.739112e+08
-2.082596e+10 -1.826977e+10 8.052450e+08
1.788113e+10 -1.613239e+10 -2.297209e+08
5.368302e+09 3.408298e+10 -2.826605e+08
-8.256150e+09 2.752637e+10 1.125982e+08
-2.822686e+10 2.366534e+09 1.088664e+08
-2.833590e+10 2.657948e+09 3.013295e+08
-1.157508e+10 2.946029e+10 3.497818e+07
6.048884e+09 2.572836e+10 4.540190e+08
1.244953e+09 -3.346410e+10 -2.078432e+09
-1.244855e+09 -3.345950e+10 2.064653e+09
1.594086e+10 1.634116e+10 2.109834e+08
-7.933492e+09 -2.678579e+10 5.206274e+08
7.934747e+09 -2.678687e+10 -5.211550e+08
2.750083e+10 -3.821280e+09 -7.387143e+08
2.120774e+10 1.696981e+10 8.057746e+07
1.370065e+10 2.349220e+10 3.355566e+08
1.942311e+10 1.912099e+10 3.022630e+08
2.506725e+10 1.060252e+10 3.226007e+08
-2.238921e+10 2.409168e+10 1.353613e+09
2.348638e+10 -1.649077e+10 1.103470e+09
2.897532e+10 2.897204e+09 -3.597442e+08
1.769275e+10 1.526554e+10 -2.482413e+07
-2.966630e+10 -1.470198e+10 -1.629999e+09
-2.603611e+10 -6.362614e+09 5.105277e+07
2.010012e+10 -1.300343e+10 -6.223754e+08
1.852212e+10 -1.512242e+10 4.309144e+08
-1.964552e+10 1.306673e+10 7.869731e+08
-2.797671e+10 -7.782944e+09 -4.971413e+08
3.188669e+10 -4.411396e+09 -1.650361e+09
4.536901e+09 2.747142e+10 -6.975296e+08
3.841970e+09 2.904282e+10 -1.022941e+08
-1.568895e+10 1.695090e+10 -1.428991e+09
1.735632e+10 1.888779e+10 1.727918e+09
-2.989269e+10 1.856947e+08 -2.175980e+09
2.005964e+10 -1.712905e+10 -7.757071e+08
-2.802963e+10 1.345106e+10 3.469716e+08
-1.218064e+10 -2.772068e+10 2.025834e+08
1.218165e+10 -2.771892e+10 -2.026646e+08
-2.469289e+10 1.035913e+10 2.869249e+08
6.389129e+09 -2.552221e+10 -7.004619e+08
-6.386444e+09 -2.552248e+10 7.039972e+08
2.976901e+10 -1.133568e+10 1.958639e+08
-1.730059e+10 1.591101e+10 -6.584474e+08
1.504408e+10 1.760874e+10 4.182501e+08
-1.268979e+10 2.857909e+10 9.533306e+08
3.189477e+10 -1.809929e+09 9.173608e+08
-6.373070e+09 2.519234e+10 -3.380376e+08
3.077317e+09 -2.367023e+10 -1.367618e+09
-3.077689e+09 -2.365930e+10 1.359962e+09
-2.667453e+10 1.853988e+10 7.773800e+08
2.069044e+10 1.284276e+10 -1.287725e+09
1.437281e+10 1.921721e+10 -1.379715e+09
1.672125e+10 1.789824e+10 4.523440e+08
2.188695e+10 1.082523e+10 1.850632e+08
1.540847e+10 1.727601e+10 -4.873672e+08
1.929423e+09 -2.876547e+10 1.585858e+09
-1.926186e+09 -2.879488e+10 -1.573564e+09
1.275185e+10 2.632287e+10 5.419611e+08
2.308572e+10 -7.105987e+09 -6.343150e+08
-2.260250e+10 7.484850e+09 -3.513092e+08
-1.573026e+10 2.277341e+10 -5.235668e+08
7.908018e+09 3.179999e+10 -1.554236e+08
-6.444250e+09 2.938341e+10 -1.133126e+09
-1.987921e+10 -1.308724e+10 5.302010e+08
-1.524323e+10 -2.430206e+10 -9.367995e+08
1.519205e+10 1.854480e+10 -9.620556e+07
1.525382e+10 -2.430017e+10 9.362705e+08
2.894939e+10 -5.544069e+09 1.052238e+09
-2.810562e+10 1.155938e+10 -4.876559e+05
5.157732e+09 3.081173e+10 -8.950196e+08
-2.044743e+10 -1.525658e+10 -5.672838e+08
2.514264e+10 -1.692218e+10 -5.189802e+08
-2.432739e+10 -1.440660e+09 4.348152e+08
1.012026e+10 2.698369e+10 -9.287772e+08
2.589846e+10 1.275364e+10 -4.410876e+08
1.927743e+10 2.088786e+10 -3.256565e+08
1.405838e+10 1.894207e+10 -1.793498e+08
3.159385e+10 4.321408e+09 -1.234268e+09
2.261895e+10 -8.057411e+09 6.340866e+07
2.150457e+10 -8.154772e+09 8.926467e+08
-1.965254e+10 1.288591e+10 9.821716e+08
1.386175e+10 -2.579066e+10 3.994183e+08
-1.386471e+10 -2.579307e+10 -4.014154e+08
2.927899e+10 1.528911e+10 -4.037330e+08
2.163441e+10 2.484606e+10 -3.524729e+08
-4.270681e+09 2.314016e+10 -6.147393e+08
-2.380099e+10 -7.003654e+09 4.888513e+07
1.333750e+10 1.875541e+10 3.119245e+08
-1.979260e+10 -2.427719e+10 -5.302014e+08
1.979648e+10 -2.428159e+10 5.302497e+08
1.121741e+10 2.842381e+10 -2.923976e+08
-2.580781e+10 1.961308e+10 -7.884276e+08
1.593058e+10 -2.485749e+10 -1.317078e+09
-1.593572e+10 -2.486238e+10 1.307453e+09
-1.506255e+10 1.796219e+10 -3.148906e+08
2.757592e+09 3.214932e+10 2.083991e+09
-2.824564e+10 1.238698e+10 -1.332452e+09
2.657254e+10 7.119391e+09 5.444525e+08
1.286061e+10 1.908804e+10 5.594267e+08
-6.912398e+09 2.725481e+10 -2.046099e+09
-2.023351e+10 1.619447e+10 -3.279917e+08
-1.851557e+10 2.144885e+10 3.695290e+08
-2.397428e+10 3.655460e+09 -8.053127e+08
3.295203e+10 1.337644e+09 4.988555e+07
2.302264e+10 -5.951391e+09 4.792111e+07
3.000485e+10 1.346723e+09 -6.000997e+08
2.337940e+10 1.602885e+10 2.035320e+08
1.579965e+10 2.320550e+10 9.615861e+07
2.791775e+10 2.073338e+09 2.922515e+08
1.180495e+10 1.916539e+10 -1.710318e+08
-1.489494e+10 -1.815082e+10 1.143654e+09
1.490733e+10 -1.815558e+10 -1.144254e+09
-7.890190e+09 2.840751e+10 9.248332e+08
3.204431e+10 -5.898758e+09 3.561559e+08
3.048522e+10 -1.262988e+10 8.179281e+08
1.191064e+09 -2.457646e+10 -7.662273e+08
-1.246389e+09 -2.456863e+10 7.260518e+08
-1.148733e+10 2.953133e+10 7.049526e+08
-1.467068e+10 2.667858e+10 -4.857078e+07
2.475238e+10 -2.061400e+10 -1.764571e+09
1.232075e+10 1.944122e+10 6.393689e+07
2.550415e+10 -2.071475e+10 -2.122644e+09
2.167796e+10 -1.267148e+10 -2.258565e+08
-1.320573e+10 2.548690e+10 -4.060482e+08
-7.585923e+09 2.536746e+10 9.844767e+08
1.052530e+10 2.238738e+10 3.597888e+08
-1.663429e+10 1.660626e+10 2.896707e+08
-2.742290e+10 -5.303538e+09 -1.140587e+09
2.557354e+10 -3.820132e+09 2.850381e+08
-2.334982e+10 -1.584623e+10 -2.097096e+08
7.639921e+08 -3.227264e+10 -1.328923e+09
1.150019e+10 2.034402e+10 -3.660539e+08
-5.852854e+08 -3.234892e+10 1.397786e+09
3.218097e+09 -2.694237e+10 5.869068e+08
-3.213841e+09 -2.693034e+10 -5.911868e+08
-1.260559e+10 2.561837e+10 6.849379e+08
2.814899e+10 -7.690888e+09 -6.031450e+08
2.822462e+10 -6.930985e+09 5.061572e+08
-2.499070e+10 -7.139054e+09 2.336595e+08
3.158664e+10 6.181201e+09 1.871160e+09
2.421265e+10 3.692195e+09 1.882622e+09
2.429263e+10 -1.073435e+09 4.872112e+08
1.064097e+10 1.984651e+10 -6.934089e+07
2.867966e+10 -3.164223e+09 -1.113688e+09
2.839117e+10 -1.973339e+09 3.232067e+08
-2.630214e+10 1.066976e+10 9.388286e+08
2.271156e+10 8.622632e+08 1.040718e+08
2.311259e+10 4.471045e+09 4.057583e+08
-2.399851e+10 -2.070335e+10 2.100907e+09
2.308227e+10 -2.077560e+10 -1.968667e+09
-1.885825e+10 1.663280e+10 3.637010e+08
2.368612e+10 -1.660325e+09 -1.865916e+08
6.432801e+08 3.043406e+10 -1.258696e+09
1.015201e+10 2.049720e+10 4.293224e+08
-2.458360e+10 1.591879e+10 -9.837784e+08
-2.352247e+10 5.873389e+09 1.232108e+09
3.036010e+10 3.941739e+09 -6.024279e+08
2.889749e+10 3.712212e+09 -6.005011e+08
-6.161253e+09 -2.397689e+10 5.022075e+08
6.158962e+09 -2.397159e+10 -5.008455e+08
2.362499e+10 -2.867250e+09 2.065166e+08
-2.948788e+10 -3.312516e+09 -6.161890e+08
2.275008e+10 7.253552e+09 -1.674123e+09
1.913220e+08 3.113900e+10 -9.255202e+08
9.949848e+09 2.066002e+10 -1.401572e+08
-1.029578e+10 -2.145122e+10 -8.555932e+08
1.028979e+10 -2.146751e+10 8.364260e+08
2.821306e+10 3.779351e+08 -7.538293e+08
-2.309147e+10 -2.334243e+10 -8.252758e+08
2.306268e+10 -2.333203e+10 9.625488e+08
-2.558566e+10 -1.123648e+10 2.235243e+08
-2.618498e+10 -1.550188e+10 5.667115e+08
-2.523752e+10 -1.474770e+10 -4.192592e+08
-1.748986e+10 -1.528786e+10 6.843422e+08
1.772218e+10 -1.616737e+10 -7.291496e+08
9.357660e+09 2.171734e+10 -9.892399e+08
1.103846e+10 2.137718e+10 -1.204308e+08
2.135821e+10 9.600481e+09 2.691135e+08
1.839966e+10 1.540451e+10 -1.839529e+08
1.682904e+10 1.695623e+10 7.988065e+08
2.330091e+10 -5.253253e+09 1.094998e+09
-2.724527e+10 -3.780057e+08 1.179929e+08
-2.459578e+10 2.004029e+10 -1.013211e+09
-2.181781e+10 1.053210e+10 1.570520e+08
1.734913e+10 1.950954e+10 1.355647e+09
2.320055e+10 1.179228e+10 1.360692e+09
8.611239e+09 2.120720e+10 -8.932089e+08
3.043896e+10 1.435989e+09 5.558193e+08
-1.334444e+10 1.962596e+10 1.925322e+08
2.332800e+10 8.588190e+08 4.827958e+07
2.392105e+10 3.766553e+09 1.054383e+09
-1.155592e+09 2.712959e+10 -2.930609e+08
2.153760e+10 1.080825e+10 -5.264321e+07
1.625605e+10 1.808922e+10 -1.180567e+07
-3.435010e+10 1.424906e+09 1.339306e+09
2.117466e+10 -9.975394e+09 -8.392911e+08
2.044320e+10 1.272746e+10 2.475300e+08
8.283282e+09 2.262292e+10 -1.407761e+09
1.432261e+10 1.904090e+10 5.338732e+08
1.526023e+10 1.973311e+10 2.372213e+08
2.125313e+10 1.249778e+10 -8.006408e+08
-6.779894e+09 2.694810e+10 -1.228863e+08
-1.992682e+10 2.840908e+10 1.775345e+08
-2.364232e+10 -2.071914e+10 2.613078e+08
2.251205e+10 -2.103364e+10 -5.346183e+08
-2.087303e+10 -1.211314e+10 8.014687e+08
-2.844324e+10 1.519407e+10 2.679755e+08
-3.171400e+09 2.453719e+10 -7.172588e+08
6.476151e+09 2.201036e+10 -1.426450e+09
7.680122e+09 2.224404e+10 2.362637e+08
7.234071e+09 2.829474e+10 -1.409710e+08
2.712639e+10 -5.265910e+09 -7.358518e+08
1.481699e+10 -2.810577e+10 -4.818492e+08
-1.481771e+10 -2.809677e+10 4.767611e+08
-5.202480e+09 -3.134532e+10 4.210446e+08
5.204553e+09 -3.134737e+10 -4.236404e+08
-1.791127e+10 1.540793e+10 9.799650e+08
2.544539e+10 -1.808868e+10 1.933282e+07
1.978399e+10 -1.445935e+10 -5.188224e+08
8.338517e+09 2.106679e+10 -4.631814e+08
-1.195182e+10 2.968014e+10 6.434785e+07
-2.425561e+10 1.227124e+10 5.832175e+08
1.843924e+10 -1.808868e+10 -7.839770e+07
-1.836948e+10 -1.817533e+10 1.435191e+08
2.053807e+10 -1.033933e+10 -7.959071e+08
2.502783e+10 -9.580291e+09 -9.021473e+08
1.862728e+10 1.707261e+10 -5.372919e+08
2.362313e+10 9.017250e+09 -6.413204e+08
-1.627946e+10 2.165915e+10 -4.780707e+08
-1.866829e+10 -3.130132e+10 -8.448882e+08
6.951487e+09 2.385230e+10 -5.626781e+08
1.867486e+10 -3.131105e+10 8.498031e+08
-2.694243e+10 -1.546173e+10 -1.965029e+08
2.159970e+10 -1.035614e+10 -5.512910e+08
-2.571436e+10 -1.508301e+10 -4.977782e+08
-2.005716e+10 -1.562783e+10 5.913553e+07
1.695059e+10 -2.483520e+10 6.066092e+08
-1.695026e+10 -2.483951e+10 -6.062269e+08
-1.669746e+10 2.427678e+10 -6.812851e+08
-2.087325e+10 9.756324e+09 4.948660e+08
-2.587196e+10 8.023212e+09 -7.286104e+08
4.991354e+09 2.271655e+10 4.878672e+08
1.238612e+10 -1.965456e+10 -9.777963e+08
-1.239276e+10 -1.964861e+10 9.756268e+08
-3.025510e+10 1.058059e+09 2.348425e+09
-2.723560e+10 -2.394438e+09 4.374621e+07
2.494400e+10 -1.228852e+10 1.758409e+09
2.990942e+10 -4.993500e+09 -7.695340e+08
-9.034316e+09 2.543691e+10 1.123001e+08
-3.238910e+10 2.738436e+09 9.471753e+08
1.066717e+09 -2.498847e+10 -1.462394e+08
-9.184683e+08 -2.489387e+10 2.670823e+08
4.243181e+09 2.175174e+10 5.066925e+08
-7.437062e+09 2.254328e+10 -4.711222e+07
2.576676e+10 5.988712e+09 -6.479187e+08
-5.260426e+09 -3.167414e+10 -5.840110e+08
5.259649e+09 -3.167085e+10 5.820274e+08
2.377497e+10 2.154299e+09 -7.609374e+08
-2.408849e+10 8.864948e+09 5.346679e+08
-2.366850e+10 2.404959e+10 1.017307e+09
-2.376094e+10 -3.809237e+08 -6.201018e+08
-8.261682e+08 2.308617e+10 3.852021e+08
-3.124620e+09 2.272332e+10 6.922028e+08
5.691473e+09 2.127453e+10 -7.702376e+07
-1.082849e+10 2.186972e+10 1.914429e+08
2.111520e+10 -1.139606e+10 7.419672e+08
2.971863e+10 -5.429212e+09 1.462337e+09
-2.346041e+10 5.411043e+09 -1.561421e+08
-1.731149e+10 2.302493e+10 -1.552520e+08
1.363418e+10 -2.408811e+10 -3.274653e+08
-1.361899e+10 -2.408230e+10 3.246001e+08
-2.363274e+10 -1.968065e+10 3.117680e+08
2.078789e+10 -2.493365e+10 1.176467e+08
-2.079071e+10 -2.493593e+10 -1.133687e+08
3.691680e+09 2.382647e+10 -6.642888e+08
-2.759663e+10 7.988128e+09 3.097857e+08
-2.094960e+10 -1.444828e+10 6.381277e+08
-6.028091e+09 2.338754e+10 9.583958e+06
2.735132e+10 -6.137314e+09 3.839868e+08
-3.039142e+10 -9.233363e+09 -2.604395e+08
-3.153833e+10 -2.401718e+09 1.021597e+07
-2.402881e+10 -1.970758e+10 1.375427e+09
2.643465e+10 6.058044e+09 2.852641e+08
-8.500446e+09 -2.996985e+10 -4.743885e+08
8.488869e+09 -2.995639e+10 4.694408e+08
2.801245e+09 2.312494e+10 2.512836e+08
2.092243e+10 1.191219e+10 1.092740e+09
1.517706e+10 1.898246e+10 1.100060e+09
2.578976e+10 -8.400609e+09 3.360886e+08
-3.029943e+10 3.507953e+09 1.782067e+09
-3.802928e+09 -2.903274e+10 6.387754e+07
3.807915e+09 -2.902770e+10 -6.464896e+07
2.353736e+10 -4.654936e+09 -8.455975e+08
-2.852829e+10 1.356320e+10 -4.954707e+08
2.972271e+10 1.135493e+10 -1.133704e+09
2.660613e+10 1.626737e+10 2.797161e+08
2.649651e+09 2.227350e+10 -9.746554e+07
2.390776e+10 2.156321e+10 -3.639541e+08
1.939150e+10 2.400869e+10 8.793649e+08
8.967641e+09 2.271544e+10 4.958483e+08
3.041483e+10 -2.119352e+09 2.605780e+08
-1.505344e+10 1.981838e+10 -6.023180e+07
1.400682e+10 2.949910e+10 8.198782e+08
2.548425e+10 -1.213601e+10 -1.304618e+09
1.996444e+10 -1.392944e+10 -5.951763e+08
-1.032611e+10 2.103076e+10 2.352516e+08
1.648264e+10 2.704415e+10 -8.084968e+06
3.042585e+09 2.198278e+10 9.839508e+05
1.729682e+10 2.623219e+10 -1.250504e+08
2.505923e+10 1.908108e+10 3.419323e+08
2.579674e+10 1.825817e+10 1.800268e+08
-2.524582e+09 2.749366e+10 4.499290e+08
3.139238e+10 7.768056e+09 4.846945e+07
-2.946994e+10 5.545152e+08 -4.377927e+08
-2.859403e+10 3.225525e+09 1.643503e+08
3.610805e+09 2.520486e+10 2.042995e+08
3.064977e+10 2.255672e+08 2.090183e+08
-6.562356e+09 2.319850e+10 -6.692851e+08
1.182963e+09 2.344359e+10 7.058388e+08
-2.938745e+10 -1.244639e+10 3.831723e+08
1.157526e+10 -2.996835e+10 9.104181e+08
-1.158252e+10 -2.998728e+10 -9.070152e+08
2.719818e+10 -2.398406e+09 -6.803778e+08
-9.980131e+09 -2.123463e+10 2.745874e+08
9.978481e+09 -2.122807e+10 -2.753235e+08
-2.384590e+10 -5.622244e+09 9.921337e+08
1.050286e+10 2.087535e+10 5.556998e+08
2.776758e+10 7.244965e+09 -3.134015e+08
-8.697094e+09 3.033442e+10 -1.762520e+08
1.502489e+09 2.374421e+10 -1.149154e+09
-3.228600e+10 7.347635e+09 4.865025e+08
-6.223471e+09 3.082443e+10 1.171192e+09
-2.774713e+10 -1.450299e+10 -7.362241e+08
2.741186e+10 -1.401405e+10 -2.172072e+08
3.169020e+10 8.621480e+09 1.273501e+09
-5.224726e+09 2.579126e+10 1.932772e+08
2.584683e+10 7.775143e+09 -2.962105e+08
-4.112662e+09 3.360252e+10 7.526026e+07
9.710169e+09 2.820648e+10 -6.296206e+08
-1.025692e+09 2.841421e+10 8.294456e+07
1.010601e+09 2.535043e+10 1.842934e+09
-2.391149e+10 1.934618e+10 6.892608e+07
-2.888327e+10 -1.199981e+10 -5.797057e+08
1.046441e+09 2.524843e+10 -5.570099e+08
-2.360157e+10 -1.332180e+10 1.368288e+08
-1.564244e+09 3.074722e+10 1.558721e+08
1.018774e+10 2.158916e+10 -5.960438e+08
2.648125e+10 -1.649727e+10 1.477917e+08
-7.899410e+09 -2.738906e+10 -7.734621e+08
7.902964e+09 -2.739952e+10 7.737001e+08
3.091603e+10 -2.483700e+09 2.777520e+08
-2.099039e+09 2.290146e+10 3.550044e+08
-6.203956e+09 -2.547855e+10 1.567549e+09
6.207737e+09 -2.547822e+10 -1.566452e+09
1.361562e+09 2.873893e+10 3.902219e+08
1.248674e+10 -2.585131e+10 5.351614e+08
-1.249821e+10 -2.585573e+10 -5.320325e+08
6.577642e+09 -2.256368e+10 1.060996e+09
-6.580191e+09 -2.256518e+10 -1.061718e+09
9.372719e+09 -2.877646e+10 4.387661e+08
-9.386946e+09 -2.877896e+10 -4.567362e+08
-1.622403e+10 1.968846e+10 1.825562e+07
1.513957e+08 2.181524e+10 7.628532e+08
-2.263607e+10 1.532962e+10 -1.461213e+09
-5.082513e+09 2.454067e+10 2.361383e+08
-2.019239e+10 1.173282e+10 4.955815e+08
5.361243e+09 -2.379940e+10 -8.373877e+08
-5.360517e+09 -2.379648e+10 8.384441e+08
3.113436e+10 -8.238997e+09 -1.774014e+09
1.515917e+10 -2.019539e+10 1.872515e+08
-1.516229e+10 -2.019687e+10 -1.853965e+08
2.823903e+10 1.233389e+10 5.061834e+08
2.168814e+10 2.173543e+10 5.223288e+08
-1.797091e+09 2.371311e+10 1.106837e+08
-2.289684e+10 -1.443184e+10 5.081828e+08
-2.383674e+10 2.712567e+09 5.559085e+08
-2.156609e+09 2.524001e+10 -4.610988e+08
3.083202e+10 1.948044e+09 -1.263221e+08
-2.670137e+10 4.953182e+09 -1.281205e+09
-2.780015e+10 -3.457894e+08 7.513820e+08
-2.662018e+10 -4.076484e+09 -4.618529e+07
-1.860249e+10 1.899144e+10 -1.694257e+09
-1.545351e+09 2.788497e+10 -1.070352e+08
-2.107324e+10 2.177548e+10 -1.169954e+09
-2.229423e+09 2.220963e+10 -1.360027e+08
2.288870e+10 6.612488e+09 2.512018e+08
1.085697e+10 2.460688e+10 4.767041e+08
-1.375497e+10 -2.672662e+10 2.227139e+07
1.375546e+10 -2.672819e+10 -2.290961e+07
3.109729e+10 6.576669e+08 1.267965e+09
-1.358245e+10 2.652523e+10 1.633168e+08
2.062666e+10 -2.101119e+10 -6.622453e+08
-2.058814e+10 -2.105856e+10 6.596564e+08
-5.177139e+09 -2.842223e+10 -8.198056e+08
5.178596e+09 -2.841944e+10 8.189506e+08
-1.097683e+09 2.269643e+10 -9.901427e+08
2.629711e+10 -4.424136e+09 1.065965e+09
2.070735e+10 -1.199529e+10 9.996803e+08
2.657730e+10 -1.806683e+10 7.980843e+08
-9.061282e+09 3.031850e+10 9.787318e+08
-5.984901e+09 -2.709841e+10 -5.572580e+08
5.978957e+09 -2.709766e+10 5.562647e+08
2.006212e+10 -1.731935e+10 1.213157e+09
-2.409567e+10 -1.919665e+10 -6.928103e+08
2.329562e+10 -4.951725e+09 6.538529e+08