# vtk DataFile Version 2.0
Electric current density generated by TTH
ASCII
DATASET UNSTRUCTURED_GRID
POINTS 1873 double
6.490852e-06 -1.356024e-05 -5.387215e-22
-5.961799e-06 1.360930e-05 8.616697e-07
5.771458e-06 1.098680e-05 -2.158299e-06
5.861480e-06 9.584933e-06 -1.510239e-06
-1.057089e-05 2.214627e-06 -8.375457e-07
7.814629e-06 1.200662e-05 1.616463e-06
-8.242999e-06 -9.380930e-06 2.172077e-06
-8.360071e-06 9.264852e-06 2.170650e-06
-1.605727e-06 1.096533e-05 -1.329912e-06
7.065895e-06 1.005164e-05 -2.130266e-06
-3.553465e-06 -1.247474e-05 -2.195239e-06
7.372864e-06 -1.310161e-05 -5.387215e-22
2.708693e-07 1.163951e-05 1.848808e-06
-2.761168e-06 -1.373791e-05 -1.857143e-06
1.080648e-05 1.024988e-05 -7.705004e-07
1.080648e-05 -1.024988e-05 -7.705004e-07
1.985290e-06 1.477157e-05 7.429675e-07
-1.366069e-05 -7.146819e-07 -2.030621e-06
-6.009348e-06 -8.931029e-06 7.446217e-07
-4.255689e-07 1.291296e-05 -2.197823e-06
1.362107e-05 -6.039401e-06 -7.552733e-07
1.362107e-05 6.039401e-06 -7.552733e-07
8.222637e-06 -1.258568e-05 -5.387215e-22
-1.096837e-05 6.063742e-06 -2.178770e-06
5.756048e-06 -1.098795e-05 -2.157086e-06
5.452819e-06 1.054267e-05 1.976584e-06
5.882921e-06 -9.040009e-06 -8.008760e-07
1.001146e-05 -3.588348e-06 4.379979e-08
1.001146e-05 3.588348e-06 4.379979e-08
3.980158e-07 1.172095e-05 -1.900927e-06
-1.000530e-05 -5.891030e-06 -1.827872e-06
-1.654480e-06 -1.389702e-05 1.868126e-06
5.528621e-06 -9.296118e-06 8.742576e-07
9.036455e-06 -1.201473e-05 -5.387215e-22
-2.793658e-06 -1.045838e-05 8.951682e-07
3.613209e-06 -1.003600e-05 3.734464e-07
1.997001e-06 -1.313701e-05 -2.152184e-06
-9.831742e-06 -4.174906e-06 -4.511134e-07
1.182917e-05 -7.208546e-07 -1.967582e-06
1.182917e-05 7.208546e-07 -1.967582e-06
2.787055e-06 1.383284e-05 1.791081e-06
-1.035940e-05 -2.661822e-06 -5.153755e-07
5.112252e-06 -1.401047e-05 7.155063e-07
-9.127401e-06 -1.176232e-05 -7.863393e-07
9.810758e-06 -1.139123e-05 -5.387215e-22
-1.366716e-05 -5.943432e-06 -7.453001e-07
-1.478175e-05 -1.740710e-06 7.977633e-07
-1.150620e-05 -5.827034e-06 2.198584e-06
5.815633e-06 -9.678812e-06 -1.567918e-06
-8.370614e-06 6.793607e-06 -7.876746e-07
1.137782e-06 1.485596e-05 -7.565314e-07
1.085536e-05 -1.018386e-05 7.960688e-07
1.092587e-05 1.009069e-05 8.259946e-07
-1.141731e-05 -4.902059e-06 -2.161138e-06
6.547685e-06 1.244871e-05 -1.822429e-06
1.054216e-05 -1.071793e-05 -5.387215e-22
-6.448123e-06 -1.261361e-05 -1.750276e-06
-1.274920e-05 5.861332e-06 -1.844713e-06
-7.176407e-06 7.903316e-06 -4.210786e-07
-2.175148e-06 1.410256e-05 1.666777e-06
7.155803e-06 -1.213916e-05 1.804831e-06
1.383112e-05 -1.904274e-06 -1.888573e-06
1.383112e-05 1.904274e-06 -1.888573e-06
4.414696e-06 1.053363e-05 1.685728e-06
1.114867e-05 -1.805775e-06 1.570211e-06
1.113311e-05 1.856188e-06 1.563137e-06
1.122747e-05 -9.997759e-06 -5.387215e-22
-5.169014e-06 1.319273e-05 -1.747976e-06
1.097018e-05 -1.620736e-06 -1.339058e-06
1.097090e-05 1.643423e-06 -1.344315e-06
-1.548750e-06 -1.075813e-05 -9.879524e-07
1.452958e-05 3.424784e-06 6.743097e-07
1.452958e-05 -3.424784e-06 6.743097e-07
1.064225e-05 3.184144e-06 1.363623e-06
1.064225e-05 -3.184144e-06 1.363623e-06
1.433023e-05 8.199856e-07 -1.590253e-06
1.433023e-05 -8.199856e-07 -1.590253e-06
1.186368e-05 -9.233870e-06 -5.387215e-22
-1.305495e-05 7.128859e-06 8.213476e-07
-7.796693e-06 1.171606e-05 1.817315e-06
-6.324085e-06 -8.582320e-06 -3.372857e-07
-9.846855e-06 -4.130182e-06 4.342445e-07
-9.027677e-06 -1.069270e-05 1.868829e-06
-1.129183e-05 9.715456e-06 -7.655116e-07
5.877219e-06 -9.596913e-06 1.529521e-06
3.942223e-06 1.257423e-05 -2.172500e-06
-1.008307e-05 4.091904e-06 -1.012796e-06
-5.826215e-06 9.315392e-06 -1.194549e-06
1.244801e-05 -8.429604e-06 -5.387215e-22
-1.268331e-05 2.009024e-06 -2.199485e-06
1.010303e-05 3.879172e-06 8.886077e-07
1.010303e-05 -3.879172e-06 8.886077e-07
1.290442e-05 4.848199e-06 1.983309e-06
1.290442e-05 -4.848199e-06 1.983309e-06
1.605125e-06 1.390038e-05 1.869620e-06
4.750737e-06 -1.176358e-05 2.194545e-06
-9.209303e-06 -5.400819e-06 -4.251116e-07
-5.722366e-08 -1.245547e-05 2.166674e-06
-1.064481e-05 -2.254931e-06 1.011433e-06
1.297791e-05 -7.588478e-06 -5.387215e-22
1.475259e-05 -2.177513e-06 -7.201792e-07
1.475259e-05 2.177513e-06 -7.201792e-07
-3.318774e-06 1.451335e-05 7.872206e-07
5.382084e-06 1.323202e-05 1.653389e-06
-9.356900e-06 -6.281886e-06 -1.546372e-06
4.085381e-06 1.123987e-05 2.018019e-06
-1.021800e-05 -1.082756e-05 7.879136e-07
9.612918e-07 -1.420454e-05 1.694044e-06
-6.223135e-06 1.055562e-05 -2.121468e-06
-1.031584e-05 1.075088e-05 7.561777e-07
1.345106e-05 -6.714169e-06 -5.387215e-22
-1.416098e-05 4.613314e-06 7.726634e-07
5.398043e-06 1.173341e-05 2.197991e-06
-1.281149e-05 3.057487e-06 2.173511e-06
1.028363e-05 4.137106e-06 -1.332979e-06
1.028363e-05 -4.137106e-06 -1.332979e-06
4.367605e-06 -1.099408e-05 -1.956825e-06
-6.080919e-06 1.273045e-05 -1.792928e-06
-2.880594e-06 1.024929e-05 -2.267544e-07
-1.425316e-05 4.277287e-06 -8.048564e-07
-9.994826e-06 3.872850e-06 6.029557e-07
1.386540e-05 -5.810500e-06 -5.387215e-22
1.721542e-06 1.245239e-05 2.183676e-06
-6.637969e-06 -1.035192e-05 2.132983e-06
-1.184275e-05 -1.672715e-06 -2.018448e-06
4.723230e-06 -1.330296e-05 -1.786965e-06
1.124604e-06 -1.057848e-05 1.225969e-07
-3.912485e-06 -1.437198e-05 7.685991e-07
-9.763681e-06 5.170106e-06 1.283578e-06
5.058148e-06 1.320442e-05 -1.769866e-06
5.840308e-06 9.632088e-06 1.540634e-06
-1.489634e-05 8.148102e-07 -7.020816e-07
1.421910e-05 -4.881424e-06 -5.387215e-22
-1.197185e-05 -4.516157e-06 2.199155e-06
-1.166521e-06 1.422155e-05 1.666777e-06
6.438818e-06 -1.260241e-05 -1.760996e-06
-8.217307e-06 -7.122950e-06 9.992620e-07
-1.342662e-05 4.215027e-06 -1.817653e-06
-9.664834e-06 -4.851442e-06 -8.701963e-07
-1.294199e-05 -1.576978e-06 2.190059e-06
-1.062538e-05 -3.827887e-06 -1.570115e-06
-4.314332e-06 -1.327342e-05 1.891322e-06
1.189894e-05 7.784237e-06 -1.708837e-06
1.451063e-05 -3.931003e-06 -5.387215e-22
1.189894e-05 -7.784237e-06 -1.708837e-06
8.587847e-06 -1.128108e-05 1.741288e-06
-1.759648e-06 -1.341714e-05 -2.085851e-06
-1.046009e-05 3.915185e-06 1.436777e-06
5.986142e-06 8.949001e-06 -7.501437e-07
-1.490584e-05 -9.617058e-07 6.454610e-07
8.938484e-06 -6.432907e-06 1.232844e-06
8.938484e-06 6.432907e-06 1.232844e-06
-5.060443e-07 -1.171521e-05 -1.900010e-06
-1.047690e-05 -1.065158e-05 -6.330303e-07
1.473871e-05 -2.963392e-06 -5.387215e-22
6.120680e-06 -1.089161e-05 2.172969e-06
8.252588e-06 -1.239684e-05 7.752540e-07
-4.072148e-08 1.230908e-05 2.135916e-06
-1.328450e-05 5.659771e-06 1.503125e-06
-9.271436e-06 -7.997541e-06 2.118894e-06
2.551469e-06 1.032443e-05 3.961661e-08
8.449899e-06 7.908161e-06 -1.802175e-06
3.597103e-07 1.438375e-05 1.556479e-06
-1.374351e-05 5.770884e-06 -7.386201e-07
-1.177136e-05 3.845416e-06 2.152840e-06
1.490234e-05 -1.982823e-06 -5.387215e-22
-1.428474e-06 -1.236919e-05 2.165936e-06
-1.225958e-05 4.889480e-06 -2.169088e-06
-1.206908e-05 -7.505826e-06 1.713918e-06
-2.205173e-08 1.066161e-05 3.433142e-07
-9.450522e-06 6.671888e-06 -1.798738e-06
9.952172e-06 1.110018e-05 -7.317554e-07
9.952172e-06 -1.110018e-05 -7.317554e-07
8.460408e-06 -7.896185e-06 -1.801825e-06
-6.233914e-06 1.355473e-05 -6.993364e-07
-6.014275e-06 8.783982e-06 2.194585e-07
1.500080e-05 -9.935839e-07 -5.387215e-22
-7.752039e-06 1.269495e-05 8.210540e-07
3.309669e-07 1.341592e-05 -2.120044e-06
-1.072048e-07 -1.328938e-05 -2.151785e-06
-4.744334e-06 1.238986e-05 2.156459e-06
1.477367e-05 1.783232e-06 8.054181e-07
1.477367e-05 -1.783232e-06 8.054181e-07
3.440939e-06 1.020859e-05 7.674214e-07
-2.337462e-06 -1.223872e-05 -2.167427e-06
-1.303614e-05 -3.641646e-06 2.084779e-06
2.174777e-06 -1.204989e-05 2.119000e-06
1.481585e-05 -3.628837e-21 9.543262e-07
-9.556874e-06 8.599440e-06 2.199386e-06
-5.695612e-06 -1.208971e-05 2.134687e-06
6.717849e-06 1.331387e-05 -7.193664e-07
-1.227545e-05 1.124155e-06 2.140183e-06
-5.305286e-06 -9.563237e-06 -1.111614e-06
1.393012e-05 5.378470e-06 -6.597564e-07
1.393012e-05 -5.378470e-06 -6.597564e-07
-7.907016e-06 -1.264190e-05 -7.242139e-07
-5.574919e-06 -1.313933e-05 -1.663501e-06
-1.226630e-06 -1.413970e-05 -1.729715e-06
1.420554e-05 -3.479353e-21 1.719636e-06
1.186476e-05 -5.984695e-07 1.981679e-06
1.186476e-05 5.984695e-07 1.981679e-06
-5.932587e-06 1.030562e-05 1.987123e-06
-1.176583e-05 -9.117132e-06 7.954590e-07
-1.350485e-05 1.732206e-06 2.056048e-06
-1.237591e-05 8.380777e-06 -6.127675e-07
-1.258029e-05 -5.144035e-07 -2.185992e-06
3.431706e-06 1.386614e-05 -1.653598e-06
3.877269e-06 -1.394290e-05 -1.468133e-06
-1.342556e-05 -6.530168e-06 -6.689853e-07
1.332361e-05 -3.263342e-21 2.144351e-06
4.962577e-06 -9.435926e-06 -3.413724e-07
6.071407e-06 -1.196605e-05 2.120539e-06
-7.340734e-06 -1.182189e-05 -1.915288e-06
-1.329551e-05 -7.740758e-08 2.150523e-06
5.086880e-06 1.405638e-05 6.060627e-07
-2.825763e-06 -1.112127e-05 -1.729013e-06
6.896519e-06 -1.326296e-05 -6.049192e-07
6.191605e-06 8.694462e-06 4.129342e-07
7.775226e-06 -7.419794e-06 6.952314e-07
7.772311e-06 7.414404e-06 6.774835e-07
1.234474e-05 -3.023588e-21 2.144351e-06
-1.063210e-05 -8.164793e-06 -2.124020e-06
-6.452294e-06 -1.070243e-05 -2.173495e-06
7.621807e-06 1.227164e-05 -1.496663e-06
-1.274112e-05 -7.740294e-06 -7.328395e-07
-1.022133e-05 -9.962628e-06 1.663266e-06
-1.273323e-05 -5.606231e-06 -1.916878e-06
7.544552e-06 -1.233007e-05 -1.486694e-06
-4.183875e-06 -1.376042e-05 -1.562281e-06
-1.008864e-05 -8.810777e-06 -2.126949e-06
-1.425991e-05 -1.744851e-06 1.578123e-06
1.146281e-05 -2.807578e-21 1.719636e-06
-1.142274e-06 1.303327e-05 2.185351e-06
-5.813637e-06 -1.112070e-05 2.180885e-06
-6.565015e-06 9.141614e-06 1.530718e-06
3.459925e-06 1.054244e-05 -1.347379e-06
5.543939e-06 1.232432e-05 -2.091848e-06
5.780271e-06 -1.298851e-05 1.710721e-06
-8.965812e-06 -6.025718e-06 -8.427935e-07
-3.620455e-06 -1.449583e-05 -6.313342e-07
-2.109078e-06 1.185392e-05 2.051149e-06
-4.866992e-06 9.905802e-06 1.267874e-06
1.085249e-05 -2.658094e-21 9.543262e-07
[...]
POINT_DATA 1873
VECTORS 10.000GHz_fone_imag double
-2.896952e+10 -1.411313e+10 1.813514e+08
2.771338e+10 1.206751e+10 -2.176877e+08
6.602161e+10 -3.093136e+10 -2.398170e+09
6.467534e+10 -4.507377e+10 -4.279402e+09
1.503856e+10 1.009982e+11 2.025150e+09
2.875337e+10 -1.787281e+10 9.350154e+08
-5.101315e+10 4.049774e+10 -3.963207e+08
5.167234e+10 4.656469e+10 -7.443001e+08
7.176412e+10 1.038331e+10 9.133011e+08
5.126148e+10 -3.533561e+10 4.033216e+08
-6.936462e+10 1.801005e+10 2.034601e+08
-3.472177e+10 -1.943653e+10 -1.589429e+09
7.523611e+10 1.627696e+09 -1.236811e+09
-3.962719e+10 7.662722e+09 1.363403e+08
2.780472e+10 -2.939165e+10 -2.048941e+09
-2.992342e+10 -3.101085e+10 -9.813959e+08
3.026409e+10 -4.184588e+09 1.574218e+09
-4.111739e+09 5.330147e+10 1.328529e+09
-6.975029e+10 4.804507e+10 1.857012e+09
5.240170e+10 2.971104e+09 -9.677750e+08
-1.224902e+10 -3.012521e+10 1.675567e+09
1.316417e+10 -3.000441e+10 -1.977714e+09
-3.379166e+10 -2.165963e+10 1.329686e+09
3.174048e+10 5.767348e+10 1.549496e+08
-5.695747e+10 -2.552456e+10 2.263123e+09
6.142209e+10 -3.303223e+10 -1.351506e+09
-8.506474e+10 -5.457747e+10 -4.077227e+09
-3.684954e+10 -9.875558e+10 -1.107915e+10
3.523633e+10 -9.331640e+10 1.269716e+09
8.160192e+10 -2.232266e+09 2.030824e+09
-5.408278e+10 8.489197e+10 -1.303440e+09
-4.437321e+10 4.896541e+08 -2.812852e+09
-9.758855e+10 -5.940230e+10 -1.273529e+09
-3.230543e+10 -2.412971e+10 -1.370246e+08
-9.069594e+10 1.920780e+10 1.131208e+10
-1.004671e+11 -4.063506e+10 -1.372405e+09
-4.593567e+10 -5.818491e+09 -2.176397e+09
-4.644565e+10 9.847862e+10 -9.443693e+09
-1.380731e+09 -6.050865e+10 -1.896975e+09
3.453020e+09 -6.306336e+10 7.899236e+08
4.869695e+10 -8.058252e+09 -2.616788e+09
-2.179986e+10 8.428158e+10 9.158601e+08
-3.568961e+10 -1.223797e+10 9.215304e+08
-2.630120e+10 2.059752e+10 1.030650e+09
-2.608743e+10 -2.624805e+10 -1.893683e+09
-1.170822e+10 2.971620e+10 -1.188214e+09
-4.826884e+09 3.410964e+10 2.833096e+09
-2.484384e+10 4.609496e+10 1.524538e+08
-8.785865e+10 -5.526333e+10 -1.692039e+08
5.338575e+10 6.759204e+10 -3.237396e+08
3.683204e+10 -1.924867e+09 2.740422e+09
-2.009201e+10 -2.197797e+10 7.146759e+08
2.670001e+10 -3.007848e+10 1.574130e+09
-2.086889e+10 5.433644e+10 -2.332221e+09
3.421665e+10 -2.246428e+10 -6.948311e+08
-2.766118e+10 -2.493899e+10 1.783223e+09
-3.460217e+10 1.768419e+10 1.978488e+09
2.449558e+10 4.851487e+10 -1.359738e+09
7.881127e+10 6.342603e+10 9.172951e+09
4.021366e+10 6.295714e+09 -1.498656e+09
-3.266013e+10 -1.963453e+10 -2.300352e+08
-6.520543e+09 -4.433757e+10 -5.945591e+08
3.910383e+09 -3.464508e+10 -1.949701e+08
8.054246e+10 -3.301287e+10 -3.664731e+09
-2.045953e+10 -8.058645e+10 -7.446416e+09
7.318681e+09 -8.803862e+10 -5.466021e+09
-2.701675e+10 -3.131297e+10 -1.089895e+09
4.554291e+10 1.328813e+10 1.750486e+08
-1.472499e+10 -1.118531e+11 -4.507805e+09
1.071338e+10 -7.328727e+10 -4.543361e+09
-9.173389e+10 4.289431e+09 -2.155284e+09
6.811613e+09 -3.289643e+10 1.593114e+09
-8.847327e+09 -3.955741e+10 -7.575043e+08
3.326954e+10 -1.067314e+11 9.554774e+08
-2.849091e+10 -1.030342e+11 3.121951e+09
1.722304e+09 -4.584279e+10 -1.331672e+09
3.562090e+08 -3.516013e+10 9.065823e+08
-1.746276e+10 -2.198759e+10 -5.910336e+07
1.976176e+10 3.663097e+10 -3.806551e+08
4.159035e+10 2.912071e+10 -7.450898e+08
-7.177565e+10 5.459020e+10 -8.630289e+08
-3.471354e+10 7.927007e+10 -1.199512e+09
-3.708812e+10 3.298082e+10 9.558033e+07
2.160689e+10 2.454149e+10 -2.884750e+08
-8.120936e+10 -4.826902e+10 -2.416503e+09
4.844911e+10 -1.751542e+10 3.026227e+08
2.930332e+10 7.411372e+10 2.182551e+09
7.253394e+10 3.962704e+10 2.436373e+09
-2.034958e+10 -3.067474e+10 -5.297129e+09
8.376798e+09 6.020880e+10 1.061314e+07
2.817448e+10 -8.402993e+10 3.788772e+09
-2.564360e+10 -7.915757e+10 -1.485927e+09
1.898449e+10 -5.361161e+10 9.238147e+08
-1.816576e+10 -5.340395e+10 -1.339310e+09
5.287768e+10 -3.570153e+09 -7.880454e+08
-5.058025e+10 -2.049186e+10 2.536874e+09
-6.701959e+10 1.138411e+11 3.247238e+08
-5.164206e+10 -5.286721e+08 2.065152e+09
-1.852105e+10 8.445520e+10 -2.977394e+09
-1.928318e+10 -3.267532e+10 1.650573e+09
-7.359246e+09 -4.127640e+10 -7.970442e+08
7.097359e+09 -4.087810e+10 -3.393729e+08
3.192772e+10 7.402930e+09 -3.959026e+08
4.117341e+10 -1.477001e+10 -2.362525e+09
-5.063061e+10 8.203397e+10 -4.664159e+09
8.175912e+10 -2.942859e+10 -3.712644e+07
-2.360227e+10 2.226901e+10 -2.238150e+09
-3.379105e+10 -1.885142e+09 -1.353783e+08
4.659423e+10 2.892831e+10 -3.650781e+08
2.590133e+10 2.536028e+10 -4.085268e+08
-1.644536e+10 -3.415210e+10 5.719745e+08
1.377909e+10 4.030004e+10 1.003017e+09
4.363501e+10 -2.181225e+10 -3.077987e+08
1.203680e+10 4.845438e+10 -9.433144e+08
2.811555e+10 -7.541404e+10 -1.908453e+09
-3.269188e+10 -8.055769e+10 -6.264426e+08
-7.842810e+10 -3.163055e+10 -2.096161e+09
4.314098e+10 2.083843e+10 -2.074592e+09
8.212957e+10 2.111766e+10 -1.016266e+08
1.178871e+10 3.404365e+10 -3.800701e+09
4.131103e+10 1.005939e+11 3.425096e+08
-1.594715e+10 -3.409415e+10 2.242772e+09
5.637571e+10 -8.687194e+09 2.414342e+09
-5.856583e+10 4.069476e+10 3.889060e+09
-6.691002e+09 5.886222e+10 -3.614497e+08
-4.118902e+10 -1.279617e+10 -5.705404e+08
-8.407793e+10 -8.733155e+09 -2.714047e+09
-3.712967e+10 7.255992e+09 -2.497369e+09
4.417969e+10 9.102256e+10 2.700056e+09
4.777579e+10 -1.660464e+10 9.419052e+08
8.107814e+10 -5.387179e+10 -4.442684e+09
3.574639e+09 3.448390e+10 -1.370472e+09
-1.381674e+10 -4.132650e+10 1.397027e+09
-2.180526e+10 4.479899e+10 5.864011e+08
3.364935e+10 1.912517e+09 5.002060e+08
-3.629914e+10 -2.158324e+10 7.847759e+08
-5.750992e+10 7.025540e+10 -3.804015e+09
1.009108e+10 4.118292e+10 2.369571e+09
-4.309609e+10 8.379306e+10 -5.938486e+08
-1.337102e+10 5.542621e+10 -8.214983e+08
-3.195280e+10 7.985427e+10 -1.558563e+09
-5.062364e+10 1.661391e+10 -2.284886e+08
2.246975e+10 -3.849102e+10 -1.455550e+09
-1.002269e+10 -3.971640e+10 -2.683172e+09
-1.825559e+10 -3.787657e+10 2.698871e+09
-3.145725e+10 -2.663908e+10 -2.094399e+09
-6.072968e+10 8.957397e+09 -6.423368e+08
2.578678e+10 7.184703e+10 1.136099e+09
7.847246e+10 -5.354628e+10 1.431562e+09
-1.946670e+09 3.025990e+10 -5.305900e+08
-6.080293e+10 -8.811068e+10 1.633291e+09
6.136930e+10 -7.928448e+10 3.725826e+09
-8.548357e+10 3.987701e+09 7.732850e+08
-2.635443e+10 2.596631e+10 -2.473414e+09
-7.529467e+09 -3.702549e+10 2.620731e+09
-4.520864e+10 -2.455969e+10 -4.814829e+08
-2.433830e+10 -1.685749e+10 1.225248e+08
8.656799e+10 2.387019e+09 4.244798e+08
1.649169e+10 3.973399e+10 3.586988e+08
-4.477657e+10 6.209473e+10 -1.711224e+09
8.300661e+10 -1.450932e+10 1.122694e+09
6.438212e+10 -6.189011e+10 -2.444515e+09
4.404543e+10 -2.635159e+09 8.143613e+08
1.095087e+10 2.893763e+10 1.960462e+08
2.807274e+10 6.892095e+10 1.924806e+09
-6.170893e+09 -3.933431e+10 6.555897e+08
-6.805288e+10 1.334375e+10 -1.563202e+09
1.708326e+10 4.193275e+10 -9.037112e+08
-2.553880e+10 4.316487e+10 6.881027e+08
1.052382e+11 -4.847038e+09 -5.886880e+09
4.765581e+10 7.000318e+10 -1.785755e+08
2.871051e+10 -2.413754e+10 2.409214e+08
-2.393662e+10 -2.235887e+10 -3.867016e+08
-6.805168e+10 -6.935770e+10 2.661841e+09
3.090001e+10 1.410814e+10 6.681031e+08
6.242209e+10 4.271850e+10 1.289596e+09
-2.185626e+09 -3.652564e+10 -1.709856e+09
2.582414e+10 1.735593e+10 -1.396183e+08
6.031656e+10 -1.178120e+09 2.965097e+08
-4.411643e+10 2.172989e+09 1.180994e+09
5.458045e+10 1.244404e+10 -9.187251e+08
5.926638e+09 -3.835751e+10 -2.731915e+09
-3.879062e+09 -3.175449e+10 -3.227871e+07
7.505857e+10 -2.771997e+10 3.366046e+09
-6.891108e+10 8.571841e+09 -2.128184e+09
-1.743094e+10 4.893060e+10 -4.696427e+08
-7.434187e+10 -1.459033e+10 1.823328e+09
-1.026711e+09 -3.795761e+10 8.488458e+08
4.639851e+10 4.942573e+10 -4.890288e+08
-4.969513e+10 1.941888e+10 -2.231114e+09
2.990909e+10 -1.360123e+10 2.641953e+09
7.193833e+09 5.817381e+10 -9.343870e+06
-8.732444e+10 5.040220e+10 4.879470e+09
1.358617e+10 -3.252958e+10 2.179652e+08
-1.374069e+10 -3.268711e+10 -2.235374e+08
-2.809796e+10 1.909365e+10 -6.357635e+08
-3.258441e+10 1.387816e+10 -1.210381e+09
-4.470123e+10 5.558886e+09 -3.740214e+08
-4.043478e+08 -3.653256e+10 -5.806915e+07
-4.681228e+09 -8.275871e+10 -1.147591e+09
4.387644e+09 -6.130951e+10 9.981027e+08
7.234659e+10 4.686405e+10 2.093260e+09
-1.899626e+10 2.570202e+10 5.687814e+08
2.132041e+09 5.521105e+10 -2.052341e+09
2.125767e+10 3.010566e+10 -2.767185e+09
5.196000e+08 5.147448e+10 9.858921e+08
4.364257e+10 -1.247526e+10 -1.063117e+09
-4.170582e+10 -1.089073e+10 -9.668780e+08
-1.692304e+10 3.191975e+10 2.131777e+09
-3.803194e+08 -6.327218e+10 4.665908e+08
-8.624548e+10 -4.129062e+10 1.193181e+09
-4.955114e+10 -2.739152e+10 -3.779769e+08
-3.601215e+10 2.078583e+10 -8.011089e+08
2.477395e+09 5.047968e+10 -7.583986e+08
4.044668e+10 -1.276652e+10 -4.811098e+09
-7.540241e+10 2.118007e+10 1.779122e+09
-3.374843e+10 -1.559336e+10 -1.622785e+09
7.906513e+10 -5.542578e+10 -4.912259e+09
-6.003689e+10 -6.616920e+10 1.009345e+10
7.372660e+10 -7.588866e+10 5.630649e+09
-7.912878e+09 -7.024379e+10 -1.014383e+09
-4.327857e+10 4.953809e+10 1.147880e+09
-5.761303e+10 3.489120e+10 6.519678e+06
2.841889e+10 -1.675272e+10 -8.529168e+08
-2.199251e+10 3.876602e+10 -1.364613e+09
-2.587893e+10 2.588658e+10 1.202748e+09
-2.275292e+10 5.328044e+10 -4.326890e+08
-2.732011e+10 -1.624485e+10 1.612127e+08
-4.869408e+10 1.301527e+10 1.221070e+09
-4.018150e+10 4.677463e+10 -1.277950e+09
-3.975912e+09 4.009362e+10 4.117856e+09
7.121308e+08 -6.934413e+10 1.322824e+08
6.084490e+10 7.174150e+09 -2.842044e+08
-5.384206e+10 2.901742e+10 -2.801457e+09
7.118398e+10 4.178274e+10 3.741866e+09
6.841705e+10 -2.333540e+10 4.627834e+08
3.657199e+10 -1.759804e+10 9.607554e+08
-4.178467e+10 -1.762351e+10 1.636242e+09
-4.122502e+10 6.746689e+10 -3.457194e+09
-2.854467e+10 6.315764e+09 1.133473e+09
6.686288e+10 1.283635e+10 9.544790e+08
7.717620e+10 4.542997e+10 -4.992301e+09
-1.431828e+09 -1.058162e+11 -2.892482e+09
-1.064551e+11 1.512469e+10 -8.158802e+09
-2.456645e+10 -4.482654e+10 1.654428e+09
2.515421e+10 -4.517904e+10 -3.022237e+09
-9.525253e+10 2.175125e+10 -1.022846e+10
-8.454428e+10 4.997237e+10 -1.315422e+10
2.539475e+10 -4.589602e+10 -1.005700e+09
-2.382646e+10 -4.455053e+10 2.270252e+09
-3.173093e+10 1.095556e+10 1.159929e+09
4.408732e+10 1.032003e+10 -1.451806e+09
-2.079113e+10 -3.224202e+10 1.377473e+09
-1.958530e+07 -1.204650e+11 3.546196e+09
2.086686e+10 -2.977515e+10 -1.148542e+09
-2.300914e+09 8.634940e+10 6.158856e+08
4.048921e+10 5.541072e+10 1.305528e+09
-9.381782e+10 -3.296030e+10 1.050430e+09
-2.707625e+10 5.681682e+10 2.212698e+09
3.895716e+10 1.337939e+10 -8.660999e+08
4.042394e+10 -3.653115e+10 2.612076e+09
-4.490793e+10 -3.889613e+10 1.589162e+09
1.694038e+10 7.759830e+10 -1.892549e+09
-2.312327e+10 6.692308e+10 -3.222099e+09
2.043336e+09 -8.656520e+10 1.093271e+09
2.940276e+10 4.335775e+10 -3.943045e+08
-6.480571e+10 -4.535395e+10 2.128162e+09
3.238092e+10 3.088110e+10 1.390627e+08
5.273099e+10 1.622861e+10 -2.365991e+09
-2.561192e+10 -3.030529e+10 -1.192097e+09
2.151703e+10 -3.355618e+10 4.689689e+08
-4.888159e+10 -2.249452e+10 -2.187017e+09
-6.878641e+10 7.758566e+10 -1.768496e+09
1.147004e+10 4.925928e+10 -8.253249e+08
-3.929966e+10 1.306769e+09 -3.032177e+09
2.834673e+09 -9.323980e+10 -7.100743e+08
-4.035162e+10 -1.780528e+10 9.947711e+06
2.577902e+10 1.713815e+10 -1.196969e+09
-2.488576e+10 -3.088578e+10 1.387171e+09
2.307738e+10 -3.126988e+10 -8.181707e+08
-4.812743e+10 5.275283e+10 -9.244829e+07
3.054801e+10 7.759482e+10 3.780431e+09
3.652322e+10 5.679257e+10 1.251975e+09
5.692361e+10 1.504838e+10 1.241444e+09
1.468845e+10 -2.499125e+10 -1.096841e+08
-1.668172e+10 -2.893794e+10 8.832206e+07
7.545931e+08 -5.001822e+10 1.887173e+08
3.274280e+10 -1.077978e+11 1.416840e+09
-3.395584e+10 -7.973972e+10 6.111086e+09
-6.117962e+10 -3.916036e+10 -1.145186e+09
2.941013e+10 -3.757556e+10 6.850286e+08
-3.513589e+10 -4.458600e+10 -7.754880e+08
5.589746e+10 1.924403e+10 -1.043210e+09
-2.036482e+10 2.408779e+10 2.006798e+09
4.249361e+10 -2.954302e+10 2.902769e+08
-5.440213e+10 2.778507e+10 1.463470e+09
3.564477e+10 -3.051580e+10 -2.179051e+07
-1.085840e+09 -5.324011e+10 4.361385e+08
-3.695977e+10 -3.074083e+10 3.407809e+09
-3.472230e+10 7.601343e+10 -4.678024e+09
-3.655806e+10 1.046047e+11 7.286221e+09
1.218937e+10 -3.011984e+10 -3.129129e+08
-1.241650e+10 -2.976069e+10 8.708792e+08
-1.734083e+10 6.368480e+10 7.540100e+08
-6.637710e+09 7.123835e+10 1.362443e+08
-6.266870e+10 5.661766e+10 -2.010715e+09
-1.799334e+10 -3.442461e+10 -1.381497e+09
1.741874e+10 -2.984417e+10 -3.066156e+07
-1.643829e+09 -4.419693e+10 -4.554579e+08
1.210484e+11 -2.302701e+10 7.539306e+07
-4.398059e+10 -8.072128e+10 -7.447098e+08
4.525373e+10 -8.970989e+10 1.058827e+09
-1.157492e+10 3.486613e+10 -6.331409e+08
-4.251055e+10 4.064859e+08 -3.754639e+08
6.506703e+10 2.610299e+09 -3.113498e+09
-7.432778e+10 -6.326698e+10 -2.038730e+09
-3.369289e+10 3.683967e+09 2.400217e+09
-2.095953e+09 9.129541e+10 -5.528498e+09
-2.921427e+10 -2.980284e+10 -9.746373e+08
-4.628442e+08 -2.910794e+10 6.168459e+08
3.358390e+10 -2.898140e+10 3.082000e+09
-6.851473e+10 8.690792e+10 -6.965718e+09
-6.878070e+10 -4.364036e+09 -2.935022e+09
3.194848e+10 -8.840790e+09 1.629520e+09
-5.840322e+10 -1.023333e+10 -1.114992e+09
4.137030e+10 1.467707e+08 2.963912e+08
5.477985e+10 7.302300e+09 -2.415606e+09
3.398521e+10 8.842637e+10 -2.809260e+08
5.092089e+10 -2.288694e+10 -3.812531e+08
4.942381e+10 1.323098e+10 1.784148e+09
-5.304527e+10 -3.458986e+10 -6.765000e+08
-6.018705e+10 -4.854050e+10 2.786543e+09
7.529458e+10 -5.945994e+10 2.873547e+08
5.241903e+10 3.823882e+10 7.277703e+08
-1.473171e+10 2.684350e+10 1.193555e+09
2.986754e+10 2.679015e+10 4.423325e+09
3.101893e+10 9.380945e+10 4.691934e+09
-1.610218e+10 -4.915638e+10 -7.685581e+08
1.939221e+10 -5.299279e+10 1.394205e+09
4.357006e+10 1.375192e+10 -1.939973e+08
-6.804841e+10 2.209701e+10 2.722773e+09
5.132424e+10 -3.904335e+10 -1.217264e+09
-3.800579e+10 1.678125e+10 -1.460961e+09
5.517202e+10 6.517865e+10 -2.750053e+09
8.998091e+10 -9.847435e+09 3.761163e+09
-3.256416e+10 -2.256255e+09 4.922674e+06
-6.304399e+10 -6.871633e+10 4.737278e+09
3.967433e+10 -5.920097e+10 1.033387e+10
-4.132170e+10 -1.414004e+10 -2.880055e+09
-2.930115e+10 -6.586382e+09 1.513382e+09
1.510930e+10 4.240855e+10 2.232182e+09
3.644246e+10 7.452178e+10 -1.745225e+09
4.053690e+10 1.246920e+10 -3.141099e+08
-2.331661e+10 -4.586121e+10 -1.860216e+08
1.586373e+10 -3.527352e+10 8.717341e+08
-6.673474e+09 3.777406e+10 4.593897e+09
-3.431345e+10 -2.071201e+10 1.395904e+09
-6.248591e+10 -4.367216e+10 3.728870e+09
-1.339945e+10 6.032518e+10 3.481722e+08
3.009622e+10 4.805311e+10 -7.080512e+08
-3.175803e+09 4.021794e+10 -2.235569e+09
-3.789092e+10 -6.306443e+09 -6.739621e+08
2.081139e+10 -5.783179e+10 3.031362e+09
6.397573e+09 3.102778e+10 -1.122729e+09
-2.108529e+10 -5.820046e+10 -3.072787e+09
9.729043e+10 1.894248e+10 -2.684470e+09
-3.453985e+10 -2.006219e+10 1.454549e+09
1.046262e+11 3.101087e+10 6.157485e+09
-7.741285e+10 6.052918e+10 -6.700781e+09
-3.070218e+09 4.394205e+10 -3.547871e+09
6.504789e+10 8.080723e+10 1.181142e+09
4.991980e+10 3.696391e+10 5.622197e+08
-5.003827e+09 -8.960169e+10 3.684817e+08
-3.985206e+08 -8.855224e+10 1.141173e+09
-3.250572e+10 2.218258e+10 -4.299338e+09
-3.641394e+10 -3.315962e+09 3.591471e+08
3.306075e+10 3.143656e+10 -1.185679e+09
-3.247101e+10 4.673307e+10 -5.100510e+08
-8.097469e+10 -4.228543e+10 -6.683657e+09
7.765082e+10 -5.359089e+10 3.641782e+09
2.794227e+10 6.341866e+10 -5.323187e+08
-4.933833e+10 3.812450e+10 8.066488e+08
4.279739e+10 -1.477914e+10 1.056033e+09
-3.881800e+09 4.688989e+10 2.038002e+09
4.065391e+09 -4.740581e+10 1.364891e+08
-3.970782e+10 8.489197e+10 4.048814e+09
-3.481134e+09 -5.933790e+10 -1.300765e+09
4.742933e+10 -1.251913e+10 3.930608e+08
-3.369702e+10 1.517400e+10 -1.828010e+09
3.380527e+10 2.506185e+10 -3.453840e+08
-5.964882e+10 4.379405e+10 -5.034579e+08
5.683125e+10 -5.895039e+10 6.210771e+08
-3.347152e+10 -3.689483e+10 1.258642e+06
1.352502e+10 -5.688077e+10 8.649053e+08
-1.226895e+10 -5.267174e+10 7.095830e+08
1.092796e+11 3.650488e+10 8.543049e+09
-7.959539e+10 1.507299e+10 5.598359e+08
-1.170599e+10 -8.597197e+10 3.590659e+09
2.317253e+10 -1.173005e+11 -7.132424e+09
5.751431e+08 -3.796276e+10 -1.039866e+09
-4.970377e+09 -4.082496e+10 5.086244e+09
-1.105347e+09 3.919106e+10 1.156449e+09
1.894391e+10 7.033557e+10 6.315501e+08
-3.177448e+10 4.365905e+10 1.909744e+09
-5.047964e+10 4.409952e+09 -2.897711e+09
4.725033e+10 7.899543e+10 2.744701e+09
-2.068885e+10 -5.577218e+10 8.075017e+08
6.189798e+10 8.257862e+10 -8.145604e+09
2.101016e+10 -5.566252e+10 -5.948535e+08
-6.644639e+10 2.014946e+10 -5.384866e+08
4.784557e+10 -6.137268e+10 -3.113035e+09
-4.928711e+10 -5.296827e+10 -8.035457e+08
-4.630660e+10 -4.791501e+09 4.622997e+08
8.125591e+10 -6.177719e+10 1.818066e+09
3.220857e+10 -2.186577e+10 8.424287e+08
-3.499941e+10 -2.305793e+10 -7.001214e+07
-8.768371e+09 -5.233295e+10 -6.261227e+08
1.465693e+10 -6.990941e+10 -5.986460e+08
3.466027e+10 -4.823464e+10 3.094625e+09
6.333246e+10 6.367917e+10 -9.665850e+06
3.695345e+09 3.469808e+10 2.301090e+08
3.043453e+10 2.456514e+10 1.598437e+09
6.743788e+10 -4.843117e+10 -3.808130e+08
-6.638217e+10 5.434298e+10 1.312729e+10
-3.250588e+10 1.695465e+10 -1.957071e+08
4.580189e+10 -1.101792e+11 -2.017403e+09
-4.705574e+10 -1.160460e+11 -4.325562e+09
-2.776761e+10 1.064382e+11 8.661395e+09
-1.067824e+10 3.482419e+10 -5.504459e+08
-3.141356e+10 -4.584658e+10 7.547362e+08
1.292334e+10 -4.153090e+10 7.926553e+08
-1.334558e+10 -4.294075e+10 -6.786228e+08
2.307211e+10 4.559097e+10 -1.273752e+09
3.134825e+10 -1.382130e+10 -3.063853e+07
1.990938e+09 4.186454e+10 3.617715e+09
-8.276601e+10 -6.611294e+09 1.828772e+09
5.477927e+10 7.396107e+09 3.868350e+08
3.608213e+10 -5.407855e+10 1.625420e+09
-3.089247e+10 -5.400134e+10 -1.601671e+09
1.047838e+10 -4.653256e+10 -2.611813e+09
2.096806e+10 -4.575727e+10 2.240560e+09
-1.371809e+10 -5.011026e+10 2.089167e+09
3.422712e+10 -2.810038e+09 -3.663251e+09
5.059694e+10 6.198061e+10 1.772613e+09
8.157041e+10 1.358385e+10 -1.090998e+10
2.673342e+10 3.822181e+10 1.560258e+09
-7.731685e+10 3.055221e+10 4.479766e+08
5.911808e+10 4.027642e+10 -4.714334e+09
-1.101328e+11 8.176580e+09 -4.380266e+09
-7.731910e+10 2.919240e+09 1.526933e+09
-3.357872e+10 -1.540944e+10 -3.687349e+09
-2.422611e+10 -4.137179e+10 3.208079e+08
4.427859e+10 -3.557107e+10 4.805066e+08
-5.343057e+10 -4.218248e+10 -3.322356e+07
7.784620e+10 3.378234e+10 -1.309222e+09
4.212217e+10 8.897491e+08 -3.882329e+09
3.615376e+10 -2.437980e+10 -2.913316e+09
-5.322546e+10 2.334622e+10 1.858491e+09
5.283664e+10 -9.737296e+10 -3.652603e+09
-4.608178e+10 -8.596220e+10 3.341441e+09
-4.130540e+10 -7.015507e+10 -1.339817e+08
4.545643e+10 -7.405893e+10 -5.877871e+08
-7.451835e+10 -4.659246e+10 2.038142e+09
-1.838773e+10 9.401333e+10 -7.293533e+08
8.517901e+10 3.345650e+08 -3.616015e+08
-1.615752e+10 -3.280393e+10 -2.522898e+08
1.713654e+10 -3.359810e+10 -1.101408e+09
3.404127e+10 -1.880804e+10 2.577272e+09
9.175780e+10 -4.549233e+10 -2.767180e+09
2.501606e+10 1.163358e+11 7.360944e+09
5.555880e+10 -7.094317e+10 -2.858558e+09
-4.878257e+10 -5.685672e+10 -4.943561e+09
-2.525233e+10 -1.226081e+10 -7.980424e+08
6.777323e+10 -3.775552e+10 -1.924464e+09
4.688289e+10 -7.713574e+10 6.213560e+09
-4.054298e+10 -7.354343e+10 1.952941e+09
-2.749087e+10 -4.034349e+10 -2.721956e+07
2.713846e+10 -3.658485e+10 2.918557e+08
5.572548e+10 -1.304272e+10 1.662078e+09
1.978597e+09 -3.838710e+10 9.490294e+08
-1.946510e+09 -3.516246e+10 -2.289829e+08
2.805121e+10 2.678694e+10 -1.211558e+09
1.088012e+11 -4.094016e+10 1.850100e+09
4.742801e+10 2.754064e+10 4.579215e+08
1.587470e+10 9.001196e+10 1.509583e+09
-5.096782e+10 9.319766e+10 -8.665613e+09
-2.900605e+10 3.829515e+10 5.809766e+08
-8.729499e+10 -2.849240e+10 -3.012524e+09
-2.157785e+10 -3.038428e+10 -6.579123e+08
2.510349e+10 -3.801995e+10 2.792629e+08
1.517725e+10 -3.340503e+10 1.481159e+09