# vtk DataFile Version 2.0
Electric current density generated by TTH
ASCII
DATASET UNSTRUCTURED_GRID
POINTS 6521 double
1.976660e-05 3.107638e-05 -1.848663e-22
-2.990151e-05 -1.880190e-05 3.781190e-08
2.425171e-05 2.655129e-05 7.458919e-07
3.254760e-05 1.593584e-05 7.367263e-07
3.600796e-05 -4.914130e-06 -7.062111e-07
3.600796e-05 4.914130e-06 -7.062111e-07
-1.183851e-06 3.625746e-05 7.274053e-07
-1.183851e-06 -3.625746e-05 7.274053e-07
3.588829e-05 5.810347e-06 -7.008268e-07
3.588829e-05 -5.810347e-06 -7.008268e-07
-2.946867e-05 2.097124e-05 -7.489469e-07
1.936485e-05 3.132830e-05 -1.848663e-22
3.519353e-05 3.921544e-06 3.588071e-07
3.519353e-05 -3.921544e-06 3.588071e-07
-2.579503e-05 -2.546503e-05 7.349823e-07
-3.359275e-05 1.388609e-05 7.031813e-07
-2.579507e-05 2.546506e-05 -7.349708e-07
1.969717e-05 -3.053139e-05 -7.091584e-07
1.893094e-05 -3.104804e-05 -6.972908e-07
-3.510954e-05 -9.498514e-06 6.941676e-07
-2.920250e-05 -2.162165e-05 7.084673e-07
-3.482101e-05 -6.189302e-06 -2.599970e-07
1.895990e-05 3.157503e-05 -1.848663e-22
2.779657e-05 -2.339583e-05 -7.098080e-07
2.997076e-05 2.053691e-05 -7.098258e-07
2.997076e-05 -2.053691e-05 -7.098258e-07
-3.178654e-05 1.735035e-05 7.420246e-07
3.117447e-05 1.660414e-05 -1.308292e-09
9.559510e-06 -3.400795e-05 8.990145e-08
9.559510e-06 3.400795e-05 8.990145e-08
1.283234e-05 3.338992e-05 -6.906279e-07
1.283234e-05 -3.338992e-05 -6.906279e-07
2.864518e-05 -2.066636e-05 -4.613853e-08
1.855180e-05 3.181652e-05 -1.848663e-22
2.751412e-05 -2.214896e-05 -3.535369e-08
2.756011e-05 2.209039e-05 2.005893e-10
2.864518e-05 2.066636e-05 -4.613853e-08
3.421864e-05 -8.910631e-06 -2.400293e-07
3.421864e-05 8.910631e-06 -2.400293e-07
-3.021275e-05 1.994802e-05 7.437240e-07
-3.095182e-05 1.877550e-05 7.441947e-07
-3.456803e-05 -7.991614e-06 4.636161e-07
3.317482e-05 1.466638e-05 7.286632e-07
2.479059e-05 2.520463e-05 -2.193208e-07
1.814062e-05 3.205274e-05 -1.848663e-22
-3.050502e-05 1.963127e-05 -7.276421e-07
-3.504461e-05 -4.470798e-06 1.098390e-07
-3.259426e-05 1.470996e-05 -6.856673e-07
-3.338653e-05 1.159987e-05 -1.875264e-07
3.373921e-05 1.055571e-05 2.151010e-07
3.373791e-05 -1.055345e-05 2.085582e-07
-3.316209e-05 -1.480193e-05 7.155332e-07
-2.994753e-06 3.621825e-05 7.061710e-07
-2.694398e-05 2.423571e-05 -7.365704e-07
-2.694405e-05 -2.423563e-05 7.365709e-07
1.772644e-05 3.228364e-05 -1.848663e-22
1.283096e-06 -3.530274e-05 9.049110e-08
2.148750e-06 -3.527968e-05 -1.905570e-07
1.283096e-06 3.530274e-05 9.049110e-08
2.148750e-06 3.527968e-05 -1.905570e-07
8.725000e-06 3.496540e-05 -7.538254e-07
8.725000e-06 -3.496540e-05 -7.538254e-07
1.039468e-05 -3.483326e-05 -7.025944e-07
1.039468e-05 3.483326e-05 -7.025944e-07
-3.521841e-05 8.630017e-06 7.317549e-07
3.161466e-05 -1.575536e-05 6.084142e-08
1.730931e-05 3.250919e-05 -1.848663e-22
3.124893e-05 -1.654481e-05 -2.362924e-07
-3.632156e-05 -2.338302e-07 -7.132374e-07
-2.522476e-05 -2.616149e-05 7.062646e-07
3.082820e-05 -1.727987e-05 1.734196e-07
1.630549e-05 3.155147e-05 -5.063922e-07
1.630549e-05 -3.155147e-05 -5.063922e-07
3.434037e-05 -1.185201e-05 -7.112053e-07
-3.036121e-05 1.806343e-05 1.077126e-07
2.011346e-05 -3.021635e-05 7.210484e-07
-3.532187e-05 -1.011491e-06 1.533608e-07
1.688932e-05 3.272936e-05 -1.848663e-22
-3.010550e-06 -3.623285e-05 6.999824e-07
8.393255e-06 -3.535165e-05 7.089500e-07
8.393255e-06 3.535165e-05 7.089500e-07
2.208011e-05 -2.758102e-05 -1.217958e-07
-2.617102e-05 2.518017e-05 7.148721e-07
-2.535611e-05 2.487347e-05 5.103704e-07
-1.578620e-05 -3.245903e-05 -7.545386e-07
-2.353250e-05 2.736848e-05 -7.545318e-07
-1.578662e-05 3.245913e-05 -7.545318e-07
-1.386256e-05 -3.333188e-05 7.543835e-07
1.646653e-05 3.294409e-05 -1.848663e-22
-2.362583e-05 -2.729720e-05 -7.543221e-07
-2.189415e-05 2.870246e-05 7.543835e-07
-1.386256e-05 3.333188e-05 7.543835e-07
-1.793778e-05 -3.132763e-05 7.543835e-07
-1.178932e-05 3.411479e-05 -7.545337e-07
-2.197621e-05 -2.863308e-05 7.545337e-07
-2.008865e-05 2.998755e-05 -7.545337e-07
-1.178932e-05 -3.411479e-05 -7.545337e-07
-2.619569e-05 -2.513991e-05 -7.182174e-07
-2.990565e-05 1.911426e-05 -4.792698e-07
1.604101e-05 3.315337e-05 -1.848663e-22
-3.257129e-05 1.558075e-05 -7.541492e-07
-7.204404e-06 3.538104e-05 -7.541078e-07
3.292288e-05 1.290189e-05 2.425506e-07
2.785323e-05 2.327879e-05 7.205136e-07
-2.880703e-05 2.196863e-05 -7.391883e-07
2.206997e-05 2.759875e-05 -1.611404e-07
-2.521070e-05 2.614414e-05 -7.142560e-07
-2.772654e-05 -2.333003e-05 7.374735e-07
-2.775678e-05 2.330886e-05 -7.353338e-07
4.042009e-06 3.509000e-05 4.646152e-08
1.561283e-05 3.335715e-05 -1.848663e-22
4.042009e-06 -3.509000e-05 4.646152e-08
-3.522197e-05 -3.132745e-06 -2.436643e-07
3.051533e-05 1.968681e-05 7.158337e-07
3.103230e-05 1.890687e-05 7.074934e-07
3.051533e-05 -1.968681e-05 7.158337e-07
3.103230e-05 -1.890687e-05 7.074934e-07
-3.502889e-05 -7.310373e-06 6.960900e-07
3.578145e-05 -6.380946e-06 7.046076e-07
3.578145e-05 6.380946e-06 7.046076e-07
-3.494613e-05 -9.234486e-06 -7.514954e-07
1.518206e-05 3.355540e-05 -1.848663e-22
-7.140553e-06 -3.537380e-05 -7.546797e-07
-9.520219e-06 -3.481760e-05 -7.545001e-07
-1.807335e-05 3.124506e-05 -7.545001e-07
-2.004598e-05 -3.001763e-05 7.545001e-07
-9.520218e-06 3.481760e-05 -7.545001e-07
-3.472390e-05 -1.040402e-05 -7.345229e-07
-2.541783e-05 -2.452587e-05 -2.891349e-08
-3.381593e-05 1.023844e-05 1.300533e-07
-2.893159e-05 2.029454e-05 -1.693644e-07
-2.784901e-05 2.173200e-05 -8.023571e-08
1.474878e-05 3.374809e-05 -1.848663e-22
-2.793786e-05 -2.161447e-05 5.921060e-08
3.650664e-05 9.508433e-07 -6.106249e-07
3.650664e-05 -9.508433e-07 -6.106249e-07
-2.839498e-05 -2.277269e-05 -6.819844e-07
-2.724274e-05 2.248891e-05 -8.915566e-08
-2.722043e-05 -2.251452e-05 8.135825e-08
-3.610686e-05 -4.002892e-06 -7.112176e-07
-3.143683e-05 1.611313e-05 -8.783611e-08
1.461842e-05 -3.326073e-05 7.100067e-07
1.461842e-05 3.326073e-05 7.100067e-07
1.431305e-05 3.393518e-05 -1.848663e-22
3.488401e-05 1.033408e-05 -6.894546e-07
3.488401e-05 -1.033408e-05 -6.894546e-07
-2.613701e-05 2.377156e-05 -1.206362e-07
-2.614366e-05 -2.377002e-05 1.425430e-07
7.372110e-06 3.454281e-05 -1.370013e-08
7.372110e-06 -3.454281e-05 -1.370013e-08
2.550287e-05 2.455103e-05 -3.366716e-07
-3.444013e-05 1.173207e-05 6.889862e-07
-2.936670e-05 1.966642e-05 1.849655e-07
1.343127e-05 -3.267120e-05 -7.463634e-08
1.387495e-05 3.411665e-05 -1.848663e-22
1.343127e-05 3.267120e-05 -7.463634e-08
3.200916e-05 -1.714212e-05 -7.172778e-07
3.630234e-05 2.544022e-06 6.854402e-07
3.630234e-05 -2.544022e-06 6.854402e-07
-3.638422e-05 6.386548e-07 -6.861531e-07
3.580824e-05 3.117843e-06 -7.432032e-07
3.580824e-05 -3.117843e-06 -7.432032e-07
1.152485e-05 -3.339269e-05 -8.617261e-08
1.152485e-05 3.339269e-05 -8.617261e-08
3.429072e-05 9.586215e-06 5.906491e-07
1.343454e-05 3.429246e-05 -1.848663e-22
3.429072e-05 -9.586215e-06 5.906491e-07
-3.385537e-05 1.312777e-05 -7.168895e-07
-3.425415e-05 1.204898e-05 -7.168895e-07
2.660685e-05 2.353518e-05 -5.135327e-07
2.277896e-05 2.832466e-05 7.038702e-07
3.200835e-05 1.717335e-05 -7.125286e-07
2.058465e-05 2.993212e-05 7.115561e-07
2.356483e-05 -2.765457e-05 7.094982e-07
-3.158017e-05 1.812495e-05 6.756412e-07
-2.795891e-05 2.316036e-05 7.187772e-07
1.299191e-05 3.446259e-05 -1.848663e-22
2.724084e-05 2.282555e-05 5.317125e-07
1.656698e-05 -3.242543e-05 -6.752792e-07
1.656698e-05 3.242543e-05 -6.752792e-07
-2.948290e-05 2.124707e-05 7.064325e-07
-2.699175e-05 -2.429152e-05 -7.163994e-07
-2.699182e-05 2.429144e-05 7.164000e-07
3.090387e-05 1.729824e-05 3.669131e-07
1.874149e-05 3.120258e-05 -6.821510e-07
-3.395149e-05 1.314302e-05 6.782012e-07
2.636359e-05 -2.350550e-05 -7.138960e-09
1.254713e-05 3.462701e-05 -1.848663e-22
3.259120e-05 -1.361968e-05 5.399544e-08
-1.469569e-05 -3.211832e-05 -9.723440e-09
-2.239078e-05 2.731670e-05 -9.674418e-09
-2.414369e-05 -2.578040e-05 6.374441e-09
-1.469573e-05 3.211829e-05 -9.674417e-09
-1.646867e-05 -3.124631e-05 -8.972189e-09
-1.226575e-05 3.312247e-05 -6.313262e-09
-2.211425e-05 -2.754101e-05 6.313255e-09
-2.029666e-05 2.890662e-05 -6.313255e-09
-1.226575e-05 -3.312247e-05 -6.313243e-09
1.210027e-05 3.478568e-05 -1.848663e-22
2.406037e-05 -2.598614e-05 3.644461e-07
-5.680539e-06 3.486083e-05 4.239852e-09
-5.634211e-06 -3.486850e-05 -1.581271e-08
-8.293796e-06 3.433330e-05 -1.948603e-08
-1.874680e-05 -2.993511e-05 1.331239e-08
-1.678217e-05 3.107912e-05 -1.331239e-08
-2.417220e-05 2.575388e-05 -1.628791e-08
-8.294345e-06 -3.433317e-05 -1.945300e-08
-1.010947e-05 3.384305e-05 -1.329033e-08
-2.029667e-05 -2.890672e-05 1.329072e-08
1.165140e-05 3.493859e-05 -1.848663e-22
-1.839499e-05 3.015257e-05 -1.329072e-08
-1.010947e-05 -3.384305e-05 -1.329138e-08
-3.614008e-05 4.083946e-06 6.948533e-07
-3.610917e-05 4.911612e-06 6.599265e-07
3.437740e-05 1.193001e-05 6.867078e-07
3.437740e-05 -1.193001e-05 6.867078e-07
4.876385e-06 -3.580155e-05 -7.526380e-07
4.876385e-06 3.580155e-05 -7.526380e-07
-2.865303e-05 2.231411e-05 7.150951e-07
-5.421916e-06 -3.598609e-05 -6.850360e-07
1.120060e-05 3.508570e-05 -1.848663e-22
-2.875192e-05 -2.231016e-05 6.849070e-07
2.603867e-05 -2.410642e-05 4.693097e-07
1.904373e-05 2.976254e-05 1.401762e-07
1.108457e-05 3.463442e-05 6.970083e-07
1.108457e-05 -3.463442e-05 6.970083e-07
-3.251291e-05 -1.383117e-05 -1.338621e-07
3.315494e-05 1.222512e-05 -1.564911e-07
-3.075399e-05 -1.953853e-05 6.631997e-07
-3.141177e-05 1.833339e-05 -6.946873e-07
2.468148e-05 -2.665008e-05 7.127964e-07
1.074794e-05 3.522700e-05 -1.848663e-22
3.382512e-05 -1.335999e-05 -6.957581e-07
-3.211770e-05 1.705731e-05 -6.965074e-07
2.669689e-05 -2.471024e-05 6.916841e-07
2.572276e-05 -2.572275e-05 6.916817e-07
3.174934e-05 -1.789310e-05 -6.584929e-07
3.274526e-05 1.585830e-05 -6.891477e-07
-3.070197e-05 1.754441e-05 -2.443050e-07
-3.493863e-05 5.238992e-06 1.138557e-07
2.277787e-05 -2.710501e-05 -3.467880e-07
2.300016e-05 -2.820893e-05 6.827584e-07
1.029350e-05 3.536246e-05 -1.848663e-22
3.312941e-05 -1.233645e-05 -2.145597e-07
[...]
POINT_DATA 6521
VECTORS 10.000GHz_fone_imag double
3.561160e+10 -2.278642e+10 3.169318e+08
-2.678272e+10 4.152149e+10 -9.092125e+08
3.417822e+10 -3.157987e+10 3.774654e+08
2.112023e+10 -4.076909e+10 7.105049e+08
-5.718229e+09 -4.284461e+10 5.550252e+07
5.719160e+09 -4.284336e+10 -5.486305e+07
4.541889e+10 1.930778e+09 -5.854084e+08
-4.536506e+10 1.714484e+09 2.616968e+08
7.464457e+09 -4.480836e+10 -2.550347e+08
-7.464128e+09 -4.480895e+10 2.552896e+08
2.659186e+10 3.720939e+10 -1.769313e+09
3.564683e+10 -2.263592e+10 -2.278934e+08
5.635898e+09 -5.004129e+10 3.995666e+07
-5.630783e+09 -5.004443e+10 -3.015196e+07
-3.189406e+10 3.309122e+10 2.379142e+08
1.714101e+10 4.105380e+10 -4.466874e+08
3.142431e+10 3.136915e+10 -1.491845e+08
-3.815685e+10 -2.486958e+10 3.914692e+08
-3.828192e+10 -2.451089e+10 3.506095e+08
-1.478825e+10 4.981395e+10 -7.782853e+08
-2.656345e+10 3.687446e+10 1.857610e+09
-8.778558e+09 5.021089e+10 -1.229413e+09
3.726430e+10 -2.318977e+10 1.085505e+09
-2.985875e+10 -3.370095e+10 8.316252e+07
2.497678e+10 -3.768245e+10 -1.389775e+08
-2.499230e+10 -3.768657e+10 1.251744e+08
2.288777e+10 4.121548e+10 5.936146e+08
2.439803e+10 -4.515953e+10 -2.261305e+08
-4.817078e+10 -1.164609e+10 2.303865e+08
4.806634e+10 -1.170652e+10 -2.771279e+08
4.494912e+10 -1.719059e+10 -1.293580e+08
-4.493857e+10 -1.719552e+10 1.255953e+08
-2.884477e+10 -4.061097e+10 5.367356e+08
3.749051e+10 -2.083193e+10 1.401463e+09
-3.085993e+10 -3.933085e+10 3.311427e+08
3.120584e+10 -3.912492e+10 5.279953e+08
2.947174e+10 -4.126465e+10 -1.601516e+09
-1.183415e+10 -4.734866e+10 -3.766209e+08
1.197474e+10 -4.757127e+10 3.001975e+08
2.577996e+10 4.124888e+10 9.097344e+08
2.608237e+10 4.288192e+10 -5.941787e+08
-1.129216e+10 4.800063e+10 3.751405e+08
1.846416e+10 -4.331161e+10 7.983610e+08
3.588180e+10 -3.427063e+10 -5.644994e+07
3.615289e+10 -2.142188e+10 -4.989389e+08
2.514981e+10 3.811473e+10 -5.708195e+08
-6.299466e+09 4.980460e+10 -1.607234e+08
1.947210e+10 4.230840e+10 -2.523534e+08
1.614664e+10 4.752423e+10 -9.933014e+08
1.355467e+10 -4.631722e+10 7.231755e+08
-1.490220e+10 -4.682417e+10 -5.351659e+08
-1.885968e+10 4.143394e+10 2.347200e+08
4.526448e+10 3.445051e+09 -3.168077e+08
3.164590e+10 3.495591e+10 -1.764498e+09
-3.102158e+10 3.400640e+10 -1.424359e+09
3.795707e+10 -2.157877e+10 3.931883e+08
-5.062120e+10 -2.975989e+09 9.085773e+08
-5.023133e+10 -2.367214e+09 -4.256292e+08
5.061886e+10 -2.975974e+09 -9.083471e+08
5.022951e+10 -2.367408e+09 4.258924e+08
4.524735e+10 -1.103319e+10 -5.920877e+08
-4.579636e+10 -1.069258e+10 8.021890e+08
-4.347297e+10 -1.348240e+10 1.379777e+09
4.350766e+10 -1.347883e+10 -1.245908e+09
9.912337e+09 4.782387e+10 -6.768653e+08
-2.247923e+10 -4.396470e+10 3.125096e+06
3.933843e+10 -2.121724e+10 -4.497621e+08
-2.275443e+10 -4.358238e+10 -6.278541e+08
-4.890488e+08 4.606566e+10 1.248547e+08
-3.171621e+10 3.146123e+10 8.062091e+08
-2.404631e+10 -4.421078e+10 -2.300682e+08
4.374003e+10 -2.053469e+10 6.108950e+08
-4.403673e+10 -2.083099e+10 -6.687967e+08
-1.579401e+10 -4.385448e+10 -2.139189e+08
2.405742e+10 4.335563e+10 -1.179954e+08
-4.023892e+10 -2.728416e+10 3.403205e+08
-2.414306e+09 5.066191e+10 5.057017e+08
3.939077e+10 -1.997279e+10 4.416171e+08
-4.448986e+10 4.156315e+09 -6.046065e+08
-4.418347e+10 -1.011440e+10 6.678179e+07
4.454770e+10 -1.026150e+10 5.523980e+07
-3.945308e+10 -3.032934e+10 2.216811e+08
3.330674e+10 3.354601e+10 -2.654937e+08
3.487918e+10 3.440377e+10 9.572639e+07
-4.241613e+10 2.034524e+10 1.040955e+09
3.643084e+10 3.104255e+10 -9.764661e+08
4.309333e+10 2.091275e+10 -9.626463e+08
-4.225000e+10 1.837030e+10 -7.321278e+08
3.969488e+10 -2.018724e+10 1.762484e+08
-3.505400e+10 3.080042e+10 -1.677686e+08
3.591076e+10 2.894312e+10 3.813767e+08
4.207981e+10 1.880136e+10 3.782555e+08
-4.213783e+10 2.276715e+10 6.001574e+08
4.509332e+10 1.488397e+10 1.121757e+09
-3.878821e+10 2.936963e+10 1.224300e+09
3.980831e+10 2.589059e+10 1.123028e+09
-4.509156e+10 1.486911e+10 -1.120330e+09
-3.278853e+10 3.335707e+10 -2.777419e+08
2.730276e+10 4.220665e+10 3.242681e+08
3.990089e+10 -1.907001e+10 1.582190e+08
2.003214e+10 4.172308e+10 -8.399229e+08
4.667571e+10 9.256354e+09 1.760173e+09
1.900316e+10 -4.625015e+10 -8.111558e+08
2.870619e+10 -3.437293e+10 2.660991e+08
2.826666e+10 3.685222e+10 -1.280628e+09
3.975288e+10 -3.199896e+10 7.746660e+08
3.228255e+10 3.142013e+10 8.831772e+08
-2.999353e+10 3.519763e+10 1.109113e+09
2.939036e+10 3.556829e+10 1.536295e+09
5.169186e+10 -6.684733e+09 1.160723e+09
4.058773e+10 -1.980440e+10 1.138923e+08
-5.171846e+10 -6.689647e+09 -1.160846e+09
-5.292281e+09 5.038483e+10 -2.027997e+09
2.414168e+10 -3.920033e+10 -1.226348e+09
2.332194e+10 -3.933096e+10 6.933424e+08
-2.433517e+10 -3.949247e+10 1.247848e+09
-2.334549e+10 -3.819567e+10 -5.393432e+08
-1.013744e+10 4.707043e+10 -1.314547e+09
-7.818547e+09 -4.456504e+10 6.989027e+08
7.818958e+09 -4.456624e+10 -6.989410e+08
-1.307560e+10 4.763945e+10 1.611577e+08
4.075121e+10 -1.661776e+10 4.227751e+08
-4.566480e+10 7.789525e+09 -1.070614e+08
-4.461922e+10 1.175123e+10 -5.181672e+08
4.030664e+10 2.238127e+10 4.857242e+08
-4.052523e+10 2.880036e+10 4.270597e+08
4.459703e+10 1.162089e+10 4.932352e+08
-1.421430e+10 4.658045e+10 8.495024e+07
-3.547965e+10 3.702993e+10 1.583267e+08
1.460301e+10 4.756733e+10 -1.214809e+09
2.870547e+10 4.020990e+10 5.467728e+08
2.995427e+10 3.747114e+10 -3.255923e+08
3.957099e+10 -1.870335e+10 9.735039e+08
-3.139659e+10 3.942100e+10 1.904662e+08
8.595929e+08 -4.528005e+10 -1.536927e+09
-8.325357e+08 -4.474058e+10 1.565631e+09
-2.926251e+10 3.399998e+10 1.414954e+08
3.069654e+10 3.884182e+10 -6.126265e+08
-3.293429e+10 4.022299e+10 1.023567e+08
-5.214405e+09 4.395049e+10 1.087795e+09
2.203882e+10 4.396623e+10 9.288196e+08
-4.168200e+10 -1.842497e+10 2.379244e+07
4.146557e+10 -1.849936e+10 -2.656344e+06
4.087758e+10 -1.737134e+10 -1.934638e+08
1.349572e+10 -4.407450e+10 -4.759097e+08
-1.278407e+10 -4.518138e+10 2.297150e+08
3.372887e+10 3.914228e+10 1.249423e+09
-3.272221e+10 3.704531e+10 -6.696997e+07
4.909818e+10 -9.671663e+09 -1.872782e+08
-4.903317e+10 -9.646942e+09 2.197251e+08
3.533219e+10 -3.463140e+10 2.335830e+08
1.414173e+10 4.417446e+10 -7.132631e+08
2.827679e+10 4.203058e+10 -4.792922e+08
-4.645546e+10 -1.860632e+10 -1.407187e+09
4.062940e+10 -1.560151e+10 3.970228e+08
4.650652e+10 -1.863786e+10 1.415468e+09
-2.080468e+10 -3.876522e+10 1.196653e+09
3.381619e+09 -4.438970e+10 -6.646427e+08
-2.958288e+09 -4.353613e+10 7.237258e+08
-2.720936e+08 4.309728e+10 1.899476e+08
4.149480e+09 -4.894803e+10 4.031209e+07
-4.102761e+09 -4.904109e+10 -4.449324e+07
-4.821258e+10 -1.676059e+10 -5.813554e+07
4.824051e+10 -1.676474e+10 1.485753e+07
1.408275e+10 -4.809518e+10 2.789119e+08
4.070646e+10 -1.616655e+10 -1.247934e+09
-1.395064e+10 -4.743810e+10 -8.149222e+07
1.609245e+10 4.265942e+10 6.011543e+08
1.534495e+10 4.328699e+10 -2.848176e+08
3.136027e+10 -3.820623e+10 -4.840519e+08
3.493918e+10 -2.889891e+10 1.075601e+09
2.140686e+10 -3.928721e+10 3.375464e+07
3.686871e+10 -2.479526e+10 -3.235319e+08
-3.510860e+10 -2.972398e+10 -1.671716e+08
2.257753e+10 4.002109e+10 -4.104221e+08
3.059503e+10 3.395224e+10 2.482664e+08
4.037431e+10 -1.476017e+10 3.424765e+08
3.265673e+10 -3.749030e+10 -7.315117e+08
-3.953930e+10 -1.980337e+10 5.258605e+08
4.010661e+10 -1.969529e+10 -3.861251e+08
2.566845e+10 3.757424e+10 9.223700e+07
-3.066157e+10 3.538383e+10 4.422070e+08
3.171680e+10 3.458965e+10 4.725733e+08
2.468379e+10 -4.379153e+10 -1.020361e+09
3.880799e+10 -2.292601e+10 -7.149352e+08
1.652978e+10 4.245053e+10 -9.211131e+07
-3.404460e+10 -3.704838e+10 1.132295e+09
4.029049e+10 -1.412313e+10 -6.000271e+08
-1.891466e+10 -4.647437e+10 4.064071e+08
-4.585071e+10 2.112763e+10 -4.411607e+07
3.931447e+10 3.205485e+10 1.762386e+08
-3.591473e+10 3.498640e+10 4.344759e+08
4.615786e+10 2.097060e+10 2.127715e+08
-4.501876e+10 2.398723e+10 3.390306e+08
5.014802e+10 1.801978e+10 -1.706153e+08
-4.053625e+10 3.191758e+10 -5.248550e+08
4.389646e+10 3.018982e+10 -1.721689e+08
-4.999893e+10 1.795084e+10 2.323395e+08
4.013367e+10 -1.489802e+10 1.308221e+08
-3.623516e+10 -3.390181e+10 -4.863385e+07
4.928218e+10 8.923701e+09 -2.015708e+08
-5.055001e+10 8.301101e+09 7.960117e+07
4.840824e+10 1.227032e+10 -3.275907e+08
-4.184389e+10 2.661703e+10 -8.906392e+08
4.389479e+10 2.427691e+10 -3.456620e+08
3.718933e+10 3.517409e+10 3.910366e+08
-4.895473e+10 1.214269e+10 8.994689e+08
5.177957e+10 1.498206e+10 8.197702e+08
-4.301445e+10 2.961537e+10 1.470774e+09
4.206177e+10 -1.283635e+10 8.671126e+08
4.611335e+10 2.759134e+10 8.468115e+08
-5.177186e+10 1.498052e+10 -8.003935e+08
6.129083e+09 4.495883e+10 -3.747857e+08
4.801667e+09 4.396982e+10 1.085066e+08
1.456953e+10 -4.274011e+10 -2.328996e+08
-1.433565e+10 -4.218558e+10 4.247949e+08
-4.604024e+10 -5.552200e+09 1.418577e+09
4.605492e+10 -5.539818e+09 -1.430644e+09
2.750290e+10 3.673563e+10 -1.581764e+09
-4.465292e+10 7.959222e+09 3.665576e+08
4.160128e+10 -1.274296e+10 2.451708e+08
-2.700765e+10 3.496373e+10 -3.648508e+08
-3.184010e+10 -3.611021e+10 -1.073243e+09
4.210398e+10 -2.668912e+10 -5.153389e+08
4.379924e+10 -1.406688e+10 -1.133296e+09
-4.311284e+10 -1.394128e+10 9.054209e+08
-1.855666e+10 4.599737e+10 4.552465e+08
1.686954e+10 -4.683989e+10 -3.375837e+08
-2.522794e+10 3.732135e+10 -2.929720e+08
2.353459e+10 3.850234e+10 2.721133e+08
-3.356327e+10 -3.061373e+10 -1.239681e+08
4.110577e+10 -1.337835e+10 -2.315428e+08
-1.597364e+10 -4.182159e+10 -2.479259e+08
2.185665e+10 3.951140e+10 2.609030e+08
-3.068544e+10 -3.322778e+10 -6.840302e+08
-3.178442e+10 -3.161574e+10 2.683386e+08
-2.102278e+10 -3.847059e+10 -7.092083e+08
1.992439e+10 -4.061903e+10 9.989899e+08
2.496148e+10 4.581274e+10 3.702837e+08
8.378454e+09 4.808101e+10 -2.919369e+07
-3.780024e+10 -3.212172e+10 4.386394e+07
-3.279020e+10 -2.857333e+10 5.341235e+08
4.251690e+10 -1.184310e+10 -5.190606e+08
-1.780568e+10 -4.615568e+10 6.483397e+08
-2.164350e+10 4.869944e+10 -9.598462e+07
1.158198e+10 5.030877e+10 3.792736e+08
-2.053133e+10 3.844245e+10 -6.385601e+08
-3.112121e+10 -3.322930e+10 5.233844e+08
-2.009455e+10 -3.994821e+10 4.573598e+08
-3.012461e+10 4.027129e+10 1.058205e+09
3.658330e+10 -2.508443e+10 -3.283825e+08
4.562637e+10 -2.870920e+09 -4.728791e+08
-4.562503e+10 -2.869672e+09 4.733640e+08
4.142503e+10 -1.195031e+10 6.757212e+08
1.141683e+10 4.906762e+10 -3.436841e+08
-4.018727e+10 -1.829137e+10 -8.554831e+08
4.018075e+10 -1.828485e+10 8.535735e+08
-1.621004e+09 4.533060e+10 2.095688e+08
5.121124e+10 -5.346976e+09 -5.213065e+07
-5.122589e+10 -5.366590e+09 4.067742e+07
2.188411e+10 -3.951094e+10 6.286160e+08
4.729739e+10 -1.534342e+10 -1.591208e+08
-4.732423e+10 -1.513043e+10 -8.867183e+07
-2.985070e+10 3.415796e+10 5.249240e+08
4.166136e+10 -1.148898e+10 9.244979e+08
5.132155e+10 2.475660e+08 2.683063e+08
4.551337e+10 -1.782995e+09 -2.823466e+08
-5.133126e+10 2.645283e+08 -2.567977e+08
-4.550488e+10 -1.770353e+09 2.776809e+08
4.947619e+10 2.252320e+09 2.404140e+08
-5.004488e+10 2.274403e+09 -2.825455e+08
2.079446e+10 -4.674844e+10 -5.108054e+08
3.430912e+10 -3.493532e+10 1.255107e+08
8.180790e+09 4.866702e+10 -6.327006e+08
-2.086430e+09 -4.431110e+10 -1.066632e+09
4.123878e+10 -1.026070e+10 8.568487e+08
1.758508e+09 -4.430435e+10 5.645173e+08
1.462211e+10 -4.524074e+10 -3.501200e+08
-1.399124e+10 -4.648477e+10 1.007392e+09
9.680933e+09 -4.467749e+10 -1.985848e+07
-9.679849e+09 -4.468190e+10 2.095513e+07
3.497477e+10 -2.652580e+10 3.380608e+08
-4.708515e+10 7.753220e+09 1.096609e+09
4.963359e+10 1.410607e+09 7.327802e+08
-4.894888e+10 1.428343e+09 -7.381209e+08
1.842046e+10 -3.989512e+10 -3.734471e+08
4.213590e+10 -1.003494e+10 9.208309e+08
-3.816813e+10 -2.368611e+10 4.097296e+08
2.031870e+10 4.729532e+10 -3.321095e+08
-2.782677e+10 -3.693030e+10 2.008713e+08
2.887540e+10 -3.996152e+10 -1.346790e+08
-1.279486e+10 4.661358e+10 1.841362e+09
-2.227882e+10 4.081187e+10 2.968742e+08
-4.420540e+10 -8.915112e+09 1.284017e+08
4.448707e+10 -8.570742e+09 -3.465499e+08
7.338754e+09 -4.943646e+10 -1.134449e+09
-7.338852e+09 -4.943663e+10 1.134299e+09
4.293320e+10 -9.359200e+09 1.210250e+08
-1.691657e+10 4.752530e+10 2.828316e+08
-1.502939e+10 4.352925e+10 -9.429146e+08
2.825745e+10 3.234201e+10 1.505806e+09
2.181938e+10 -4.426709e+10 -1.837197e+08
1.696136e+10 4.746789e+10 -6.707457e+07
2.467287e+10 3.712845e+10 -8.576261e+08
-3.518912e+10 -3.059053e+10 -4.163623e+08
-4.251309e+10 4.755513e+09 -9.038261e+07
3.392808e+10 3.577620e+10 5.714515e+06
1.901034e+10 4.579362e+10 -5.376074e+08
4.232577e+10 -8.061997e+09 7.559557e+07
3.613493e+10 -2.609010e+10 1.960670e+08
-1.786690e+10 4.869827e+10 -5.847538e+08
2.541682e+10 3.766964e+10 -6.075255e+08
-2.373362e+10 4.336219e+10 -2.473948e+08
-2.592083e+10 -3.690297e+10 -5.635472e+08
2.596574e+10 -3.679791e+10 5.173743e+08
-2.321947e+10 3.896130e+10 -1.201632e+09
1.952097e+10 4.424490e+10 -2.283532e+08
-1.938694e+10 -4.632085e+10 -6.727799e+08
-4.449697e+10 -1.850666e+10 -8.366866e+08
4.237124e+10 -8.351561e+09 8.736446e+08
-4.239423e+10 -2.044742e+10 8.519830e+08
4.432621e+10 -1.869472e+10 4.341118e+08
4.268812e+10 -2.056169e+10 -8.326027e+08
4.382907e+10 1.908395e+09 5.179649e+08
-4.524148e+10 2.872296e+09 -5.427632e+08
-1.937150e+10 3.979833e+10 -4.874598e+08
-1.889741e+10 -4.148459e+10 -1.070475e+09
1.060324e+10 4.428600e+10 -2.921536e+08
6.006559e+08 -4.412233e+10 6.471079e+08
-4.685081e+08 -4.369412e+10 -7.139746e+08
4.209579e+10 -9.215160e+09 3.423731e+08
7.509786e+09 -4.524703e+10 3.173336e+08
-7.509960e+09 -4.524765e+10 -3.174464e+08
3.149627e+10 -3.386475e+10 -3.260540e+08
-3.564896e+10 -2.611300e+10 -1.902048e+08
3.942923e+10 -2.233470e+10 -1.636529e+09
-3.934533e+10 -2.204858e+10 6.372383e+08
-7.492154e+09 4.452141e+10 -4.722543e+08
1.813364e+10 4.108889e+10 1.877441e+08
-3.977747e+10 2.017283e+10 6.087408e+08
4.130019e+10 1.577357e+10 -1.150793e+09
4.386104e+10 -6.377849e+09 1.348544e+09
-3.487711e+10 2.980817e+10 -3.967574e+08
3.595000e+10 2.579215e+10 -1.145522e+09
-4.149465e+10 1.618232e+10 1.349570e+09
3.429361e+09 4.809682e+10 -1.936018e+08
4.861083e+10 4.823099e+09 2.086125e+04
5.047957e+10 5.922627e+09 -2.994560e+08
-3.620760e+10 -3.088679e+10 -6.324823e+08
3.820094e+10 -3.234547e+10 5.705994e+08
2.842175e+10 -3.317426e+10 1.215376e+07
-4.454171e+10 -2.703609e+09 7.883084e+08
4.309065e+10 -7.495534e+09 4.718450e+08
4.454076e+10 -2.703905e+09 -7.884119e+08
-3.944889e+10 -2.892631e+10 7.564169e+07
4.187374e+10 -2.758327e+10 2.355038e+08
-3.684602e+10 -2.553129e+10 5.096286e+08
-1.388626e+10 4.403305e+10 -3.138740e+08
-4.042415e+10 -2.517619e+10 -3.689892e+08
1.201697e+10 4.570663e+10 -3.921131e+08
-5.001687e+10 -6.424953e+09 1.044504e+08
4.992492e+10 -6.414381e+09 -1.078567e+08
3.510895e+10 -3.426697e+10 1.971106e+08
4.369443e+10 -6.039723e+09 -8.264231e+08
-4.411537e+10 -1.305642e+10 4.328887e+08
4.378426e+10 -1.248562e+10 -6.930964e+08
1.558346e+09 5.051287e+10 -9.094570e+05
1.894185e+10 4.045183e+10 3.864186e+08
-2.430056e+10 4.353400e+10 9.765981e+08
2.856694e+10 -3.571201e+10 -6.002727e+08
3.403593e+10 3.426178e+10 3.448385e+08
-3.197086e+10 -3.642822e+10 5.610665e+08
-3.065205e+10 -3.890296e+10 1.350079e+08
2.962403e+10 -3.709850e+10 -4.126467e+08
4.447901e+10 -5.639752e+09 -1.482874e+08
-7.882535e+09 4.745477e+10 1.270331e+09
4.405478e+10 5.248301e+09 1.080115e+08
-4.595507e+09 4.432989e+10 5.528355e+08
3.224139e+10 3.003150e+10 -6.795335e+08
3.952818e+10 2.011844e+10 -9.844890e+07
-3.856263e+10 2.329339e+10 -1.138151e+09
4.526846e+10 1.379188e+10 5.612481e+08
-3.841338e+10 2.761009e+10 6.755868e+08
4.027824e+10 2.489218e+10 5.692308e+08
-4.526634e+10 1.378730e+10 -5.592065e+08
4.288130e+10 -5.639338e+09 1.326357e+08
8.248208e+09 -4.649502e+10 7.180273e+08
-8.248429e+09 -4.649703e+10 -7.180236e+08
-9.863080e+09 -4.355158e+10 -2.295666e+07
9.876915e+09 -4.354315e+10 1.418156e+07
4.426023e+10 1.037088e+10 7.412049e+08
-4.446751e+10 2.145960e+10 -3.798815e+08
4.481112e+10 1.769898e+10 -3.776763e+08
-3.874328e+10 3.230965e+10 -4.950775e+08
3.881903e+10 2.851189e+10 -3.864180e+08
-4.542000e+10 1.743843e+10 2.647225e+08
4.713532e+10 -4.397249e+09 2.864679e+08
4.266017e+10 -2.534660e+10 5.631217e+08
-4.301842e+10 -2.513412e+10 -2.842695e+08
4.605694e+10 -7.487547e+09 -1.094119e+08
-4.546887e+10 -7.818459e+09 -5.501172e+07
-7.881057e+08 5.039482e+10 9.120243e+07
-3.582996e+10 3.296173e+10 1.469692e+09
1.019628e+10 4.271933e+10 1.014081e+08
5.886854e+07 -4.928610e+10 -8.327941e+08
-4.483300e+08 -5.013973e+10 -9.349105e+07
1.919251e+10 -4.671048e+10 8.978551e+07
4.432691e+10 -4.019236e+09 4.184608e+08
4.370045e+10 1.147528e+10 2.160130e+08
4.170947e+10 1.296829e+10 -5.213487e+08
-3.815934e+10 2.491068e+10 2.876890e+08
3.935436e+10 2.217984e+10 2.369790e+08
-3.567486e+10 2.506335e+10 -6.555216e+08
3.710229e+10 2.325474e+10 -5.509336e+08
-4.345801e+10 1.125574e+10 -3.966566e+08
-4.169388e+10 1.299132e+10 5.348757e+08
4.796042e+10 -4.575818e+09 -6.501656e+08
-4.796023e+10 -4.575954e+09 6.500505e+08
4.282074e+10 -3.020962e+09 5.190228e+08
-5.166968e+10 5.479025e+09 -1.085559e+08
-4.415766e+10 1.040103e+10 2.832963e+08
-4.466840e+10 8.567839e+09 -2.601949e+08
1.421056e+10 4.284959e+10 4.239983e+08
1.043817e+10 4.811981e+10 -4.370709e+08
-3.349212e+10 -3.102342e+10 5.458566e+08
-2.207499e+10 4.295734e+10 -5.792707e+08
4.444701e+10 6.256659e+08 5.442511e+08
-4.402409e+10 1.943478e+08 -1.085716e+09
-2.284578e+10 3.813576e+10 1.125430e+08
4.502653e+10 -2.685280e+09 3.528121e+08
4.405148e+10 1.078249e+10 -1.061957e+09
4.252696e+10 7.800432e+09 -1.731282e+09
4.543949e+10 7.736749e+09 8.001831e+07
-3.878385e+10 2.371108e+10 -5.830731e+08
3.982263e+10 2.059190e+10 -6.131298e+08
3.382114e+10 3.093348e+10 -7.639354e+08
-4.209251e+10 1.287512e+10 -7.731736e+08
3.746186e+10 2.320494e+10 7.639867e+08
-3.583876e+10 2.584221e+10 6.517687e+08
4.209022e+10 1.287196e+10 7.746802e+08
4.248423e+10 -1.576361e+09 -1.232469e+08
-3.938033e+10 2.132026e+10 8.884174e+08
4.119411e+10 1.910380e+10 2.840499e+08
4.079769e+10 1.806452e+10 1.130878e+08
3.500768e+10 2.895230e+10 2.749910e+08
3.476174e+10 2.785598e+10 9.042223e+07
-4.282668e+10 1.533095e+10 5.481688e+08
3.746968e+10 2.574869e+10 -5.676276e+08
-3.460045e+10 2.798182e+10 -1.061555e+09
4.278224e+10 1.537737e+10 -5.759623e+08
4.706202e+10 1.166234e+10 -6.006415e+08
4.241377e+10 -1.904808e+09 -1.840163e+08
-4.300690e+10 2.523874e+10 -5.956686e+08
3.766710e+10 3.307313e+10 -1.557890e+09
4.364594e+10 2.337851e+10 -9.073974e+08
-4.901613e+10 1.145022e+10 1.255157e+09
-4.766102e+10 1.436118e+10 -1.129600e+09
4.239917e+10 2.599550e+10 1.108173e+09
-4.055861e+10 2.878897e+10 1.438904e+09
4.766113e+10 1.436241e+10 1.132776e+09
1.983203e+10 -4.122881e+10 -1.043899e+09
2.317770e+10 4.185416e+10 -2.293754e+08
4.371149e+10 -8.887083e+08 6.243804e+08
-4.936223e+10 9.900414e+09 1.066129e+09
-4.578307e+10 7.960283e+09 4.159263e+08
1.530670e+10 -4.166105e+10 5.129321e+08
-1.537642e+10 -4.361074e+10 -8.879995e+08
-3.448169e+10 -3.415086e+10 -6.508246e+08
-1.004289e+10 4.293925e+10 -4.876577e+08
8.258930e+09 -4.373679e+10 3.415827e+08
-8.258860e+09 -4.373561e+10 -3.416107e+08
3.364761e+10 3.076228e+10 -5.893156e+06
-4.531581e+10 2.472810e+10 7.020192e+08
4.359373e+10 -1.328930e+09 -6.067517e+08
4.820480e+10 2.116051e+10 3.444190e+08
4.125473e+10 3.276593e+10 3.528158e+08
-3.788520e+10 3.240531e+10 3.014759e+08
-4.762102e+10 2.082682e+10 -1.167649e+08
-4.370409e+10 9.524690e+09 6.448271e+07
-4.138023e+10 1.790052e+10 4.752230e+08
-4.024469e+10 1.839163e+10 -5.476585e+08
3.350967e+10 2.724149e+10 -1.648195e+08
3.326016e+10 2.826543e+10 9.629548e+08
-3.302517e+10 2.958522e+10 -9.193419e+08
4.279306e+10 4.974446e+08 -3.146301e+08
3.935280e+10 1.781931e+10 -1.621981e+08
3.947489e+10 1.884320e+10 9.316285e+08
-4.280454e+10 1.685633e+10 -1.851397e+08
-4.173858e+10 1.474620e+10 -5.683452e+08
3.693018e+10 2.711709e+10 1.910510e+08
3.649516e+10 2.495847e+10 6.044058e+08
-3.389571e+10 2.736150e+10 -2.740376e+08
-3.433161e+10 2.882368e+10 5.597740e+08