# vtk DataFile Version 2.0
Electric current density generated by TTH
ASCII
DATASET UNSTRUCTURED_GRID
POINTS 1376 double
1.381307e-05 -3.383225e-21 -5.585374e-22
1.099649e-05 8.359311e-06 -5.585374e-22
1.305855e-05 -3.198422e-21 -1.694669e-06
1.080955e-05 6.314326e-07 -2.168791e-06
-1.370910e-06 1.085317e-05 -2.201881e-06
1.061356e-05 8.690295e-06 6.533616e-07
2.755461e-06 1.262777e-05 1.806074e-06
-8.417665e-07 -1.113078e-05 2.250170e-06
-3.499382e-06 -1.323445e-05 -7.411200e-07
1.252976e-06 -1.174013e-05 -2.263864e-06
9.572639e-06 6.872256e-06 2.266506e-06
6.077175e-06 -9.514566e-06 -2.267430e-06
1.024050e-05 3.880357e-06 2.204979e-06
1.361591e-05 -3.334937e-21 -9.275231e-07
6.795068e-06 8.843050e-06 2.248447e-06
-1.357352e-05 -1.982636e-06 6.530717e-07
1.681566e-06 -1.356135e-05 8.077570e-07
-1.022057e-05 -7.845666e-06 1.836393e-06
-1.020517e-05 7.900208e-06 -1.820663e-06
1.344260e-05 2.415685e-06 8.267340e-07
6.317866e-06 -1.211681e-05 8.082845e-07
-4.282204e-06 1.233540e-05 1.695580e-06
8.449498e-06 -4.082019e-06 -7.634752e-07
-1.161834e-05 1.012211e-06 -2.276711e-06
-9.869710e-07 9.199476e-06 -5.817211e-09
6.371377e-06 -8.622115e-06 2.130984e-06
3.561240e-06 -8.587267e-06 -4.466413e-07
9.535150e-07 -1.365090e-05 -7.558442e-07
-1.134337e-05 7.675361e-06 -7.209425e-07
5.089665e-06 -1.189036e-05 1.799116e-06
4.624590e-06 8.178490e-06 7.953388e-07
-1.286749e-05 -1.573662e-06 1.775761e-06
8.694726e-06 -5.260130e-06 -1.822539e-06
-1.286055e-05 1.988659e-06 -1.734261e-06
-6.578181e-06 -6.508580e-06 -8.559972e-08
-9.252261e-06 6.687435e-20 0.000000e+00
-7.129019e-06 6.310212e-06 -1.073222e-06
-3.375334e-06 1.328321e-05 6.925744e-07
-9.450026e-06 -8.768172e-06 -1.831537e-06
4.806681e-07 1.299811e-05 -1.739705e-06
-1.468423e-06 -1.191738e-05 -2.230417e-06
3.939658e-06 8.374305e-06 -1.059205e-07
-1.315263e-05 -3.908905e-06 -6.407500e-07
1.103363e-05 -5.499277e-06 2.137160e-06
-6.360105e-06 9.887755e-06 -2.269376e-06
-1.035944e-05 5.819737e-06 -2.253450e-06
3.542282e-06 -9.354179e-06 1.690737e-06
-1.071756e-05 -1.678240e-06 -2.175246e-06
6.551553e-06 -6.993303e-06 -1.182405e-06
-3.042061e-06 1.080688e-05 -2.259807e-06
-8.493678e-06 6.243666e-06 -2.053797e-06
3.008403e-06 -9.484726e-06 -1.642159e-06
-8.513683e-06 4.835226e-06 -1.471931e-06
9.433532e-06 -4.205064e-06 1.936434e-06
-9.255264e-06 -1.396495e-06 -6.927368e-07
1.130604e-05 -3.916518e-06 2.239009e-06
-1.245464e-05 -5.762128e-06 -6.346339e-07
7.183229e-06 8.097510e-06 2.167637e-06
1.203450e-05 4.488741e-06 1.865382e-06
-1.194215e-05 4.882677e-06 1.823679e-06
1.121536e-05 7.877690e-06 -6.919306e-07
-2.508924e-06 -1.255950e-05 -1.890675e-06
-9.534564e-06 -2.730971e-06 1.610278e-06
1.045959e-05 -8.816802e-06 7.679294e-07
-1.160249e-05 -7.325414e-06 6.397187e-07
4.331743e-06 -1.298692e-05 -7.381686e-07
-1.203725e-05 -6.554447e-06 6.903404e-07
5.617039e-06 1.118513e-05 2.057343e-06
-8.849423e-06 -1.053307e-05 5.021010e-07
-9.552239e-06 -1.323507e-06 1.277210e-06
-2.892462e-06 9.364189e-06 -1.483459e-06
1.836045e-06 1.006266e-05 -1.870866e-06
1.321107e-05 -8.181115e-07 -1.515784e-06
1.267759e-05 8.363448e-07 1.955894e-06
-7.952026e-06 1.030664e-05 -1.730545e-06
1.195089e-06 -1.302778e-05 1.672811e-06
5.760745e-06 -8.195857e-06 -1.704616e-06
-1.169005e-05 -3.989615e-07 -2.274483e-06
-7.612748e-06 -8.059022e-06 -2.236252e-06
-8.439062e-06 -3.932590e-06 5.115238e-07
9.990340e-07 -1.050344e-05 -2.058221e-06
5.958029e-06 -1.178191e-05 -1.552796e-06
7.756628e-06 -6.324870e-06 1.696182e-06
-6.747624e-06 -6.941745e-06 1.330753e-06
-7.030555e-06 -9.399976e-06 -2.271109e-06
9.762745e-06 -6.706215e-06 -2.259025e-06
6.350832e-06 -6.740863e-06 2.032072e-07
-9.698076e-06 -4.034719e-06 2.035154e-06
9.257835e-06 -1.013372e-05 6.245203e-07
-1.224411e-05 -4.046952e-06 -1.828302e-06
-3.117485e-06 -8.728311e-06 2.703201e-07
-4.465236e-06 -9.895905e-06 2.177904e-06
9.310655e-06 7.463269e-06 -2.245045e-06
-2.708241e-06 -1.345646e-05 6.231121e-07
-1.113342e-05 5.124468e-07 2.247246e-06
-9.897877e-07 9.328833e-06 7.559184e-07
-9.877232e-06 -5.738302e-06 2.277770e-06
-1.142281e-05 3.036542e-06 2.262287e-06
-7.783433e-06 8.630962e-06 -2.278644e-06
-6.443965e-06 -1.120518e-05 1.805247e-06
-8.065854e-06 -4.563630e-06 2.623384e-07
8.229930e-06 -7.019959e-06 -2.165255e-06
-1.364936e-05 6.848492e-07 8.042594e-07
4.958848e-06 -8.603039e-06 -1.622131e-06
-1.207623e-05 -6.456415e-06 -7.277788e-07
-1.248008e-05 4.028355e-06 1.642933e-06
5.767571e-06 8.647067e-06 1.975812e-06
9.270846e-06 -7.457989e-06 2.250894e-06
-8.108421e-06 5.553542e-06 -1.514641e-06
-5.352854e-06 7.981947e-06 -1.227227e-06
-9.449984e-06 9.910149e-06 7.285692e-07
-9.438144e-06 1.870276e-07 9.060804e-07
1.036463e-05 9.131002e-06 -5.585374e-22
9.701042e-06 -6.737213e-06 2.263349e-06
-1.283175e-05 4.869174e-06 6.292435e-07
-6.490558e-06 -8.888605e-06 2.218780e-06
3.245332e-06 1.159184e-05 2.223804e-06
6.977315e-06 1.113452e-05 -1.617594e-06
-6.465603e-06 6.618441e-06 2.917342e-08
-6.920736e-06 -6.337136e-06 -7.633225e-07
3.404794e-06 1.282728e-05 -1.475397e-06
1.267043e-05 3.945139e-06 1.476635e-06
-9.072919e-06 -1.967959e-06 3.785224e-07
-2.136427e-06 1.099792e-05 2.256522e-06
9.003391e-06 5.927806e-06 -2.152473e-06
-6.121483e-06 -8.283830e-06 -1.918671e-06
-8.142343e-06 -1.104188e-05 -6.469762e-07
5.757224e-06 -7.512914e-06 -9.621419e-07
-1.691246e-06 1.166984e-05 -2.265636e-06
8.654613e-06 -3.642526e-06 7.802705e-07
-4.159066e-06 1.229883e-05 -1.759738e-06
1.209168e-05 5.418771e-06 1.499929e-06
9.738934e-06 -1.719583e-06 1.581301e-06
-7.290196e-06 1.163556e-05 6.071862e-07
-7.034349e-06 1.090952e-05 1.761616e-06
-7.086179e-06 6.070718e-06 5.940605e-07
-1.136289e-05 -4.049517e-06 2.217897e-06
-8.997954e-06 -7.003796e-06 2.276682e-06
1.078259e-05 2.312040e-06 -2.223786e-06
1.175827e-05 -3.163601e-06 2.187648e-06
-3.742068e-06 -1.255688e-05 -1.653942e-06
1.177215e-05 5.815497e-06 -1.627254e-06
-8.999304e-06 -7.361953e-06 -2.278452e-06
1.367605e-05 7.419143e-07 7.207645e-07
-1.067818e-05 -7.187505e-06 -1.845778e-06
-7.684769e-06 -5.717610e-06 1.175283e-06
1.147615e-05 5.375826e-06 1.974886e-06
6.152760e-06 1.170815e-05 -1.526941e-06
8.103220e-06 6.521664e-06 -1.980161e-06
-1.480841e-06 -1.050791e-05 2.086177e-06
-1.313286e-05 3.971511e-06 -6.440071e-07
-2.253572e-06 -1.157635e-05 2.265416e-06
-2.039495e-07 -1.004453e-05 1.729696e-06
1.023790e-05 -3.014144e-06 2.111905e-06
7.300688e-06 6.277089e-06 -1.254266e-06
8.295414e-06 4.944360e-06 1.297187e-06
5.731959e-06 -7.683224e-06 1.187392e-06
1.678446e-06 9.572738e-06 -1.382036e-06
1.366883e-05 -8.782485e-07 7.181953e-07
5.972903e-06 8.013085e-06 -1.683309e-06
5.083098e-06 1.275761e-05 5.990500e-07
1.233123e-06 1.127236e-05 -2.272215e-06
-3.642169e-06 8.627116e-06 7.063947e-07
5.771318e-06 -7.247098e-06 2.346866e-07
1.892210e-06 1.211225e-05 2.161580e-06
-7.070853e-07 -1.234459e-05 -2.123143e-06
6.739923e-06 -6.450931e-06 -5.887763e-07
9.200670e-06 -2.880844e-06 -1.273724e-06
4.765919e-06 7.964312e-06 -3.633392e-07
-5.807173e-06 1.177250e-05 1.630555e-06
3.589442e-06 -1.251494e-05 1.729015e-06
1.210546e-05 -5.175523e-06 -1.591961e-06
-1.369824e-05 -9.910179e-07 5.951070e-07
-1.366944e-05 -5.960777e-07 -7.607399e-07
-1.100530e-05 5.202017e-06 2.188704e-06
2.479564e-07 -1.373180e-05 -5.951304e-07
-3.337006e-06 -1.265254e-05 1.670295e-06
-3.510654e-07 1.099425e-05 -2.217284e-06
7.236733e-06 -9.002279e-06 2.280333e-06
1.182605e-05 -4.554793e-06 -1.974886e-06
4.434511e-06 1.221760e-05 1.747722e-06
-1.292793e-05 -1.479174e-06 -1.735218e-06
-7.435879e-07 -1.371467e-05 5.922508e-07
1.268280e-05 -2.036088e-06 1.864803e-06
-4.770957e-06 -1.215510e-05 1.695261e-06
9.432284e-06 -5.686889e-07 -9.275231e-07
1.227387e-05 -6.130807e-06 -6.452923e-07
-3.428300e-07 -9.436020e-06 -9.112556e-07
1.043775e-06 1.366569e-05 6.921329e-07
-4.226417e-06 8.933753e-06 -1.574480e-06
4.238234e-06 -8.683656e-06 -1.305225e-06
1.363591e-05 1.022817e-06 -7.835703e-07
-1.746726e-06 -9.101065e-06 -2.603331e-07
1.157147e-05 -3.716913e-06 -2.194184e-06
-5.691607e-06 1.186672e-05 -1.596422e-06
-1.040544e-05 8.917047e-06 6.982488e-07
-7.917894e-07 1.369113e-05 6.648008e-07
6.585603e-07 9.323255e-06 6.487377e-07
9.014696e-06 3.622519e-06 1.377492e-06
-2.529995e-06 1.013512e-05 2.004910e-06
-1.304315e-05 1.364855e-06 1.642700e-06
5.601130e-06 -8.286199e-06 1.690073e-06
7.772511e-06 -6.534404e-06 -1.816707e-06
-1.036191e-05 -2.297196e-06 -2.086952e-06
-5.243147e-06 -1.086074e-05 2.218565e-06
-4.620724e-06 1.293707e-05 -5.821905e-07
8.401672e-06 9.033949e-06 2.133860e-06
1.034847e-05 8.963502e-06 -7.369743e-07
-1.295345e-05 7.093629e-08 1.783551e-06
1.182723e-05 3.518650e-06 -2.132880e-06
6.917448e-06 -1.106460e-05 1.703218e-06
-8.398539e-06 3.899209e-06 1.821929e-07
1.208185e-05 -3.881285e-06 1.964906e-06
1.263071e-05 -4.025341e-06 1.492709e-06
-9.891839e-06 -8.117703e-07 -1.617389e-06
-2.681386e-06 1.282705e-05 -1.652318e-06
1.218601e-05 -6.301431e-06 6.487133e-07
-4.999712e-06 8.320407e-06 1.366481e-06
-2.368462e-06 -8.943977e-06 -1.123095e-09
1.286646e-05 2.839055e-06 1.581071e-06
9.303618e-06 -4.099628e-06 -1.826119e-06
1.017650e-06 9.823640e-06 -1.567288e-06
4.216225e-06 -1.194854e-05 -1.976188e-06
9.678740e-06 9.855088e-06 -5.585374e-22
1.279029e-05 3.920100e-06 -1.340387e-06
-2.633812e-06 -9.367256e-06 -1.397286e-06
5.571083e-06 7.823354e-06 1.217168e-06
1.361991e-05 -1.611722e-06 -6.617342e-07
-1.018335e-05 9.181549e-06 -6.734256e-07
1.037288e-05 -6.874635e-06 2.090311e-06
9.994534e-06 8.618120e-06 -1.558839e-06
-4.348492e-06 1.160565e-05 2.111655e-06
-4.855844e-06 -1.282554e-05 -6.648381e-07
-1.097241e-05 8.176092e-06 7.573007e-07
8.651703e-06 -9.466398e-06 1.879284e-06
8.468232e-06 -3.727383e-06 0.000000e+00
8.295799e-07 -1.311716e-05 -1.614270e-06
-4.465401e-06 8.937320e-06 1.680119e-06
8.006174e-06 8.554568e-06 -2.272969e-06
1.266090e-05 -5.506477e-07 1.974886e-06
7.742109e-06 1.077501e-05 1.479415e-06
-9.227568e-06 -7.257241e-07 -1.316015e-07
-1.024046e-05 -9.137082e-06 -6.304490e-07
[...]
POINT_DATA 1376
VECTORS 10.000GHz_fone_imag double
5.838665e-04 1.050379e-05 2.774929e-02
7.541239e-04 4.436765e-05 2.642790e-02
2.680960e-02 1.255804e-04 2.191565e-02
5.769796e-02 3.872225e-03 -2.355519e-02
-3.435691e-03 5.504556e-02 -1.986432e-02
-6.691381e-03 -5.629810e-03 2.660190e-02
-6.381931e-03 -2.605338e-02 1.839582e-02
4.288272e-03 4.936128e-02 -1.306742e-02
-3.279020e-03 -9.705309e-03 2.688755e-02
4.617583e-03 -4.468812e-02 3.973926e-03
-3.653788e-02 -2.755519e-02 -8.846245e-04
3.004206e-02 -4.231518e-02 -9.964299e-03
-4.914020e-02 -1.696065e-02 -1.631107e-02
1.159084e-02 -5.934744e-04 2.399881e-02
-3.410107e-02 -4.394698e-02 -1.166942e-02
8.397952e-03 1.699376e-03 2.444312e-02
-3.728222e-05 8.619453e-03 2.492410e-02
2.334503e-02 1.782888e-02 2.019259e-02
-2.444995e-02 1.800275e-02 1.926671e-02
-1.075806e-02 -2.205513e-03 2.702582e-02
-4.184295e-03 8.897724e-03 2.361662e-02
8.972634e-03 -2.184736e-02 2.037639e-02
2.895945e-02 -1.024999e-02 -7.719912e-02
-4.758046e-02 3.864231e-03 1.297810e-03
-1.148048e-03 6.725586e-05 -9.229205e-02
-3.622200e-02 4.463101e-02 -2.475887e-02
7.448941e-03 -1.745658e-02 -8.359795e-02
-4.922723e-05 -8.509604e-03 2.661580e-02
-7.933882e-03 5.429176e-03 2.427741e-02
-1.087625e-02 2.718688e-02 2.005210e-02
-1.070925e-02 -1.968247e-02 -8.393747e-02
2.830576e-02 1.857471e-03 2.021021e-02
4.970860e-02 -3.000914e-02 -4.526777e-02
-2.744768e-02 5.169722e-03 2.146511e-02
-1.533937e-04 1.482629e-03 -8.647810e-02
5.770681e-04 -5.637926e-04 -9.353033e-02
-3.000033e-02 2.717253e-02 -7.813485e-02
1.763301e-03 -7.830095e-03 2.795795e-02
-2.146917e-02 -1.878145e-02 1.924523e-02
3.609026e-04 2.814098e-02 2.075141e-02
-6.519737e-03 -4.321214e-02 7.343981e-03
8.510809e-04 6.263085e-03 -8.323732e-02
-8.010269e-03 -3.004970e-03 2.664808e-02
-3.323626e-02 1.623697e-02 1.188892e-02
-2.515102e-02 4.136501e-02 3.116646e-05
-3.901966e-02 2.072366e-02 3.250188e-03
-1.738287e-02 4.536889e-02 -5.073291e-02
-5.650463e-02 -1.039574e-02 -2.406649e-02
2.652180e-02 -2.706565e-02 -6.528822e-02
-1.366795e-02 4.753292e-02 -6.538295e-03
-4.640574e-02 3.375173e-02 -3.161862e-02
1.438658e-02 -5.130618e-02 -5.635322e-02
-3.884835e-02 2.296209e-02 -5.627740e-02
-4.869180e-02 2.411533e-02 -3.672903e-02
-2.729038e-02 -4.504950e-03 -8.180751e-02
-3.960363e-02 1.592330e-02 5.427436e-03
-6.586768e-03 -3.325139e-03 2.640715e-02
-3.623702e-02 -3.920305e-02 -2.008809e-02
-2.649991e-02 -1.013141e-02 1.711990e-02
2.470174e-02 -9.882140e-03 1.954090e-02
6.400944e-03 6.030801e-03 2.451748e-02
-5.510663e-03 -2.670052e-02 1.913095e-02
5.022994e-02 1.578597e-02 -5.391370e-02
-7.806841e-03 6.823724e-03 2.652378e-02
6.518974e-03 2.474779e-03 2.531384e-02
3.218527e-03 -1.006812e-02 2.694259e-02
6.330315e-03 4.159275e-03 2.514567e-02
-1.586523e-02 -2.969371e-02 1.453934e-02
3.192017e-03 3.667990e-03 2.483449e-02
3.648702e-02 7.193363e-03 -6.537655e-02
-1.735468e-02 4.473597e-02 -6.281058e-02
1.050445e-02 5.406631e-02 -4.600704e-02
2.296626e-02 -1.488844e-03 2.399678e-02
-3.230715e-02 -2.199360e-03 1.810661e-02
-1.559047e-02 2.229548e-02 2.067469e-02
-2.297471e-03 2.535334e-02 2.204570e-02
3.035777e-02 -4.552255e-02 -5.559843e-02
-4.346677e-02 -6.782093e-04 3.183651e-03
-3.735237e-02 -3.903726e-02 -1.183225e-02
1.585168e-02 8.219680e-03 -8.853963e-02
5.023993e-03 -5.753170e-02 -3.197626e-02
1.056849e-02 -2.126864e-02 2.236679e-02
-4.263440e-02 3.540339e-02 -5.323932e-02
3.261460e-02 3.394862e-02 -6.859843e-02
-2.942111e-02 -3.678304e-02 2.234103e-03
3.916186e-02 -2.693159e-02 4.226055e-03
-8.874139e-03 5.105377e-03 -9.178578e-02
4.610435e-02 2.001532e-02 -3.375031e-02
-6.085729e-03 6.414349e-03 2.475549e-02
-2.851168e-02 -9.125772e-03 2.055014e-02
2.513974e-03 1.075514e-02 -9.392180e-02
2.482055e-02 5.066424e-02 -2.225104e-02
3.109954e-02 2.588798e-02 3.455151e-03
1.660640e-03 8.596668e-03 2.647995e-02
4.980722e-02 -3.696599e-04 -9.687677e-03
4.741264e-03 -2.262982e-02 -7.829647e-02
4.571639e-02 2.548263e-02 -4.932991e-03
4.631886e-02 -1.151217e-02 3.692207e-03
-2.990633e-02 3.289770e-02 6.059631e-04
1.530432e-02 2.566258e-02 1.961157e-02
9.506636e-03 8.400094e-03 -9.110583e-02
4.393331e-02 -3.835055e-02 -2.217251e-02
9.507002e-03 2.490986e-04 2.562079e-02
2.651924e-02 -4.677852e-02 -5.617196e-02
-8.076435e-03 -4.621302e-03 2.716767e-02
2.055235e-02 -6.884466e-03 2.020282e-02
-3.034241e-02 -4.885405e-02 -3.666649e-02
-3.383604e-02 2.548751e-02 1.816912e-03
-3.849596e-02 2.823947e-02 -5.449933e-02
-2.454613e-02 3.531663e-02 -7.309191e-02
6.858176e-03 -6.839227e-03 2.661117e-02
3.133892e-02 -1.393523e-03 -7.117008e-02
5.795430e-04 3.635662e-04 2.730079e-02
-3.565876e-02 2.487354e-02 3.058561e-03
7.776949e-03 -2.838378e-03 2.676498e-02
3.225942e-02 4.617443e-02 -1.583870e-02
-1.165911e-02 -4.105551e-02 8.221540e-03
1.262971e-02 2.150704e-02 2.254107e-02
1.271529e-03 -2.650000e-03 -9.022979e-02
-2.315932e-02 -1.819644e-02 -8.665123e-02
6.062950e-03 2.135226e-02 2.282246e-02
-1.994409e-02 -6.528804e-03 2.176487e-02
1.488596e-02 3.439265e-03 -9.229992e-02
1.280708e-02 -5.227591e-02 -1.177722e-02
4.903909e-02 3.104309e-02 -2.283696e-02
-2.929001e-02 -4.099835e-02 -4.029106e-02
-5.117905e-03 -5.046798e-03 2.599486e-02
2.000563e-02 -2.298570e-02 -7.442089e-02
-6.816001e-03 4.636991e-02 2.604905e-03
-2.478748e-02 1.128713e-02 -8.019729e-02
-8.680966e-03 2.615014e-02 2.157949e-02
-1.960804e-02 -8.619135e-03 2.209910e-02
-5.105909e-02 1.021767e-02 -4.962868e-02
5.626427e-03 -6.683272e-03 2.669527e-02
1.317172e-02 -2.143588e-02 1.945425e-02
1.766074e-02 -1.500245e-02 -8.914148e-02
4.083040e-02 1.465863e-02 8.597441e-03
3.844892e-02 2.929224e-02 -6.417052e-03
5.576915e-02 1.300382e-02 -1.658021e-02
-3.968180e-02 9.698601e-03 1.021983e-02
-6.630757e-03 -2.218534e-02 1.834595e-02
2.081818e-02 1.140003e-02 2.297659e-02
-3.636592e-02 -3.209799e-02 -4.525100e-03
-1.013290e-02 -8.919240e-04 2.707156e-02
-2.203305e-02 -1.564319e-02 1.746291e-02
2.974603e-02 1.895599e-02 -6.801302e-02
-2.924759e-02 -1.297697e-02 1.698649e-02
1.169563e-02 1.904033e-02 2.238461e-02
4.532634e-02 3.503251e-02 -3.860859e-02
5.843456e-03 5.382640e-02 -2.525450e-02
-7.449075e-03 2.273125e-03 2.678143e-02
8.705069e-03 4.261297e-02 3.290427e-03
1.042917e-03 5.474886e-02 -5.217394e-02
-5.065656e-02 1.523181e-02 -2.962488e-02
3.208638e-02 2.431201e-02 -6.192134e-02
-3.839128e-02 -2.378343e-02 -7.092514e-02
-1.830600e-02 3.183762e-02 -6.868130e-02
8.359220e-03 4.196462e-02 -6.146938e-02
-7.636276e-03 1.753184e-03 2.677618e-02
2.672727e-02 3.929275e-02 -5.100736e-02
-3.268007e-03 -6.223944e-03 2.470625e-02
5.534765e-03 4.982871e-02 -3.782289e-03
1.056942e-02 -2.630585e-02 -8.305238e-02
-5.831194e-03 6.185242e-03 -9.253592e-02
-5.884164e-03 -3.760647e-02 1.101968e-02
-2.778492e-03 -3.910952e-02 1.238767e-02
1.760360e-02 -1.694893e-02 -8.877379e-02
4.165528e-02 -8.703406e-03 -6.957694e-02
2.620716e-03 7.059282e-03 -8.719715e-02
1.194754e-02 -2.097936e-02 2.039444e-02
-7.507590e-03 2.484039e-02 1.874753e-02
2.078718e-02 -8.424379e-03 1.999529e-02
8.117330e-03 -1.212571e-03 2.583241e-02
-8.816085e-03 9.297266e-04 2.629856e-02
3.871230e-02 -1.797423e-02 8.478188e-03
1.053491e-03 -7.723294e-03 2.727756e-02
6.137047e-03 2.515436e-02 2.267008e-02
-4.195524e-03 5.385872e-02 -1.522841e-02
-2.961684e-02 3.393174e-02 -8.934788e-04
2.810367e-02 -1.230898e-02 1.777862e-02
-9.397358e-03 -2.746529e-02 2.044303e-02
-2.454996e-02 -3.156469e-03 1.913345e-02
5.038718e-04 8.261452e-03 2.532173e-02
-2.993959e-02 4.399049e-03 1.598988e-02
1.071993e-02 2.485958e-02 2.062324e-02
3.607917e-02 -9.146546e-04 -8.025765e-02
7.925254e-03 -3.636705e-03 2.782120e-02
-2.437019e-03 -3.278057e-02 -8.358489e-02
-9.708457e-04 -7.451456e-03 2.599597e-02
-2.276203e-02 4.611474e-02 -5.434681e-02
1.809865e-02 -3.829317e-02 -6.514248e-02
8.740486e-03 1.270352e-03 2.635529e-02
-2.209378e-03 -1.148393e-02 -9.086802e-02
3.767724e-02 -1.416477e-02 5.601214e-03
-1.087620e-02 2.151882e-02 2.126405e-02
6.951609e-03 -6.041191e-03 2.657355e-02
1.166899e-03 -6.539098e-03 2.536392e-02
-2.690127e-03 -2.369910e-02 -8.600169e-02
-4.103969e-02 -2.003331e-02 -5.915198e-02
1.265018e-02 -5.596272e-02 -3.578857e-02
2.418483e-02 -2.790094e-03 2.209796e-02
-2.902076e-02 4.152287e-02 -5.090702e-02
4.100954e-02 -2.967959e-02 -4.741391e-02
-5.688723e-02 -1.373276e-02 -2.784955e-02
1.694252e-02 3.461619e-02 6.261937e-03
-2.575922e-03 7.883542e-03 2.617236e-02
-2.494079e-02 -2.664677e-02 1.040142e-02
7.736594e-03 5.261844e-03 2.411168e-02
2.823205e-02 2.042992e-05 1.989475e-02
3.686416e-02 1.245857e-02 1.216032e-02
-1.431727e-02 2.226376e-02 2.194814e-02
1.843520e-03 -6.463565e-03 -8.930106e-02
-3.128907e-02 1.018013e-02 1.729818e-02
-1.837213e-02 7.986366e-03 2.196485e-02
-4.639025e-02 -5.382508e-03 -5.326705e-02
-5.351272e-03 2.344813e-02 2.066508e-02
-7.350545e-03 2.599139e-03 2.470933e-02
2.396169e-02 -3.702528e-02 -6.096681e-02
-2.450353e-03 9.748687e-04 -9.245211e-02
-2.338121e-02 -5.487338e-03 2.203477e-02
5.091638e-02 -2.491926e-02 -4.377580e-02
5.438872e-03 4.322915e-02 -5.823889e-02
9.207314e-03 -3.045013e-02 1.681728e-02
-9.222457e-04 3.324026e-04 2.705461e-02
1.846594e-02 4.898906e-03 2.153728e-02
-1.148004e-02 -4.396857e-02 -6.795785e-02
-2.814753e-02 -3.516541e-02 -6.852411e-02
8.341126e-03 -6.913000e-04 2.666395e-02
-6.886548e-03 3.733892e-03 2.527789e-02
-3.120263e-02 1.935169e-02 1.377252e-02
1.728397e-02 1.543822e-02 2.326699e-02
1.402609e-02 -3.569246e-02 1.423372e-02
-3.553543e-03 -7.342167e-03 2.660692e-02
8.021361e-03 -7.012402e-03 2.435691e-02
-2.155465e-02 2.319017e-02 1.884596e-02
-2.048687e-03 3.514773e-03 -9.094031e-02
1.604022e-03 -2.470418e-02 2.276148e-02
2.460194e-02 -4.848336e-02 -5.410624e-02
2.988707e-02 3.179588e-02 1.907792e-04
-3.076187e-02 -8.120510e-05 1.646454e-02
-1.111988e-02 -1.619116e-02 2.156570e-02
-4.021231e-03 -7.111057e-04 -9.285466e-02
-4.439265e-03 -5.643968e-03 2.587882e-02
-2.020119e-02 -8.754349e-03 2.024497e-02
-2.874868e-02 -2.312599e-02 -7.598400e-02
-5.093359e-02 -1.228580e-02 -2.173542e-02
2.148749e-03 -5.333283e-02 -3.485812e-02
-1.452966e-02 -4.141992e-02 1.030632e-02
-5.835037e-02 -4.060699e-03 -3.212888e-02
-7.181874e-05 2.117401e-02 2.378964e-02
-3.718959e-02 9.526885e-03 9.556916e-03
-1.090864e-02 -4.601284e-02 2.887073e-03
2.935818e-03 2.019484e-02 2.092701e-02
-4.784843e-02 -5.666700e-03 -8.194766e-04
4.415734e-02 -1.437203e-02 3.453241e-03
-7.137863e-03 4.270997e-02 1.594380e-04
-6.033353e-03 6.080550e-03 2.470380e-02
-3.614716e-02 -3.787317e-02 -3.754366e-02
3.298801e-02 3.828146e-02 -4.907998e-02
3.010483e-04 -2.297758e-02 2.314699e-02
-2.029185e-02 6.750093e-03 -8.723919e-02
3.698348e-02 -4.465977e-02 -3.767458e-02
-9.735426e-03 -2.293552e-02 2.206272e-02
3.081194e-03 2.312072e-02 2.306729e-02
-1.784848e-02 -3.263484e-02 1.425252e-02
2.096462e-02 2.432853e-03 2.415418e-02
-3.400806e-04 -5.395000e-02 -1.503006e-02
-1.830213e-02 -1.007652e-02 2.177395e-02
3.266989e-02 3.865422e-02 -4.090573e-02
-6.296734e-03 -2.227062e-02 -8.978099e-02
1.499536e-03 2.109858e-02 1.983894e-02
-2.650700e-02 1.076214e-02 2.020899e-02
-5.060283e-02 1.679272e-02 -5.830950e-02
-4.416049e-02 3.662113e-02 -2.503237e-02
-6.721631e-03 -5.055252e-02 -3.720612e-02
7.510318e-03 2.939499e-02 -7.272219e-02
-8.326454e-03 -5.179897e-02 -2.905792e-02
-1.376343e-02 -1.374366e-02 2.197914e-02
2.861908e-02 7.793393e-03 -7.784201e-02
4.098610e-02 3.342723e-02 -1.675273e-02
2.537034e-02 -3.446844e-02 -6.967109e-02
3.073778e-02 -4.370101e-02 -4.894967e-02
-4.950648e-03 5.552488e-03 2.375118e-02
-4.206776e-02 2.908473e-02 -3.955692e-03
-1.416362e-02 -2.265127e-02 1.867018e-02
-2.929049e-02 4.309363e-04 -8.108333e-02
1.824488e-02 4.117101e-02 -5.741252e-02
3.695587e-02 -7.232552e-03 -7.965934e-02
-4.359036e-02 1.233738e-02 -6.793633e-02
2.103332e-02 3.926607e-02 -6.440381e-02
2.954834e-02 4.502719e-02 -1.024264e-02
-2.740833e-02 1.841591e-02 1.679266e-02
1.969293e-02 -3.125075e-04 2.358505e-02
2.090770e-02 -2.715488e-02 1.746058e-02
4.172254e-02 -3.417674e-02 -1.057714e-02
1.040567e-02 1.160098e-02 2.666088e-02
1.722116e-02 1.666088e-02 2.070814e-02
4.377530e-02 -1.363515e-02 -7.000783e-02
-2.206343e-02 5.213840e-02 -1.879912e-02
-2.020221e-03 6.571187e-03 2.569724e-02
1.689580e-02 -1.912447e-02 2.023683e-02
4.657579e-02 -1.670543e-02 -4.261873e-02
3.529572e-02 3.285338e-02 4.136621e-03
-3.002594e-03 5.197434e-02 -6.445265e-03
9.368480e-03 1.447614e-02 -8.856489e-02
-2.348307e-02 -4.527642e-02 -1.023533e-02
-3.552657e-03 -2.898865e-03 -9.246879e-02
2.432751e-02 -4.725149e-02 -1.827682e-02
1.429998e-03 7.555257e-03 2.641965e-02
7.289682e-03 5.687252e-03 2.643439e-02
-2.837121e-02 1.665780e-02 1.562531e-02
-1.147562e-03 -8.448574e-03 2.689520e-02
2.520278e-02 -5.196932e-02 -2.825822e-02
6.578941e-03 -6.468036e-04 -8.419233e-02
-1.752885e-02 -1.867022e-02 2.137355e-02
2.921052e-02 -3.574184e-02 -1.222484e-03
-1.761059e-03 8.256215e-03 2.700030e-02
-2.382546e-02 -1.023086e-03 2.262132e-02
7.817322e-03 -2.618059e-02 2.109996e-02
3.746501e-02 1.615148e-02 8.527472e-03
7.121601e-03 2.679513e-03 2.685267e-02
1.946855e-02 3.240933e-02 9.486346e-03
-5.555440e-03 1.078315e-02 -8.961895e-02
-2.261972e-02 4.631024e-02 -3.390795e-02
-5.445229e-02 7.673507e-03 -1.425651e-02
-4.811382e-02 -4.574076e-03 -6.801172e-02
-5.775378e-02 -9.884424e-04 -1.608262e-02
5.332705e-03 -9.986662e-03 -8.300726e-02
2.229726e-02 -4.495398e-02 -1.400490e-02
-3.160866e-02 1.881585e-02 -7.404682e-02
3.773424e-02 -2.870998e-02 -2.208924e-03
-2.261471e-02 4.852997e-03 2.331050e-02
3.883495e-02 1.920539e-02 -6.074669e-02
-8.163094e-03 5.914157e-03 -9.330593e-02
7.091186e-04 -6.484604e-04 2.751732e-02
5.429152e-04 5.335625e-02 -2.271904e-02
-1.137080e-02 1.126187e-02 -8.129629e-02
-1.407142e-03 -6.683060e-03 2.468388e-02
-8.186801e-03 -4.013159e-02 -6.380883e-02
-3.380625e-02 -3.768962e-02 -3.964812e-03
1.868451e-02 -1.353060e-02 2.280101e-02
-2.391323e-02 5.529026e-03 2.167504e-02
-4.907721e-02 -1.181452e-02 -1.191557e-02
-2.112211e-02 -1.048746e-02 2.211122e-02
-2.099982e-02 5.065405e-02 -4.164152e-02
-4.631977e-02 -7.209961e-03 3.130420e-03
-2.307587e-02 -4.893281e-02 -2.629972e-02
2.506353e-02 -4.583624e-02 -1.784567e-02
8.075382e-04 3.781960e-03 -8.867442e-02
3.183985e-02 6.379585e-03 1.450363e-02
-5.841851e-03 9.764143e-03 -9.269947e-02
2.031002e-02 6.847603e-03 2.426501e-02
2.385918e-02 1.383724e-02 2.182418e-02
9.978797e-03 1.928966e-02 2.356779e-02
-7.704297e-03 1.487143e-03 2.710647e-02
-1.310184e-02 -1.540236e-02 2.229992e-02
1.662275e-02 4.734361e-02 -2.021400e-02
5.735983e-03 4.078568e-03 -8.889805e-02
2.368649e-02 -2.286191e-02 -7.408779e-02
-3.922449e-03 -1.032891e-02 -8.998872e-02
1.634665e-02 -1.647181e-02 2.301661e-02
4.006489e-03 -8.888675e-03 2.649473e-02
-9.699903e-03 4.592789e-02 -4.697375e-02
-2.672403e-03 4.227784e-02 -6.114218e-02
-4.904110e-02 1.411703e-02 -4.398247e-02
-5.389559e-03 -6.688488e-03 2.608057e-02
-2.322648e-02 -2.724225e-03 1.934370e-02
1.046729e-02 1.674296e-02 2.468427e-02
-5.050422e-02 -9.249000e-03 -2.813430e-03
4.118527e-02 -3.810381e-02 -1.300843e-02
2.203492e-02 -3.677885e-02 8.550847e-03
5.846877e-02 3.673752e-04 -2.153550e-02
-2.155903e-02 -5.077395e-02 -4.945779e-02
-1.230814e-03 -2.447640e-02 2.111220e-02
-6.361555e-03 5.068754e-04 2.497761e-02
4.217295e-02 3.971834e-02 -1.977979e-02
5.286205e-03 6.177260e-03 2.583763e-02
3.683501e-02 -2.855223e-02 -6.640186e-02
-5.651194e-02 1.765787e-03 -1.907852e-02
-4.859906e-02 -2.430378e-02 -1.782590e-02
3.728050e-02 1.749307e-02 -7.312959e-02
2.370604e-03 -8.433215e-03 2.678684e-02
4.695987e-02 1.953082e-02 -5.063731e-03
1.288048e-02 3.740119e-02 1.245742e-02
-2.485226e-02 7.660760e-03 1.838374e-02
2.580489e-02 -4.628330e-03 1.860533e-02
-7.175935e-03 2.532833e-02 -8.546205e-02
-2.336040e-03 -5.750239e-03 2.651480e-02
1.165300e-03 8.682595e-03 2.693431e-02
-2.508763e-02 -4.383628e-02 -3.161900e-03
4.594834e-03 -5.165887e-02 -1.554074e-02
4.347017e-02 -2.396288e-02 -1.537406e-02
-3.457772e-02 -3.661077e-02 -6.021003e-02
3.227359e-02 4.149042e-02 -2.520882e-02
2.657629e-03 4.793062e-03 2.507696e-02
-2.583071e-02 -2.959301e-02 1.150520e-02
-2.652376e-02 4.945993e-02 -1.735736e-02
7.592380e-03 9.799011e-03 2.663437e-02
3.569527e-02 9.796974e-03 1.197180e-02
-5.348628e-03 6.726243e-03 2.383901e-02
-4.088541e-02 -1.806846e-02 7.141444e-03
5.600949e-02 1.680332e-02 -2.284088e-02
-1.897857e-02 3.333395e-02 1.389718e-02
-1.008333e-02 -1.275865e-02 -8.873649e-02
-4.065408e-02 -3.754721e-02 -4.309845e-02
6.928413e-03 -3.139114e-03 2.482393e-02
-6.025928e-03 -2.142408e-02 2.342717e-02
8.214883e-03 3.211800e-02 -8.251420e-02
2.718439e-02 3.013533e-02 9.601942e-03
-2.900380e-02 4.885270e-02 -4.266506e-02
1.121757e-02 -1.425714e-02 2.091134e-02
5.138982e-02 -2.214384e-02 -2.248436e-02
-4.023768e-02 4.118621e-02 -1.878005e-02
-5.107463e-03 7.896526e-03 2.567749e-02
-4.080411e-02 -1.776511e-02 6.982100e-03
8.535529e-03 -1.857639e-03 2.711808e-02
-3.125023e-02 2.309704e-02 -8.007419e-02
-4.078765e-02 -3.290214e-02 -2.512471e-02
-4.592490e-02 -2.881726e-02 -1.198204e-02
5.128726e-02 -1.090305e-02 -6.018728e-03
-4.118136e-02 2.003585e-02 -5.944790e-02
-7.483411e-03 -5.003263e-02 -7.051220e-03
6.946316e-04 1.432573e-03 2.600134e-02
-4.756696e-02 -1.120480e-02 -6.906277e-03
-1.944658e-02 -4.426999e-02 2.134813e-03
-5.470247e-02 8.449544e-03 -9.184556e-03
-1.280113e-02 4.883518e-02 -7.486582e-03
1.204990e-02 4.368782e-02 -1.113180e-04
3.244962e-02 -3.514591e-02 -5.287293e-03
3.543299e-02 -2.229052e-02 1.260698e-03
-4.053350e-02 2.486455e-02 3.378623e-03
2.919145e-02 3.855770e-02 -4.700244e-04
1.937169e-02 4.727493e-02 -1.393574e-02
3.030879e-04 1.447315e-04 2.755006e-02
-4.919016e-02 -2.931018e-02 -4.505589e-02
-3.122276e-02 -2.444139e-02 1.189650e-02
-5.180359e-03 6.052568e-03 -9.187354e-02
9.436449e-03 4.130503e-02 5.443188e-03
5.180408e-02 7.357772e-03 -8.254852e-03
4.657619e-02 -5.258598e-03 -3.178124e-03
4.906072e-02 2.535648e-02 -8.468892e-03
1.171429e-02 1.212849e-02 -9.132972e-02
4.039083e-02 -6.875193e-03 1.212439e-02
1.401495e-02 -4.266404e-02 6.384558e-03
-2.340266e-05 1.237510e-03 2.522623e-02
2.359563e-02 -3.422728e-02 3.747141e-03
-8.948303e-03 -4.352913e-02 7.858360e-03
-4.836712e-02 1.278058e-02 -4.546236e-02
-2.669066e-02 2.951056e-02 5.607628e-03
-3.296983e-02 2.158169e-02 7.495625e-03
-3.552435e-03 7.713635e-03 -9.147970e-02
-1.057084e-02 4.028754e-02 1.001259e-02
-1.134378e-02 -3.538692e-02 -7.943564e-02
-1.374382e-03 9.324247e-04 -8.385651e-02
3.359120e-02 1.593489e-02 1.151235e-02
-1.462552e-04 1.336344e-04 2.543083e-02
-2.706980e-03 2.059046e-04 -8.825387e-02
-3.035416e-03 -7.254712e-04 -9.366229e-02
5.332769e-02 -1.073626e-02 -4.795942e-02
5.024230e-02 -2.643783e-02 -3.530173e-02
2.838330e-02 -1.863375e-02 1.635464e-02
-2.234690e-02 -2.990241e-02 1.303137e-02
3.436428e-02 -1.115297e-02 1.578881e-02
-3.677342e-02 -1.836863e-03 1.336982e-02
-3.020419e-02 -2.432345e-02 1.383931e-02
-3.828634e-02 1.371740e-02 1.043749e-02
-3.640944e-04 -1.556543e-04 2.773620e-02
-9.935763e-04 3.400188e-02 1.456937e-02
3.325371e-02 4.358539e-03 1.661014e-02
5.164976e-03 -3.461392e-02 1.222635e-02
-7.004465e-03 1.082913e-02 -8.342132e-02
3.699331e-03 -3.819137e-03 -8.616977e-02
-5.947582e-03 -1.648660e-02 -8.862095e-02
-2.123440e-02 3.183356e-02 1.332559e-02
-1.199376e-02 2.839766e-02 1.427012e-02
1.090734e-02 -3.276345e-02 1.103886e-02
1.683596e-02 -2.973049e-02 1.770947e-02
-8.749769e-04 -1.011950e-03 2.572029e-02
-2.854051e-02 -5.633267e-03 -7.873908e-02
-1.984986e-02 2.465406e-03 2.520744e-02
-1.814641e-02 3.314439e-02 9.395883e-03
-5.534089e-02 -1.828360e-02 -4.665310e-02
2.599616e-02 2.443357e-02 1.539630e-02
1.290920e-02 -2.743024e-02 1.516879e-02
1.112728e-02 -4.837459e-02 -6.636504e-02
1.669914e-02 2.976707e-02 1.584616e-02
2.895220e-02 -3.396152e-02 -5.846138e-02
-3.836776e-02 3.347611e-02 -4.966165e-02
7.903289e-04 -4.417042e-04 2.623273e-02
9.196975e-04 -2.085305e-04 2.475436e-02
-3.075397e-02 -1.402249e-02 1.634159e-02
-8.918396e-04 -3.049425e-02 1.477102e-02