# vtk DataFile Version 2.0
Electric current density generated by TTH
ASCII
DATASET UNSTRUCTURED_GRID
POINTS 4586 double
5.718050e-06 3.320268e-05 -2.358214e-22
-1.843732e-05 -2.755578e-05 8.632566e-07
-1.926239e-05 -2.705510e-05 8.328558e-07
3.327956e-05 -9.996781e-07 7.789329e-07
3.327956e-05 9.996781e-07 7.789329e-07
-2.743903e-05 -1.638064e-05 5.753296e-07
-1.706177e-05 -2.846436e-05 8.471455e-07
-8.784698e-06 -3.200244e-05 8.471202e-07
-7.125966e-06 -3.241316e-05 8.465873e-07
-2.954678e-05 -1.522225e-05 -8.173796e-07
6.518459e-06 -3.111399e-05 -2.120722e-07
5.121107e-06 3.329998e-05 -2.358214e-22
3.163569e-05 -1.016011e-05 -8.237011e-07
3.163569e-05 1.016011e-05 -8.237011e-07
1.661916e-06 -3.318722e-05 8.227056e-07
3.636219e-06 -3.301752e-05 8.296851e-07
1.403427e-05 -2.872131e-05 -5.887012e-07
-2.320562e-05 -2.169665e-05 7.325850e-08
-2.794611e-05 -1.534889e-05 -4.616968e-07
-3.203034e-05 8.869380e-06 8.185049e-07
-3.169132e-05 -1.001343e-05 8.185049e-07
-8.003757e-06 3.225754e-05 8.185049e-07
4.522514e-06 3.338654e-05 -2.358214e-22
-1.925600e-05 -2.625583e-05 -9.479527e-07
1.114027e-05 2.978811e-05 2.652902e-07
2.259531e-05 -2.436831e-05 -8.207856e-07
2.259531e-05 2.436831e-05 -8.207856e-07
2.713297e-05 -1.700847e-05 6.552693e-07
2.713297e-05 1.700847e-05 6.552693e-07
2.376721e-05 2.322590e-05 -8.211540e-07
2.376721e-05 -2.322590e-05 -8.211540e-07
3.069990e-05 -9.665514e-06 -7.949864e-07
3.069990e-05 9.665514e-06 -7.949864e-07
3.922464e-06 3.346235e-05 -2.358214e-22
-3.325015e-05 -5.929944e-07 8.059126e-07
1.491037e-06 3.320048e-05 8.195642e-07
3.229916e-05 -7.599947e-06 8.498027e-07
3.229916e-05 7.599947e-06 8.498027e-07
-3.166691e-05 -2.664744e-06 -1.576737e-07
-6.711077e-07 3.177174e-05 -1.576828e-07
-2.463492e-05 2.231024e-05 8.183444e-07
-1.830649e-05 2.773983e-05 8.183444e-07
3.258863e-05 6.644503e-06 8.035035e-07
3.258863e-05 -6.644503e-06 8.035035e-07
3.321150e-06 3.352737e-05 -2.358214e-22
3.163813e-05 -9.735160e-06 8.874626e-07
3.163813e-05 9.735160e-06 8.874626e-07
3.254725e-06 3.308579e-05 8.123272e-07
-2.838599e-05 -1.725001e-05 8.301432e-07
-2.167740e-05 2.525772e-05 7.861046e-07
6.485852e-06 3.138829e-05 -6.843432e-07
3.178791e-05 9.098461e-07 2.575855e-07
3.178791e-05 -9.098461e-07 2.575855e-07
-1.911086e-05 -2.576535e-05 7.108402e-07
3.084161e-05 8.402104e-06 5.871911e-07
2.718765e-06 3.358158e-05 -2.358214e-22
3.084161e-05 -8.402104e-06 5.871911e-07
3.102563e-05 -6.829090e-06 6.916007e-08
3.102563e-05 6.829090e-06 6.916007e-08
5.669053e-06 -3.210150e-05 -9.539411e-07
1.324854e-05 -3.047850e-05 -8.198601e-07
8.740424e-06 3.089601e-05 7.365331e-07
2.798288e-05 -1.606835e-05 8.455526e-07
2.798288e-05 1.606835e-05 8.455526e-07
1.536289e-05 2.947395e-05 -8.173542e-07
-9.851059e-06 -3.045564e-05 6.398578e-07
2.115504e-06 3.362497e-05 -2.358214e-22
-1.520555e-05 -2.816703e-05 6.398809e-07
-5.474406e-06 -3.153767e-05 6.399395e-07
-2.585833e-05 -2.083560e-05 8.349658e-07
3.247396e-05 7.103090e-06 -8.147149e-07
3.247396e-05 -7.103090e-06 -8.147149e-07
3.053743e-05 1.315032e-05 -8.103794e-07
3.053743e-05 -1.315032e-05 -8.103794e-07
1.870095e-05 2.601348e-05 6.707278e-07
1.870095e-05 -2.601348e-05 6.707278e-07
2.555036e-05 -2.124133e-05 -8.239720e-07
1.511562e-06 3.365753e-05 -2.358214e-22
2.555036e-05 2.124133e-05 -8.239720e-07
3.152880e-05 5.042764e-06 -5.370586e-07
3.152880e-05 -5.042764e-06 -5.370586e-07
-2.622211e-05 -2.044081e-05 -8.107637e-07
1.723173e-05 2.713450e-05 -7.647117e-07
1.723173e-05 -2.713450e-05 -7.647117e-07
1.521762e-05 -2.960179e-05 7.863236e-07
2.825455e-05 1.755471e-05 -8.003133e-07
2.825455e-05 -1.755471e-05 -8.003133e-07
-2.523925e-05 -1.975218e-05 6.824473e-07
9.071318e-07 3.367924e-05 -2.358214e-22
1.051111e-05 3.047707e-05 8.288496e-07
-2.390494e-06 3.323292e-05 7.607508e-07
-3.315651e-05 3.284413e-06 7.607505e-07
-3.301724e-05 -4.472490e-06 7.607505e-07
1.215146e-05 2.986461e-05 8.308315e-07
-2.660709e-05 -1.776585e-05 6.213564e-07
-2.328158e-05 -2.300907e-05 -9.628042e-07
-2.796302e-05 1.806931e-05 7.800017e-07
-1.361108e-05 3.039010e-05 7.757364e-07
2.733759e-05 -1.896630e-05 7.944473e-07
3.024098e-07 3.369010e-05 -2.358214e-22
2.733759e-05 1.896630e-05 7.944473e-07
-2.077236e-05 -2.596386e-05 -8.089559e-07
-2.150061e-05 -2.540439e-05 -7.882537e-07
1.365241e-05 2.911059e-05 7.717709e-07
-2.328368e-05 2.364162e-05 8.493095e-07
-2.013700e-05 2.637342e-05 8.493095e-07
-3.817101e-07 -3.268071e-05 -9.617286e-07
1.709212e-05 2.860739e-05 -7.562699e-07
1.709212e-05 -2.860739e-05 -7.562699e-07
-2.986901e-05 1.461230e-05 8.083272e-07
-3.024098e-07 3.369010e-05 -2.358214e-22
-1.568885e-05 2.762638e-05 -9.343817e-08
-2.492066e-05 1.970577e-05 -9.343817e-08
3.207274e-07 -3.196424e-05 5.874965e-07
2.135657e-05 2.469397e-05 9.594351e-07
2.135657e-05 -2.469397e-05 9.594351e-07
-2.693476e-05 -1.954467e-05 7.901844e-07
-3.135998e-05 1.083836e-05 8.504135e-07
-3.095072e-05 -1.195708e-05 8.504135e-07
-9.990073e-06 3.164043e-05 8.504135e-07
-3.200253e-05 -3.480633e-06 7.988904e-07
-9.071318e-07 3.367924e-05 -2.358214e-22
-3.211669e-05 2.329815e-06 8.054142e-07
-1.464310e-06 3.215794e-05 7.988919e-07
3.235751e-05 2.197567e-06 9.159931e-07
3.235751e-05 -2.197567e-06 9.159931e-07
1.370392e-05 3.031166e-05 -7.992387e-07
2.266826e-05 -2.257567e-05 -6.203935e-07
2.266826e-05 2.257567e-05 -6.203935e-07
-2.289892e-05 -2.404981e-05 8.351513e-07
3.115899e-05 8.172713e-06 -8.130825e-07
3.115899e-05 -8.172713e-06 -8.130825e-07
-1.511562e-06 3.365753e-05 -2.358214e-22
-9.937874e-06 -3.117287e-05 -9.627620e-07
-5.731735e-06 -3.221270e-05 -9.627624e-07
-3.174361e-05 1.303724e-06 -9.343817e-08
3.294311e-06 3.159912e-05 -9.342612e-08
-1.566392e-05 -2.872566e-05 -9.627641e-07
5.687588e-06 -3.133666e-05 -3.906125e-07
1.260746e-05 -2.950573e-05 -7.172949e-07
-2.254969e-05 -2.265640e-05 -5.872069e-07
-2.576085e-05 2.108836e-05 7.809765e-07
-1.692768e-05 2.866696e-05 7.809708e-07
-2.115504e-06 3.362497e-05 -2.358214e-22
3.173748e-05 -3.926017e-06 6.046754e-07
3.173748e-05 3.926017e-06 6.046754e-07
-2.160557e-05 -2.376850e-05 -7.466412e-07
3.949434e-06 3.158256e-05 3.418009e-07
-3.000325e-05 -1.446079e-05 -7.702747e-07
2.649286e-05 2.012059e-05 7.980701e-07
2.649286e-05 -2.012059e-05 7.980701e-07
1.500415e-05 2.977693e-05 7.409023e-07
1.923562e-05 -2.579651e-05 -7.903040e-07
1.923562e-05 2.579651e-05 -7.903040e-07
-2.718765e-06 3.358158e-05 -2.358214e-22
1.583995e-06 3.325945e-05 -7.770579e-07
-2.175087e-05 2.521035e-05 -7.774713e-07
-2.473830e-05 2.228713e-05 -7.770569e-07
-3.329328e-05 -5.075164e-07 -7.770569e-07
-1.826794e-05 2.783850e-05 -7.770569e-07
-5.985651e-07 3.333903e-05 -7.401721e-07
-3.323566e-05 -2.690759e-06 -7.401719e-07
-2.008044e-05 2.662001e-05 -7.401719e-07
5.073324e-06 -3.178541e-05 7.965184e-07
1.035442e-05 -3.057280e-05 8.511762e-07
-3.321150e-06 3.352737e-05 -2.358214e-22
-1.143060e-05 -3.125777e-05 -7.877544e-07
-1.232083e-05 -3.099028e-05 -7.357572e-07
-1.469374e-05 -2.986305e-05 -7.877393e-07
-1.386718e-05 -3.032569e-05 -7.389541e-07
-4.450594e-06 -3.298341e-05 -7.876841e-07
-3.585014e-06 -3.315460e-05 -7.372829e-07
-2.156726e-05 -2.420045e-05 9.107010e-07
1.769180e-05 -2.642035e-05 -2.421427e-07
1.769180e-05 2.642035e-05 -2.421427e-07
-1.516488e-05 2.828527e-05 -7.241107e-07
-3.922464e-06 3.346235e-05 -2.358214e-22
-2.565154e-05 1.928804e-05 -7.241140e-07
-2.770701e-05 -1.562984e-05 2.929672e-07
2.092389e-05 -2.390254e-05 -4.699751e-08
2.092389e-05 2.390254e-05 -4.699751e-08
1.918842e-05 -2.539191e-05 3.371505e-07
1.918842e-05 2.539191e-05 3.371505e-07
-9.693574e-06 -3.180224e-05 8.115126e-07
-1.628760e-05 -2.898386e-05 8.114904e-07
-6.241040e-06 -3.265579e-05 8.114780e-07
2.460096e-05 2.057500e-05 -7.030520e-07
-4.522514e-06 3.338654e-05 -2.358214e-22
2.460096e-05 -2.057500e-05 -7.030520e-07
2.196487e-05 2.329107e-05 -6.457848e-07
2.196487e-05 -2.329107e-05 -6.457848e-07
-3.138848e-06 3.203418e-05 7.964104e-07
-3.193805e-05 4.000221e-06 7.964110e-07
-3.177387e-05 -5.144098e-06 7.964110e-07
1.228948e-05 -2.971015e-05 7.707236e-07
3.148829e-05 -5.964604e-06 6.812114e-07
3.148829e-05 5.964604e-06 6.812114e-07
9.732957e-06 -3.184878e-05 -7.729042e-07
-5.121107e-06 3.329998e-05 -2.358214e-22
3.128563e-05 -7.703939e-06 8.176190e-07
3.128563e-05 7.703939e-06 8.176190e-07
2.400078e-05 2.306561e-05 7.840009e-07
2.400078e-05 -2.306561e-05 7.840009e-07
4.550936e-06 -3.301256e-05 7.560722e-07
8.189195e-07 -3.331471e-05 7.560721e-07
3.319381e-05 -3.071127e-06 -7.474240e-07
3.319381e-05 3.071127e-06 -7.474240e-07
1.411962e-05 -3.018714e-05 -7.550430e-07
3.018533e-05 1.064678e-05 6.384265e-07
-5.718050e-06 3.320268e-05 -2.358214e-22
3.018533e-05 -1.064678e-05 6.384265e-07
2.293302e-05 -2.411222e-05 7.917761e-07
2.293302e-05 2.411222e-05 7.917761e-07
1.154341e-05 3.117042e-05 -8.162920e-07
2.467593e-05 -2.234374e-05 7.830949e-07
2.467593e-05 2.234374e-05 7.830949e-07
1.167988e-05 -2.980652e-05 -6.443785e-07
3.736511e-06 3.303455e-05 -8.125152e-07
-4.596244e-06 3.292596e-05 -8.125053e-07
-1.264020e-05 3.074849e-05 -8.125052e-07
-6.313150e-06 3.309469e-05 -2.358214e-22
-3.184475e-05 9.547589e-06 -8.125052e-07
-2.612754e-05 2.058686e-05 -8.005160e-07
-3.250535e-05 -6.974707e-06 -8.125052e-07
-3.322008e-05 1.659313e-06 -8.019196e-07
-3.026310e-05 1.376187e-05 -8.125052e-07
-2.829964e-05 1.744633e-05 -8.125052e-07
-3.148150e-05 -1.068454e-05 -8.125052e-07
-3.273477e-05 5.803394e-06 -8.125052e-07
-1.637626e-05 2.895316e-05 -8.005160e-07
-9.001972e-06 3.200326e-05 -8.125052e-07
-6.906215e-06 3.297603e-05 -2.358214e-22
7.528485e-06 3.238184e-05 -8.123378e-07
-2.330989e-05 -2.382621e-05 -7.501103e-07
-7.206029e-07 -3.193797e-05 -5.609179e-07
1.373311e-05 -2.914531e-05 8.167070e-07
3.291166e-05 5.159816e-06 7.646848e-07
3.291166e-05 -5.159816e-06 7.646848e-07
1.299711e-05 -3.065706e-05 7.761735e-07
1.997125e-05 -2.479830e-05 3.713536e-07
1.997125e-05 2.479830e-05 3.713536e-07
-2.416971e-05 -2.290974e-05 7.733945e-07
-7.497055e-06 3.284674e-05 -2.358214e-22
-5.723164e-06 3.134294e-05 4.177535e-07
[...]
POINT_DATA 4586
VECTORS 10.000GHz_fone_imag double
3.246168e+10 -5.264703e+09 1.200746e+09
-2.741298e+10 1.740024e+10 3.300231e+08
-2.683904e+10 1.959567e+10 9.408401e+08
-2.490464e+09 -3.194988e+10 2.242553e+09
2.615017e+09 -3.212309e+10 -2.351839e+09
-2.000631e+10 3.343293e+10 7.568183e+08
-2.814488e+10 1.711995e+10 -5.812567e+08
-3.147746e+10 8.728713e+09 -4.367373e+08
-3.109278e+10 6.797354e+09 -1.070265e+09
-1.451211e+10 2.899412e+10 3.556380e+08
-3.899635e+10 -6.863645e+09 -6.952316e+08
3.155694e+10 -4.292365e+09 3.579863e+08
-9.698715e+09 -3.113644e+10 2.558806e+08
9.694206e+09 -3.114177e+10 -2.589184e+08
-3.134872e+10 -1.097452e+09 1.405709e+08
-3.213092e+10 -4.695462e+09 -2.745513e+08
-3.476352e+10 -1.645745e+10 2.087572e+08
-2.589063e+10 2.800898e+10 -1.919206e+09
-1.939518e+10 3.409235e+10 2.085973e+08
9.492546e+09 3.220412e+10 3.722939e+08
-1.085359e+10 3.153163e+10 -6.854296e+08
3.442009e+10 7.589629e+09 1.751802e+08
3.062104e+10 -5.194159e+09 5.849495e+08
-2.883244e+10 2.134845e+10 -5.897013e+08
3.762698e+10 -1.395039e+10 7.307513e+08
-2.353683e+10 -2.237834e+10 -8.064182e+08
2.353575e+10 -2.237605e+10 8.068000e+08
-1.994662e+10 -3.201672e+10 9.956483e+08
1.994922e+10 -3.201344e+10 -9.910166e+08
2.378206e+10 -2.364884e+10 -6.604084e+08
-2.377938e+10 -2.365319e+10 6.628896e+08
-9.960644e+09 -3.559710e+10 7.256986e+08
9.958462e+09 -3.559026e+10 -7.268136e+08
3.161698e+10 -3.640578e+09 2.485423e+08
-2.433318e+09 3.303342e+10 -1.123980e+09
3.267851e+10 -1.446668e+09 -3.306370e+08
-7.732785e+09 -3.226037e+10 4.970175e+08
7.730326e+09 -3.225937e+10 -4.959584e+08
-2.287646e+09 3.937933e+10 9.069421e+08
3.919531e+10 7.650186e+08 8.664636e+08
2.252076e+10 2.451617e+10 -9.368214e+07
2.755039e+10 1.918929e+10 -6.287832e+08
7.097148e+09 -3.252621e+10 3.314288e+08
-7.097254e+09 -3.252798e+10 -3.311657e+08
3.114726e+10 -2.860761e+09 -1.900308e+08
-8.995812e+09 -3.226498e+10 4.397487e+08
8.994924e+09 -3.226957e+10 -4.401956e+08
3.234559e+10 -3.722604e+09 -6.076958e+08
-1.747919e+10 2.662463e+10 -6.604201e+08
2.510646e+10 1.950339e+10 1.081066e+09
3.621162e+10 -8.146419e+09 5.746072e+08
3.188935e+09 -4.097527e+10 -1.985166e+09
-3.118438e+09 -4.080827e+10 2.055068e+09
-3.146330e+10 2.435850e+10 4.658831e+08
9.948321e+09 -3.600323e+10 -4.164171e+08
3.242081e+10 -2.398947e+09 2.473079e+09
-9.946959e+09 -3.600624e+10 4.188952e+08
-7.383378e+09 -3.842553e+10 4.896863e+08
7.384691e+09 -3.843474e+10 -4.897736e+08
-3.490192e+10 -6.279002e+09 -4.718632e+08
-3.010261e+10 -1.294466e+10 -3.581156e+08
3.584646e+10 -9.784777e+09 -2.146329e+08
-1.718204e+10 -3.306694e+10 2.911244e+08
1.718185e+10 -3.306914e+10 -2.917875e+08
3.027802e+10 -1.743113e+10 -7.859289e+08
-3.638853e+10 1.089287e+10 5.981322e+08
3.107237e+10 -1.910654e+09 1.106597e+09
-3.196313e+10 1.948256e+10 5.690272e+08
-3.648860e+10 8.301110e+09 6.206295e+08
-2.087493e+10 2.601096e+10 3.272530e+08
7.483207e+09 -3.109204e+10 2.490135e+08
-7.478833e+09 -3.110220e+10 -2.458984e+08
1.393399e+10 -3.032155e+10 1.963027e+07
-1.394002e+10 -3.031573e+10 -2.468451e+07
2.986312e+10 -2.022468e+10 -1.457520e+09
-2.984592e+10 -2.021168e+10 1.456530e+09
-2.089453e+10 -2.497816e+10 2.413799e+08
3.051574e+10 -1.418825e+09 8.817883e+08
2.089579e+10 -2.497186e+10 -2.421646e+08
6.572295e+09 -3.683241e+10 -6.154392e+08
-6.573219e+09 -3.683413e+10 6.168645e+08
-1.786638e+10 2.454243e+10 -5.171537e+07
3.300017e+10 -2.113990e+10 -2.339468e+08
-3.274184e+10 -2.134398e+10 -3.309362e+07
-2.956580e+10 -1.503244e+10 -5.969538e+08
1.676466e+10 -2.780338e+10 -6.958297e+08
-1.675976e+10 -2.780069e+10 6.975010e+08
-2.399796e+10 3.031158e+10 -1.588305e+07
2.991184e+10 -6.576641e+08 4.968789e+08
3.548774e+10 -1.124546e+10 5.209939e+08
3.195874e+10 3.195423e+09 -4.127417e+08
2.581555e+09 3.147369e+10 6.542324e+06
-3.891913e+09 3.179233e+10 9.426636e+06
3.391795e+10 -1.438797e+10 7.726729e+07
-2.152534e+10 3.201983e+10 -7.361792e+08
-2.409164e+10 2.492531e+10 -8.163429e+08
1.792648e+10 2.756192e+10 -5.135905e+08
3.022216e+10 1.298637e+10 4.205978e+08
-1.949194e+10 -2.669600e+10 1.847233e+08
3.031654e+10 -1.070837e+09 5.086293e+08
1.949684e+10 -2.669379e+10 -1.883819e+08
-2.593943e+10 2.099479e+10 5.029588e+08
-2.555330e+10 2.225666e+10 -3.089122e+08
3.412745e+10 -1.464176e+10 -3.311127e+08
2.334765e+10 2.233353e+10 5.454964e+08
2.622414e+10 2.006100e+10 -2.420837e+08
-3.438388e+10 -3.506923e+08 1.004595e+09
2.992728e+10 -1.711506e+10 -3.467577e+08
-2.813318e+10 -1.650722e+10 -2.289816e+08
1.503245e+10 2.896125e+10 3.830227e+08
3.261040e+10 -3.750922e+08 2.361008e+09
3.411707e+10 1.863554e+10 -2.373286e+08
2.346964e+10 3.059499e+10 5.529370e+08
-3.786332e+10 -2.861622e+08 -5.582525e+08
2.690564e+10 -2.225830e+10 5.101244e+08
-2.695820e+10 -2.224424e+10 -5.081992e+08
-1.837529e+10 2.712502e+10 6.925995e+08
1.052698e+10 3.257896e+10 -3.602142e+08
-1.188958e+10 3.124211e+10 6.318751e+08
3.178407e+10 9.952812e+09 5.813659e+08
-5.018242e+09 3.720737e+10 6.556378e+08
3.089658e+10 1.853650e+09 6.385922e+08
2.604529e+09 3.773868e+10 5.710743e+08
3.728251e+10 3.680863e+09 6.151327e+08
6.246354e+08 -3.730257e+10 2.174179e+09
-6.166611e+08 -3.728236e+10 -2.179968e+09
2.957004e+10 -1.337070e+10 -1.053657e+09
-2.653006e+10 -2.631586e+10 -4.875843e+08
2.653888e+10 -2.631610e+10 4.825060e+08
-2.385522e+10 2.256067e+10 8.192712e+08
9.293119e+09 -3.532038e+10 -9.189542e+08
-9.295746e+09 -3.532049e+10 9.214252e+08
3.129407e+10 -2.555309e+07 5.675284e+08
-3.390399e+10 1.092900e+10 -8.885890e+08
-3.354278e+10 6.702727e+09 1.878314e+08
1.707535e+09 3.762574e+10 -5.438358e+08
3.855880e+10 -3.873542e+09 -4.802764e+08
-2.976562e+10 1.718808e+10 1.427423e+08
-4.035750e+10 -7.409738e+09 -9.945885e+08
-3.320447e+10 -1.559794e+10 1.170171e+09
-2.759713e+10 2.606624e+10 -3.908836e+08
2.071556e+10 2.625955e+10 -5.320978e+08
2.872896e+10 1.729131e+10 9.509617e+07
3.299568e+10 1.568602e+09 -7.307053e+08
-5.160828e+09 -3.817523e+10 2.107772e+08
5.165231e+09 -3.816393e+10 -1.954521e+08
-2.777887e+10 2.543122e+10 -1.540822e+09
3.835774e+10 -5.122095e+09 4.488105e+08
-1.390615e+10 2.920404e+10 -1.468821e+09
2.135846e+10 -2.866006e+10 2.311932e+08
-2.135721e+10 -2.865872e+10 -2.314149e+08
2.846616e+10 -1.514995e+10 -9.873870e+08
-3.129534e+10 -2.297615e+10 -5.185877e+08
3.131194e+10 -2.297463e+10 5.117583e+08
3.101851e+10 3.609824e+09 -1.726619e+08
3.088276e+10 -1.628674e+09 2.986915e+08
2.523341e+10 2.015537e+10 -1.183379e+09
2.080721e+10 2.269255e+10 -1.626642e+08
-1.303243e+09 3.175146e+10 -1.730320e+08
2.555260e+10 1.824889e+10 -1.738993e+08
3.156842e+10 1.462111e+09 1.443204e+09
-3.062970e+09 3.100317e+10 8.991640e+08
2.637623e+10 1.952890e+10 8.689819e+08
-3.626397e+10 -6.271013e+09 6.275367e+08
-3.500311e+10 -1.386512e+10 -6.647246e+08
3.096073e+10 2.540275e+09 4.152464e+08
-3.041265e+10 1.129624e+10 9.557286e+07
-3.092826e+10 1.218522e+10 3.762464e+08
-2.933450e+10 1.528989e+10 -6.672326e+08
-2.831892e+10 1.290015e+10 2.440871e+08
-3.377401e+10 4.714688e+09 -1.384840e+08
-3.263888e+10 3.749537e+09 7.839265e+08
-2.713711e+10 2.417641e+10 5.519925e+07
-3.309733e+10 -2.078048e+10 -1.045618e+09
3.321476e+10 -2.078956e+10 9.920200e+08
3.398987e+10 1.894102e+10 -8.446392e+08
3.025781e+10 3.484561e+09 -1.468296e+08
2.383433e+10 2.973689e+10 1.196245e+09
-1.934815e+10 3.330049e+10 1.542275e+09
-3.043357e+10 -2.475959e+10 -5.211485e+08
3.042106e+10 -2.475440e+10 5.207251e+08
-3.012647e+10 -2.261969e+10 4.872384e+08
3.013462e+10 -2.262098e+10 -4.849292e+08
-3.098237e+10 9.251659e+09 1.268282e+09
-2.794401e+10 1.715591e+10 -3.857329e+08
-3.196090e+10 7.434789e+09 -3.447230e+08
2.533451e+10 -2.912771e+10 -4.621176e+08
3.072036e+10 3.493489e+09 4.238142e+08
-2.532661e+10 -2.912533e+10 4.625837e+08
2.937341e+10 -2.542216e+10 -3.235000e+08
-2.937486e+10 -2.542198e+10 3.247309e+08
3.698937e+10 2.784147e+09 5.379644e+07
4.848241e+09 3.559367e+10 -9.775432e+08
-6.061391e+09 3.555640e+10 9.477772e+08
-3.461612e+10 -1.321857e+10 7.342606e+08
-8.132159e+09 -3.740055e+10 -3.083625e+08
8.132232e+09 -3.739702e+10 3.096948e+08
-3.139301e+10 -1.015968e+10 5.301840e+08
3.280681e+10 5.566221e+09 -1.061135e+09
-7.437853e+09 -3.542951e+10 -1.269362e+09
7.436303e+09 -3.542976e+10 1.267596e+09
2.368216e+10 -2.328428e+10 -9.212163e+08
-2.368134e+10 -2.328991e+10 9.200811e+08
-3.253672e+10 -4.731057e+09 -1.026844e+09
-3.320512e+10 -4.803953e+08 4.419145e+08
-2.440893e+09 -3.326608e+10 -6.793184e+08
2.439503e+09 -3.326459e+10 6.784177e+08
-2.842928e+10 -1.278283e+10 7.874726e+08
1.198271e+10 -3.496534e+10 1.968112e+09
3.157758e+10 5.072564e+09 -5.658553e+08
-1.200013e+10 -3.498738e+10 -1.976079e+09
-2.466025e+10 -2.430007e+10 -7.307406e+08
2.465462e+10 -2.429825e+10 7.324371e+08
3.088267e+10 -1.128201e+10 4.525699e+08
-2.087119e+10 -2.408711e+10 8.910627e+08
2.086982e+10 -2.408453e+10 -8.908049e+08
-3.577792e+10 -1.547547e+10 -1.212008e+09
3.239174e+10 -2.719916e+09 6.865146e+08
3.221044e+10 4.286167e+09 4.803090e+08
3.057370e+10 1.289945e+10 5.264731e+08
3.044174e+10 5.464612e+09 8.435019e+08
8.647430e+09 3.288739e+10 8.764550e+07
1.980311e+10 2.565416e+10 6.236161e+08
-6.846456e+09 3.125677e+10 -3.668971e+08
-1.438055e+08 3.288515e+10 7.294801e+08
1.408072e+10 2.958712e+10 -1.561785e+08
1.786151e+10 2.761424e+10 4.348768e+08
-1.087799e+10 2.969267e+10 1.051922e+09
5.807157e+09 3.150630e+10 8.157233e+08
2.749446e+10 1.573339e+10 -7.405141e+08
3.254866e+10 8.860525e+09 1.672296e+07
3.117581e+10 5.950182e+09 1.944150e+08
3.156364e+10 -6.882911e+09 -3.533725e+08
-2.224808e+10 2.286440e+10 1.261862e+09
-3.805567e+10 9.544249e+07 -5.802322e+08
-3.485175e+10 -1.520834e+10 -1.361311e+07
5.896382e+09 -3.263912e+10 -6.166457e+08
-5.899661e+09 -3.264351e+10 6.186963e+08
-3.006430e+10 -1.216130e+10 6.121745e+08
-2.869751e+10 -2.490638e+10 -4.532666e+08
2.869495e+10 -2.489609e+10 4.558243e+08
-2.135918e+10 2.181944e+10 -1.134534e+09
3.048110e+10 7.391262e+09 -8.244070e+08
3.896947e+10 8.161452e+09 2.353327e+07
-9.625207e+09 3.809406e+10 -9.373954e+08
8.235945e+09 3.813506e+10 8.561614e+08
2.609132e+10 -1.999155e+10 -7.312767e+08
-2.609412e+10 -1.999658e+10 7.307458e+08
-2.708974e+10 -1.824755e+10 1.108089e+08
2.709062e+10 -1.823346e+10 -1.024280e+08
3.217514e+10 5.746015e+09 3.318828e+08
-9.293064e+09 3.161240e+10 -6.329404e+08
8.153964e+09 3.167341e+10 6.592144e+08
3.117685e+10 8.713184e+09 -3.288738e+08
3.246595e+10 -4.879146e+09 -2.788880e+08
-1.573046e+10 2.575984e+10 -5.483569e+08
-1.869519e+10 2.754153e+10 -6.828326e+08
-1.869006e+10 -3.219642e+10 -1.796216e+08
1.866470e+10 -3.218488e+10 1.834503e+08
3.133138e+09 3.855182e+10 -3.834192e+08
-4.294613e+09 3.777802e+10 4.596723e+08
4.005903e+10 2.427948e+09 4.258074e+07
-2.505197e+10 2.042535e+10 -1.560335e+09
1.578557e+10 -2.762256e+10 -5.095066e+08
3.056408e+10 8.143415e+09 4.627472e+08
-1.578543e+10 -2.762115e+10 5.089551e+08
-3.361478e+10 1.460990e+10 -8.774619e+08
-3.417599e+10 1.499992e+10 -5.794441e+08
-3.721770e+10 3.420896e+09 -1.070696e+09
-4.257975e+10 4.041983e+09 -1.124271e+09
2.080372e+10 -2.460341e+10 9.525015e+08
-2.079671e+10 -2.460756e+10 -9.564910e+08
-1.742606e+10 -3.256433e+10 1.428425e+08
1.742423e+10 -3.256198e+10 -1.423673e+08
-1.917724e+10 -3.023276e+10 -4.506079e+08
3.050055e+10 8.033743e+09 3.825670e+07
1.917732e+10 -3.023178e+10 4.497106e+08
-3.604748e+10 -2.014055e+09 -7.598255e+08
-3.150968e+10 1.996598e+10 5.733874e+08
-3.188352e+10 1.962706e+10 -1.040787e+09
-3.465640e+10 8.490127e+09 5.963563e+08
-3.794247e+10 9.338433e+09 -7.330810e+08
-3.600338e+10 -9.842869e+09 1.891398e+08
-3.771513e+10 -1.282093e+10 -5.623836e+08
-3.231810e+10 -7.312082e+09 2.698694e+08
-3.128413e+10 -4.941163e+09 -6.029607e+08
3.289114e+10 9.553697e+09 5.390665e+08
-3.196736e+10 6.955086e+08 5.410239e+08
-3.244205e+10 1.461837e+09 -1.498491e+08
-3.287142e+10 7.477040e+09 -3.823435e+08
-3.140793e+10 8.767861e+09 -8.080066e+06
-2.820465e+10 1.736957e+10 -4.179654e+08
-2.809441e+10 1.780344e+10 -6.072804e+08
-2.406650e+10 2.841517e+10 -3.080598e+08
-2.815426e+10 -1.381137e+10 -2.420656e+08
-3.440753e+10 -8.645761e+09 3.196765e+08
-3.209795e+10 -8.068133e+09 -3.440698e+08
3.073925e+10 1.036099e+10 6.480898e+08
3.079395e+10 2.214365e+10 2.424561e+08
2.720317e+10 2.706036e+10 -3.082889e+08
2.872493e+10 2.365901e+10 1.032121e+08
-2.912345e+10 2.578637e+10 -2.935731e+07
2.822677e+10 2.458548e+10 -1.047462e+09
3.142358e+10 2.014247e+10 9.974555e+08
2.630152e+10 2.838556e+10 1.824605e+09
3.048580e+10 2.233917e+10 5.873467e+07
-1.578681e+09 3.760045e+10 -3.119894e+08
3.858190e+10 -8.358551e+07 -4.093454e+08
2.983883e+10 1.073062e+10 5.148223e+08
1.474489e+10 -3.365260e+10 1.425733e+09
-1.473998e+10 -3.364201e+10 -1.425670e+09
-3.469795e+10 -1.638000e+10 -8.801060e+08
-1.646736e+10 -3.495319e+10 -1.807082e+07
1.647064e+10 -3.494749e+10 2.114823e+07
-2.625808e+10 2.709898e+10 -8.616933e+08
-3.658248e+10 -9.209850e+09 5.662960e+08
2.115054e+10 -3.015763e+10 -1.029150e+08
-2.114824e+10 -3.015643e+10 1.033341e+08
2.560548e+10 1.909479e+10 -8.009806e+08
2.924623e+10 1.116742e+10 2.084533e+08
2.426271e+10 2.184933e+10 -1.287714e+08
3.500816e+10 -1.212611e+10 -3.670872e+08
-2.382128e+10 -1.993495e+10 -7.354807e+08
2.381495e+10 -1.993366e+10 7.396412e+08
3.546070e+10 -1.387902e+10 -7.655768e+08
3.914522e+10 -1.308650e+09 8.617036e+07
-5.230695e+08 3.871342e+10 3.241325e+08
-2.722824e+10 2.028358e+10 1.651680e+08
2.641255e+10 -2.535191e+10 3.356737e+08
-2.640878e+10 -2.534630e+10 -3.323501e+08
2.946320e+10 1.070810e+10 3.145920e+08
-2.706886e+10 1.760427e+10 -7.527028e+07
-1.730052e+10 3.360298e+10 8.714752e+08
2.274873e+10 2.914720e+10 -4.653097e+08
3.253186e+10 1.849052e+10 6.599102e+08
1.094689e+10 -3.003913e+10 3.930787e+08
-1.093810e+10 -3.003278e+10 -3.911773e+08
2.483348e+10 -2.586105e+10 1.330225e+08
-2.483044e+10 -2.586071e+10 -1.326472e+08
-1.351282e+10 -3.475675e+10 -1.243401e+09
1.351378e+10 -3.475642e+10 1.243964e+09
2.975911e+10 1.222665e+10 7.619725e+08
-9.031684e+09 -3.144096e+10 1.859660e+09
9.033832e+09 -3.144789e+10 -1.857617e+09
1.830012e+10 -3.277725e+10 -4.199974e+08
-1.829919e+10 -3.277678e+10 4.192649e+08
-3.399340e+10 9.686376e+09 -8.556150e+07
-3.241331e+10 6.092920e+09 4.245275e+08
-2.876808e+10 1.603837e+10 4.705573e+08
-2.069710e+10 2.516625e+10 3.608453e+08
2.536094e+10 -2.804668e+10 -3.281585e+08
-2.535771e+10 -2.804471e+10 3.282834e+08
2.786316e+10 1.339867e+10 2.386865e+08
2.692602e+10 2.295438e+10 -1.153655e+09
3.007024e+10 2.199985e+10 -5.765878e+08
2.828907e+10 2.728757e+10 9.829211e+08
-1.826720e+10 2.963319e+10 -4.422655e+08
2.164732e+10 -3.004511e+10 -7.206569e+08
-2.164888e+10 -3.004239e+10 7.191763e+08
-7.889547e+07 -3.747418e+10 -4.860069e+08
3.454930e+08 -3.736292e+10 5.088291e+08
-3.312527e+10 8.347445e+09 -1.872051e+08
-4.011617e+10 -3.663307e+09 -7.090812e+08
2.891752e+10 1.172951e+10 1.030380e+09
-2.480290e+10 -2.940961e+10 5.074609e+08
2.480019e+10 -2.941048e+10 -5.092234e+08
3.732051e+10 -8.253254e+08 3.480984e+08
-2.630715e+09 3.663502e+10 -3.875977e+08
3.326929e+10 -1.963923e+10 2.095606e+09
-3.120100e+10 -1.858490e+10 -2.161611e+09
1.063868e+10 -2.926157e+10 1.010773e+09
-1.063682e+10 -2.928044e+10 -1.011321e+09
1.486348e+10 -2.903602e+10 -3.030783e+08
-1.486094e+10 -2.903598e+10 3.045873e+08
2.952171e+10 1.387126e+10 1.247388e+09
-2.958363e+10 1.220728e+10 -9.390392e+08
-3.230026e+10 3.688586e+09 9.163402e+07
-2.820783e+10 1.360254e+10 6.859632e+08
2.993770e+10 -1.388983e+10 4.271597e+08
-3.311153e+10 1.383321e+09 -3.329995e+08
-3.284701e+10 -7.427312e+09 -2.250295e+08
-2.371022e+10 2.206534e+10 -3.269448e+08
3.021619e+10 -9.779351e+09 3.605431e+08
3.027685e+10 -7.878849e+09 5.675036e+08
2.901093e+10 -1.104231e+10 1.400865e+08
2.791966e+10 1.399696e+10 5.145067e+08
3.788787e+09 3.074767e+10 -7.970322e+08
-4.902299e+09 3.080244e+10 8.086079e+08
3.285285e+10 5.262355e+09 -6.529848e+08
-3.366100e+10 -1.964700e+10 -1.040901e+09
3.265462e+10 -2.063363e+10 1.228841e+08
-3.056058e+10 -2.048277e+10 -5.087500e+08
3.057756e+10 -2.048807e+10 5.022643e+08
-1.807538e+10 -2.692996e+10 5.517990e+07
1.807768e+10 -2.692900e+10 -5.354082e+07
-1.953314e+10 3.325446e+10 8.059287e+08
2.765685e+10 1.350139e+10 5.763221e+08
-1.973508e+10 -2.539532e+10 -1.592132e+09
1.973732e+10 -2.539576e+10 1.592982e+09
-3.506173e+10 -6.679183e+09 1.330073e+08
3.912280e+10 4.256044e+09 2.753058e+08
-7.415776e+09 3.671978e+10 1.895370e+08
6.071667e+09 3.729986e+10 -3.095013e+08
-3.547313e+10 -1.693697e+10 -6.113468e+08
3.625695e+10 -9.188728e+09 1.224216e+08
-3.187394e+10 -3.180971e+09 3.735754e+08
-3.130762e+10 -9.137058e+09 8.005806e+08
2.767955e+10 1.549355e+10 7.720133e+08
-3.229970e+10 1.402473e+10 3.156020e+08
6.087271e+09 -3.548769e+10 -9.406857e+08
-6.084727e+09 -3.547626e+10 9.417329e+08
-3.535419e+10 2.762941e+09 -1.071753e+09
3.632865e+10 -7.470334e+09 -1.238786e+08
-3.071345e+09 -3.706574e+10 1.704593e+08
3.077509e+09 -3.705689e+10 -1.747199e+08
2.124484e+10 3.112175e+10 -4.948432e+06
3.301229e+10 1.601214e+10 4.165780e+08
-3.847471e+10 -2.531245e+09 -1.263995e+09
2.694794e+10 1.524682e+10 -5.822084e+08
2.781645e+10 1.507091e+10 1.254810e+09
1.923349e+10 2.588805e+10 -1.793555e+09
-8.880346e+09 -3.257915e+10 -1.004371e+09
8.883051e+09 -3.257636e+10 1.001044e+09
1.217397e+10 -3.140887e+10 4.734602e+07
-1.217612e+10 -3.140460e+10 -4.553051e+07
-2.604963e+10 2.625624e+10 2.642514e+08
3.763966e+10 -4.036687e+09 2.688912e+07
-3.216679e+10 -1.234686e+10 -8.660746e+07
-1.780201e+10 3.164332e+10 -1.173634e+08
2.684471e+10 1.575115e+10 -1.230371e+08
-3.650149e+10 1.869629e+10 -6.931035e+07
-3.885877e+10 1.326063e+10 9.146985e+08
-3.947283e+10 6.318775e+09 3.840866e+08
3.346272e+10 -1.617992e+10 1.785034e+08
-2.186727e+10 2.927095e+10 7.985619e+08
-1.581910e+10 2.823150e+10 8.798392e+08
-4.941000e+09 -3.150602e+10 -7.262471e+08
4.942593e+09 -3.150438e+10 7.274882e+08
1.973239e+10 3.221807e+10 -3.071397e+08
1.574301e+10 3.511604e+10 -1.049281e+09
2.708199e+10 1.741323e+10 -2.299974e+08
3.598606e+10 1.597055e+10 3.198171e+08
-2.724537e+10 2.209051e+10 3.965815e+08
1.493624e+10 2.873678e+10 8.887862e+08
9.551508e+08 -3.781641e+10 2.216480e+08
-1.398345e+09 -3.761213e+10 -5.984977e+08
-3.659460e+10 -6.262735e+08 -3.992458e+08
-3.630562e+10 4.916482e+08 -2.665870e+08
-2.280522e+10 3.009031e+10 -5.470717e+08
-3.057725e+10 -1.431938e+10 -2.216141e+08
-3.464812e+09 -3.232178e+10 2.048955e+07
2.719732e+10 1.630819e+10 4.618452e+08
3.466861e+09 -3.231802e+10 -2.149526e+07
3.538250e+10 1.047064e+10 -2.192319e+08
-1.262973e+10 3.507877e+10 -4.609371e+08
1.132692e+10 3.457722e+10 1.086717e+08
-1.744387e+10 2.828789e+10 -3.109012e+08
-2.483704e+10 2.868177e+10 -6.928275e+08
-2.231180e+10 2.404310e+10 -4.137682e+08
-1.719027e+10 3.133598e+10 4.900041e+08
3.147038e+10 8.921692e+09 -4.067171e+08
9.961498e+09 3.116027e+10 -1.237132e+08
2.574372e+10 1.726710e+10 9.479171e+08
-1.118104e+10 3.108408e+10 -5.191115e+08
-1.727837e+10 -3.107861e+10 -1.467710e+08
1.727817e+10 -3.107693e+10 1.467677e+08
3.452994e+10 1.226884e+10 3.781670e+08
-1.487896e+10 3.454586e+10 8.692727e+08
1.272684e+10 3.557524e+10 1.255508e+07
-3.193982e+10 -1.215531e+10 3.607819e+08
-3.925957e+09 -3.080489e+10 -5.101648e+07
3.922567e+09 -3.080001e+10 5.169858e+07
-3.641097e+10 -6.936751e+09 2.186217e+07
2.546612e+10 1.696485e+10 1.210521e+08
-6.817121e+09 -3.607622e+10 3.687459e+08
6.814887e+09 -3.607486e+10 -3.692833e+08
-2.190147e+10 -2.438841e+10 3.388689e+08
2.189826e+10 -2.439325e+10 -3.440464e+08
3.719258e+10 -8.237502e+09 -1.348868e+08
6.674637e+09 3.767090e+10 7.143569e+07
-7.646506e+09 3.760823e+10 -3.429547e+08
4.062840e+10 6.587420e+09 1.231160e+09
-2.957274e+10 -9.955174e+09 1.171115e+09
-3.115654e+10 2.167096e+10 1.459172e+08
2.561383e+10 1.814576e+10 -2.703860e+07
-3.251622e+10 1.714993e+10 -4.950522e+08
3.642554e+10 -3.022603e+09 6.341025e+08
2.751828e+10 2.305834e+10 5.911700e+08
-1.370231e+09 3.554590e+10 1.024525e+08
2.340738e+10 2.696462e+10 -1.255119e+09
2.976012e+10 1.944431e+10 7.375068e+08
-9.417641e+09 -3.136124e+10 -4.162166e+08