# vtk DataFile Version 2.0
Electric current density generated by TTH
ASCII
DATASET UNSTRUCTURED_GRID
POINTS 5866 double
1.689423e-05 3.193985e-05 -1.961896e-22
-2.447438e-05 2.576816e-05 -7.738055e-07
-1.902918e-05 3.001473e-05 -7.738055e-07
-1.763454e-05 3.085477e-05 -7.738055e-07
-1.286554e-05 3.312811e-05 -7.738055e-07
-1.133477e-05 3.368259e-05 -7.738055e-07
-3.506261e-05 -5.765623e-06 -7.751593e-07
-3.085477e-05 1.763454e-05 -7.738055e-07
-2.686205e-05 2.326852e-05 -7.738055e-07
-2.607340e-05 -2.413840e-05 -7.756863e-07
-3.529937e-05 -4.116791e-06 -7.738055e-07
1.644862e-05 3.217160e-05 -1.961896e-22
-2.573830e-05 2.449834e-05 -7.751593e-07
-2.999016e-05 1.905832e-05 -7.751593e-07
-2.718289e-05 -2.289288e-05 -7.738055e-07
-4.607069e-06 3.523874e-05 -7.738055e-07
-2.826723e-06 3.541884e-05 -7.756863e-07
9.109481e-06 3.435135e-05 -7.737884e-07
1.085989e-05 3.386364e-05 -7.670543e-07
-7.241931e-08 3.453071e-05 1.470903e-08
-3.452838e-05 4.075786e-07 1.470901e-08
-1.937309e-05 2.858424e-05 1.470901e-08
1.599984e-05 3.239714e-05 -1.961896e-22
-3.192047e-05 1.317039e-05 1.470901e-08
7.976581e-06 3.363743e-05 2.487472e-07
-1.169567e-05 3.253186e-05 2.490916e-07
-2.587040e-05 -2.293104e-05 2.490916e-07
3.088046e-05 -1.764285e-05 7.662478e-07
3.088046e-05 1.764285e-05 7.662478e-07
-4.381490e-06 3.428780e-05 -2.373205e-07
-3.434540e-05 -3.904452e-06 -2.373205e-07
-3.006056e-05 1.706498e-05 -2.373205e-07
-2.422281e-05 -2.465981e-05 -2.373205e-07
1.554796e-05 3.261641e-05 -1.961896e-22
-2.826126e-05 1.990570e-05 -2.412157e-07
-3.380472e-05 -7.223315e-06 -2.412157e-07
-2.619369e-05 2.255720e-05 -2.412882e-07
-2.387829e-05 2.499528e-05 -2.412896e-07
2.372340e-05 2.651844e-05 -7.611162e-07
2.372340e-05 -2.651844e-05 -7.611162e-07
1.189908e-05 -3.243514e-05 1.699908e-07
-1.579154e-05 -3.116398e-05 -6.968087e-07
-1.123800e-05 -3.304297e-05 -6.758458e-07
3.509531e-05 6.077597e-06 7.482041e-07
1.509307e-05 3.282938e-05 -1.961896e-22
3.509531e-05 -6.077597e-06 7.482041e-07
1.667718e-05 -3.135574e-05 7.797556e-07
7.237421e-06 3.383430e-05 -3.253644e-07
-2.805915e-06 3.448587e-05 -3.256315e-07
-3.452154e-05 -2.326277e-06 -3.256315e-07
-3.084170e-05 1.568241e-05 -3.256315e-07
-1.708831e-05 3.008551e-05 -3.256315e-07
-1.094762e-05 3.282221e-05 -3.256315e-07
-2.535339e-05 -2.354472e-05 -3.256315e-07
1.903316e-05 3.015798e-05 7.297988e-07
1.463527e-05 3.303601e-05 -1.961896e-22
1.903316e-05 -3.015798e-05 7.297988e-07
-5.331309e-06 3.414179e-05 1.980805e-07
-3.421587e-05 -4.883422e-06 2.239846e-07
-2.955738e-05 1.791466e-05 2.239846e-07
-2.350489e-05 -2.533739e-05 2.184027e-07
-3.357815e-05 -8.158803e-06 1.965705e-07
-2.767278e-05 2.070651e-05 2.224166e-07
-2.553009e-05 2.329713e-05 2.223875e-07
-2.316450e-05 2.564105e-05 1.965420e-07
-6.142805e-06 3.406190e-05 -3.504250e-07
1.417464e-05 3.323626e-05 -1.961896e-22
-2.295542e-05 -2.590359e-05 -3.504250e-07
-3.414400e-05 -5.668738e-06 -3.504250e-07
-2.918319e-05 1.860883e-05 -3.504250e-07
-3.343196e-05 -8.959111e-06 -3.508570e-07
-2.723743e-05 2.135612e-05 -3.508570e-07
-2.503379e-05 2.390128e-05 -3.508649e-07
-2.259330e-05 2.622031e-05 -3.508651e-07
-2.656084e-05 -2.226105e-05 -4.300983e-07
-1.262291e-05 3.227530e-05 -4.300983e-07
9.334718e-06 -3.392872e-05 -7.882741e-07
1.371128e-05 3.343008e-05 -1.961896e-22
1.668981e-05 3.135516e-05 7.784611e-07
1.590679e-05 3.182301e-05 7.624740e-07
1.504650e-05 -3.110435e-05 -1.859436e-07
-9.171707e-06 -3.374632e-05 7.149541e-07
7.284854e-06 -3.420612e-05 7.163421e-07
3.363954e-05 7.830467e-06 1.145476e-07
3.363954e-05 -7.830467e-06 1.145476e-07
3.578840e-05 -1.004042e-06 6.480267e-07
3.542430e-05 -1.859356e-06 7.884252e-07
3.578840e-05 1.004042e-06 6.480267e-07
1.324526e-05 3.361744e-05 -1.961896e-22
3.542430e-05 1.859356e-06 7.884252e-07
8.964819e-06 3.349133e-05 -4.520511e-07
3.470311e-05 -7.274801e-06 -7.910703e-07
3.470311e-05 7.274801e-06 -7.910703e-07
3.206137e-05 1.282512e-05 -3.385179e-08
3.206137e-05 -1.282512e-05 -3.385179e-08
3.033840e-05 1.660399e-05 -2.895950e-07
3.033840e-05 -1.660399e-05 -2.895950e-07
2.175327e-05 2.683004e-05 1.260648e-07
2.175327e-05 -2.683004e-05 1.260648e-07
1.277669e-05 3.379831e-05 -1.961896e-22
2.859866e-05 1.944635e-05 -2.870810e-07
2.859866e-05 -1.944635e-05 -2.870810e-07
-5.192176e-07 -3.497615e-05 7.196844e-07
1.219933e-05 -3.341703e-05 -7.634099e-07
1.555493e-05 -3.204358e-05 7.475093e-07
1.658450e-05 3.032830e-05 -2.373490e-07
1.659769e-05 -3.032320e-05 -2.432355e-07
2.319404e-05 2.559296e-05 1.173621e-07
2.319404e-05 -2.559296e-05 1.173621e-07
3.396246e-05 -1.098290e-05 -7.142836e-07
1.230564e-05 3.397264e-05 -1.961896e-22
3.396246e-05 1.098290e-05 -7.142836e-07
-3.730575e-06 3.445124e-05 4.249006e-07
-2.474849e-05 -2.425575e-05 4.254424e-07
-3.045878e-05 1.652477e-05 4.249006e-07
-3.449977e-05 -3.251329e-06 4.249006e-07
-3.400536e-05 -6.617476e-06 4.095316e-07
-2.868348e-05 1.942713e-05 4.095316e-07
-2.666005e-05 2.212225e-05 4.094505e-07
-2.438470e-05 2.460769e-05 4.094490e-07
3.450254e-05 2.037512e-06 2.241181e-07
1.183222e-05 3.414042e-05 -1.961896e-22
3.450254e-05 -2.037512e-06 2.241181e-07
1.697519e-05 3.128088e-05 -7.581897e-07
1.698421e-05 -3.124554e-05 -7.667849e-07
2.761863e-05 -2.073697e-05 -1.013727e-07
2.761863e-05 2.073697e-05 -1.013727e-07
3.196582e-05 -1.565251e-05 -7.573987e-07
3.196582e-05 1.565251e-05 -7.573987e-07
1.749430e-05 -3.103679e-05 7.442921e-07
1.337615e-05 -3.298170e-05 -7.578858e-07
3.408935e-05 -1.038747e-05 7.405952e-07
1.135651e-05 3.430159e-05 -1.961896e-22
3.408935e-05 1.038747e-05 7.405952e-07
1.135141e-05 3.263125e-05 1.717351e-07
2.418768e-05 -2.476951e-05 -3.684166e-07
2.418768e-05 2.476951e-05 -3.684166e-07
2.467534e-06 -3.445534e-05 -1.433284e-07
4.258835e-06 -3.427933e-05 -1.393986e-07
-6.140819e-06 -3.399336e-05 -1.432778e-07
-4.378742e-06 -3.426492e-05 -1.432624e-07
-1.111599e-05 -3.383982e-05 -7.477695e-07
2.072951e-05 -2.772313e-05 -3.602698e-07
1.087861e-05 3.445614e-05 -1.961896e-22
2.072951e-05 2.772313e-05 -3.602698e-07
2.075760e-05 2.855805e-05 8.005601e-07
2.075760e-05 -2.855805e-05 8.005601e-07
1.749572e-05 3.102753e-05 7.471785e-07
2.663407e-05 -2.219766e-05 4.535805e-07
2.663407e-05 2.219766e-05 4.535805e-07
1.265795e-05 3.329333e-05 7.479260e-07
2.570448e-05 2.455412e-05 -7.713750e-07
2.570448e-05 -2.455412e-05 -7.713750e-07
3.266861e-05 -1.119781e-05 7.796590e-08
1.039860e-05 3.460402e-05 -1.961896e-22
3.266861e-05 1.119781e-05 7.796590e-08
3.550350e-05 2.811924e-06 -7.493393e-07
3.550350e-05 -2.811924e-06 -7.493393e-07
3.235873e-05 -1.432290e-05 -7.990977e-07
3.235873e-05 1.432290e-05 -7.990977e-07
2.300034e-05 2.603966e-05 -5.432728e-07
2.300034e-05 -2.603966e-05 -5.432728e-07
2.503233e-05 -2.487224e-05 7.998166e-07
2.503233e-05 2.487224e-05 7.998166e-07
2.797173e-05 2.207552e-05 -7.419573e-07
9.916587e-06 3.474522e-05 -1.961896e-22
2.797173e-05 -2.207552e-05 -7.419573e-07
1.397406e-05 3.281538e-05 -7.275049e-07
-3.503996e-05 6.392396e-06 -7.479705e-07
-3.025752e-05 -1.879212e-05 -7.479705e-07
-3.194009e-05 -1.576363e-05 -7.479705e-07
-3.549121e-05 2.934969e-06 -7.502111e-07
-3.384151e-05 1.115805e-05 -7.419372e-07
-1.444707e-05 3.259170e-05 -7.349406e-07
-2.195078e-05 2.795277e-05 -7.730448e-07
-3.332290e-05 -1.256281e-05 -7.502111e-07
9.432656e-06 3.487971e-05 -1.961896e-22
-9.776584e-06 3.428346e-05 -7.349406e-07
-2.831114e-05 -2.166470e-05 -7.352875e-07
-3.425495e-05 9.759647e-06 -7.480207e-07
3.983932e-06 3.538882e-05 -7.502111e-07
2.518378e-06 3.554445e-05 -7.419372e-07
-1.024517e-05 3.298313e-05 1.057730e-07
2.190568e-05 2.820823e-05 -7.033044e-07
2.190568e-05 -2.820823e-05 -7.033044e-07
3.454575e-05 9.799506e-07 -2.135638e-07
3.454575e-05 -9.799506e-07 -2.135638e-07
8.946903e-06 3.500746e-05 -1.961896e-22
-2.196707e-05 2.664566e-05 6.409406e-08
-1.801049e-05 -2.947690e-05 1.438204e-07
1.843337e-05 -3.051864e-05 -7.334779e-07
1.843337e-05 3.051864e-05 -7.334779e-07
-1.288462e-05 -3.205803e-05 1.768085e-07
1.085304e-05 -3.399982e-05 -7.163811e-07
3.119424e-05 -1.717091e-05 -7.518740e-07
3.119424e-05 1.717091e-05 -7.518740e-07
3.453843e-05 8.835591e-06 7.347361e-07
3.453843e-05 -8.835591e-06 7.347361e-07
8.459421e-06 3.512844e-05 -1.961896e-22
1.121007e-05 3.384403e-05 7.340426e-07
9.725977e-06 3.432991e-05 7.207861e-07
-2.288440e-05 2.726740e-05 7.554800e-07
-3.426187e-05 -9.660836e-06 7.554787e-07
-6.773543e-06 3.494769e-05 7.554072e-07
1.348441e-05 3.304718e-05 7.151867e-07
2.059029e-05 -2.917248e-05 -7.075949e-07
2.059029e-05 2.917248e-05 -7.075949e-07
2.957462e-05 -1.988676e-05 7.396775e-07
2.957462e-05 1.988676e-05 7.396775e-07
7.970304e-06 3.524264e-05 -1.961896e-22
-1.862735e-05 -3.044456e-05 7.158651e-07
-1.715678e-05 3.120408e-05 7.512071e-07
-1.079848e-05 3.393291e-05 7.512071e-07
6.965677e-06 3.492188e-05 7.511612e-07
-5.337991e-07 3.565443e-05 7.313222e-07
-2.768959e-05 -2.240068e-05 7.488130e-07
-1.962411e-05 2.977277e-05 7.313222e-07
-1.351390e-05 3.300798e-05 7.273169e-07
-3.565841e-05 -3.813638e-08 7.313222e-07
-3.278506e-05 1.402368e-05 7.313222e-07
7.479647e-06 3.535002e-05 -1.961896e-22
-2.234985e-05 -2.632564e-05 6.619965e-08
3.453953e-05 -9.031244e-06 -7.109092e-07
3.453953e-05 9.031244e-06 -7.109092e-07
-2.152188e-05 -2.852382e-05 -6.935912e-07
-1.878290e-05 -2.897686e-05 4.563308e-08
2.892039e-05 2.087495e-05 -7.273153e-07
2.892039e-05 -2.087495e-05 -7.273153e-07
-2.324148e-06 -3.445241e-05 9.953614e-09
1.168186e-05 3.370093e-05 -7.268903e-07
1.445208e-05 -3.158496e-05 -5.336501e-07
6.987544e-06 3.545058e-05 -1.961896e-22
-1.982088e-06 3.561014e-05 -7.282312e-07
-2.642792e-05 2.396667e-05 -7.228190e-07
-1.840201e-05 3.055121e-05 -7.282312e-07
-3.219449e-05 1.534683e-05 -7.282312e-07
-3.056389e-05 1.840339e-05 -7.228195e-07
-3.533775e-05 -4.940440e-06 -7.206033e-07
-2.433949e-05 -2.608496e-05 -7.228195e-07
-2.675144e-05 -2.360485e-05 -7.228697e-07
-1.214538e-05 3.354576e-05 -7.228697e-07
-2.863132e-05 2.128576e-05 -7.228190e-07
6.494092e-06 3.554428e-05 -1.961896e-22
-2.397448e-05 2.642083e-05 -7.228190e-07
[...]
POINT_DATA 5866
VECTORS 10.000GHz_fone_imag double
3.570285e+10 -1.767809e+10 7.786606e+08
3.203341e+10 2.914552e+10 -7.216926e+08
3.500033e+10 2.277118e+10 3.502065e+08
3.794570e+10 2.222613e+10 2.257398e+08
3.884061e+10 1.539449e+10 1.215139e+08
3.991390e+10 1.346140e+10 -1.099489e+07
-6.874250e+09 4.217548e+10 2.466420e+08
2.162069e+10 3.781438e+10 -1.137791e+08
2.792917e+10 3.200401e+10 -5.166163e+08
-2.787147e+10 3.108480e+10 -9.525017e+08
-4.985209e+09 4.106680e+10 8.116842e+08
3.464756e+10 -1.845456e+10 5.949879e+08
3.029567e+10 3.235819e+10 1.340268e+08
2.275005e+10 3.517432e+10 -5.547663e+08
-2.765750e+10 3.214484e+10 -3.056772e+08
4.373486e+10 5.390260e+09 3.003732e+08
4.259993e+10 2.890102e+09 -3.097982e+08
4.140684e+10 -1.082183e+10 -7.161215e+08
3.997589e+10 -1.266800e+10 -2.776703e+08
4.652300e+10 -1.239632e+09 5.862075e+08
1.994901e+09 4.684856e+10 2.998238e+08
3.804208e+10 2.595575e+10 -1.295781e+08
3.551512e+10 -1.806538e+10 -3.002060e+08
1.809547e+10 4.660566e+10 -4.922705e+08
4.437393e+10 -1.103115e+10 9.298900e+08
4.337108e+10 1.578904e+10 2.896790e+08
-3.091144e+10 3.518081e+10 1.948410e+08
-2.071476e+10 -3.620002e+10 -1.496680e+09
2.070563e+10 -3.619940e+10 1.498854e+09
4.570110e+10 4.704055e+09 2.118042e+08
-5.013317e+09 4.870823e+10 1.959605e+09
2.344041e+10 4.264184e+10 -4.291196e+08
-3.336124e+10 3.363105e+10 8.245143e+08
3.752572e+10 -1.809675e+10 1.923344e+08
2.650445e+10 3.905325e+10 -1.831700e+09
-9.187422e+09 4.617081e+10 1.723187e+09
3.040612e+10 3.642780e+10 -1.896924e+09
3.433500e+10 3.375371e+10 -5.536219e+08
3.044639e+10 -2.774379e+10 1.029936e+09
-3.044435e+10 -2.774175e+10 -1.031647e+09
-4.290212e+10 -1.566960e+10 -9.466091e+08
-3.976665e+10 2.068408e+10 -1.247531e+08
-4.216921e+10 1.394540e+10 -3.439718e+08
6.585728e+09 -4.115278e+10 3.764317e+08
3.572284e+10 -1.598445e+10 2.972906e+08
-6.585144e+09 -4.115119e+10 -3.766592e+08
-3.897244e+10 -2.045224e+10 -1.255967e+09
4.491103e+10 -9.707227e+09 -7.470587e+08
4.490777e+10 2.774994e+09 -9.074579e+08
-2.080286e+09 4.617694e+10 2.558598e+08
2.002813e+10 4.150162e+10 -9.306070e+07
3.966755e+10 2.260073e+10 2.344954e+08
4.384349e+10 1.482740e+10 7.893197e+08
-2.936961e+10 3.469569e+10 -1.180883e+09
3.475407e+10 -2.264992e+10 4.984671e+08
3.651220e+10 -1.618264e+10 6.522496e+08
-3.480676e+10 -2.272126e+10 -5.101334e+08
4.481986e+10 6.595020e+09 -3.097675e+08
-6.342680e+09 4.432688e+10 2.514716e+08
2.285239e+10 3.943708e+10 2.229643e+08
-3.412590e+10 2.977920e+10 -1.014250e+09
-1.085587e+10 4.559607e+10 -4.082900e+08
2.651034e+10 3.692046e+10 7.648324e+07
3.096434e+10 3.463763e+10 1.769796e+08
3.325166e+10 3.085871e+10 5.198057e+08
4.499749e+10 7.345135e+09 -1.869661e+08
3.789216e+10 -1.545149e+10 1.433430e+09
-3.318346e+10 3.105257e+10 9.965818e+08
-6.806856e+09 4.538102e+10 -6.325027e+08
2.372697e+10 3.896229e+10 3.859812e+08
-1.179677e+10 4.337624e+10 -2.170424e+08
2.731129e+10 3.628280e+10 3.807460e+08
3.141678e+10 3.447564e+10 3.548436e+08
3.445379e+10 3.017576e+10 4.288704e+08
-3.042237e+10 3.530670e+10 -3.846427e+08
4.440668e+10 1.638509e+10 4.331406e+08
-4.178497e+10 -1.198268e+10 -2.132949e+08
3.635118e+10 -1.596168e+10 -4.294885e+08
3.746098e+10 -2.075802e+10 -4.108405e+08
3.778107e+10 -1.867029e+10 -6.894081e+08
-4.316368e+10 -1.868232e+10 -1.270976e+09
-4.406165e+10 1.271797e+10 -3.642300e+08
-4.537105e+10 -9.780808e+09 3.501750e+07
1.078399e+10 -4.569615e+10 4.551597e+08
-1.078313e+10 -4.569126e+10 -4.552882e+08
-1.579113e+09 -4.062861e+10 -8.775619e+08
-1.848145e+09 -4.255863e+10 5.073564e+08
1.088549e+09 -4.151706e+10 1.118595e+09
3.729754e+10 -1.348746e+10 -6.183683e+08
2.124975e+09 -4.255738e+10 -7.240318e+08
4.528998e+10 -1.187789e+10 -1.014630e+07
-9.686253e+09 -4.122871e+10 -2.082116e+09
9.685468e+09 -4.122682e+10 2.081809e+09
1.682772e+10 -4.340766e+10 -6.936174e+08
-1.682784e+10 -4.340817e+10 6.924327e+08
2.191222e+10 -4.041094e+10 -3.359521e+08
-2.191321e+10 -4.041196e+10 3.353576e+08
3.498898e+10 -2.915143e+10 -7.279434e+08
-3.498673e+10 -2.915203e+10 7.305022e+08
3.810141e+10 -1.443395e+10 -8.706309e+08
2.586688e+10 -3.869276e+10 -6.038156e+08
-2.586582e+10 -3.868782e+10 6.023548e+08
-4.752308e+10 4.722482e+07 4.005288e+08
-3.987649e+10 -1.472337e+10 -1.056447e+09
-3.886372e+10 -1.707244e+10 7.393421e+08
4.299849e+10 -2.261659e+10 6.551445e+08
-4.099874e+10 -2.134433e+10 9.368685e+08
3.537609e+10 -3.170055e+10 4.104471e+08
-3.537688e+10 -3.170111e+10 -4.094148e+08
-1.295744e+10 -4.013677e+10 -3.070520e+08
3.727657e+10 -1.317185e+10 4.054414e+08
1.295778e+10 -4.013828e+10 3.061789e+08
4.591343e+10 4.511619e+09 -2.315207e+08
-3.258015e+10 3.457114e+10 -1.190197e+09
2.226434e+10 4.188981e+10 4.932272e+08
-5.255113e+09 4.628117e+10 -4.766164e+07
-9.605046e+09 4.480388e+10 -6.070963e+08
2.619515e+10 3.710171e+10 4.680254e+08
3.007217e+10 3.472861e+10 6.254305e+08
3.449492e+10 3.429352e+10 4.677622e+08
2.514137e+09 -4.680994e+10 5.649088e+08
3.695316e+10 -1.298848e+10 2.714719e+08
-2.303862e+09 -4.679651e+10 -5.738458e+08
3.608313e+10 -2.002841e+10 1.249112e+09
-3.683138e+10 -2.110067e+10 -1.054966e+09
-2.840729e+10 -3.726222e+10 1.525363e+08
2.840718e+10 -3.726193e+10 -1.525114e+08
-1.927995e+10 -3.748533e+10 8.561560e+08
1.928081e+10 -3.748297e+10 -8.552813e+08
-3.738008e+10 -2.084484e+10 3.914772e+07
-4.198782e+10 -1.567518e+10 6.436253e+08
-1.205618e+10 -3.940774e+10 4.887339e+08
3.881746e+10 -1.221804e+10 -1.557996e+08
1.206434e+10 -3.942489e+10 -4.861895e+08
4.341344e+10 -1.599848e+10 -8.964187e+08
-3.234595e+10 -3.236995e+10 8.247470e+07
3.233455e+10 -3.236853e+10 -6.358015e+07
-4.668963e+10 -2.735804e+09 -3.295416e+08
-4.521601e+10 -5.515462e+09 -4.889726e+07
-4.471911e+10 8.493587e+09 -1.018601e+09
-4.628016e+10 5.362889e+09 -2.093460e+08
-3.906153e+10 1.207390e+10 7.684817e+08
-3.775622e+10 -2.656813e+10 5.164705e+08
3.874010e+10 -1.177859e+10 -5.767326e+08
3.776458e+10 -2.657003e+10 -5.200694e+08
3.503278e+10 -2.613230e+10 1.908601e+08
-3.503453e+10 -2.614909e+10 -1.896378e+08
3.742393e+10 -2.101021e+10 2.014471e+08
-2.935906e+10 -3.538098e+10 7.847601e+08
2.935344e+10 -3.538016e+10 -7.894039e+08
3.800033e+10 -1.447035e+10 -3.971161e+08
2.861281e+10 -2.978383e+10 9.012270e+08
-2.877059e+10 -3.002244e+10 -8.862466e+08
-1.630984e+10 -4.382718e+10 -1.374154e+08
3.848334e+10 -1.196898e+10 1.099405e+09
1.631007e+10 -4.382782e+10 1.367652e+08
3.307610e+09 -4.216325e+10 -3.370520e+07
-3.233405e+09 -4.272457e+10 1.306210e+07
-1.651512e+10 -3.884405e+10 1.514944e+09
1.651492e+10 -3.884321e+10 -1.514973e+09
3.352633e+10 -3.013408e+10 4.779562e+08
-3.352914e+10 -3.013559e+10 -4.784676e+08
-3.092645e+10 -3.044756e+10 2.044652e+08
3.099043e+10 -3.051936e+10 -1.993734e+08
2.571199e+10 -3.228640e+10 -3.703631e+08
3.753068e+10 -1.093848e+10 1.706921e+08
-2.571338e+10 -3.228539e+10 3.697929e+08
3.778592e+10 -1.553394e+10 2.902128e+08
7.444270e+09 4.145063e+10 1.129535e+09
-2.219450e+10 3.588424e+10 -1.117445e+09
-1.907052e+10 3.728522e+10 -5.490737e+08
3.523782e+09 4.202658e+10 1.105217e+09
1.315074e+10 3.946756e+10 -6.671160e+08
3.806817e+10 1.619012e+10 2.376119e+08
3.256449e+10 2.628938e+10 -3.885731e+08
-1.486752e+10 3.926589e+10 -1.002045e+09
3.805639e+10 -1.109587e+10 -3.260023e+08
4.187168e+10 1.196463e+10 -1.051852e+09
-2.547531e+10 3.253498e+10 -6.439434e+08
1.176046e+10 3.938347e+10 7.219061e+08
4.347286e+10 -4.457507e+09 -1.124349e+09
4.201380e+10 -2.617673e+09 2.804960e+08
4.737310e+10 1.422822e+10 4.427280e+08
3.271801e+10 -2.514847e+10 -6.489452e+07
-3.271744e+10 -2.514955e+10 6.568636e+07
1.341156e+09 -4.577427e+10 4.161580e+08
-1.856930e+09 -4.620101e+10 5.547543e+08
3.987684e+10 -1.017883e+10 -5.583426e+08
3.737447e+10 3.009169e+10 6.020957e+08
-3.989507e+10 2.551161e+10 -7.065261e+08
-3.540950e+10 -2.181529e+10 7.120863e+08
3.569602e+10 -2.184220e+10 -5.881484e+08
-4.471452e+10 1.576080e+10 -3.789227e+08
-3.791684e+10 -1.253479e+10 -2.312032e+08
-2.003673e+10 -3.710349e+10 -1.767276e+09
2.003638e+10 -3.710206e+10 1.767419e+09
1.066567e+10 -4.078676e+10 6.427985e+08
-1.066688e+10 -4.078892e+10 -6.422653e+08
3.981748e+10 -8.885523e+09 -7.222920e+08
3.974702e+10 -1.107461e+10 -1.058706e+09
3.928886e+10 -1.077296e+10 3.825097e+08
3.257581e+10 2.765580e+10 6.763599e+08
-1.219360e+10 4.137466e+10 -7.926916e+08
4.018447e+10 8.609489e+09 -5.919483e+07
3.844938e+10 -1.544025e+10 9.747943e+08
-3.338636e+10 -2.407208e+10 1.220990e+09
3.338127e+10 -2.406808e+10 -1.221327e+09
-2.267294e+10 -3.468564e+10 3.838681e+08
2.267248e+10 -3.468602e+10 -3.835118e+08
3.945840e+10 -9.987467e+09 -1.144947e+09
-3.553258e+10 2.188632e+10 -2.171862e+07
3.586898e+10 2.029374e+10 1.987097e+08
4.099311e+10 1.166912e+10 1.120726e+09
4.199365e+10 -7.750062e+09 -7.518577e+08
4.156602e+10 2.807151e+08 4.531540e+08
-2.679031e+10 3.286586e+10 7.792319e+08
3.683537e+10 2.220735e+10 3.440284e+08
3.948847e+10 1.570871e+10 -4.409260e+07
6.999097e+08 4.193849e+10 7.802413e+08
1.593776e+10 3.832231e+10 -3.378612e+08
3.883621e+10 -8.048769e+09 -3.361698e+07
-3.672939e+10 2.951903e+10 -6.466552e+08
-1.028293e+10 -3.947561e+10 3.981269e+08
1.028259e+10 -3.947508e+10 -3.981408e+08
-3.426821e+10 2.471967e+10 8.910666e+08
-3.895067e+10 2.533925e+10 -5.077799e+07
2.599131e+10 -3.492682e+10 -1.395331e+08
-2.598884e+10 -3.492567e+10 1.399272e+08
-4.784962e+10 3.401985e+09 -1.217297e+09
3.934953e+10 -1.443989e+10 -2.517599e+08
-4.274712e+10 -2.025621e+10 -8.050404e+08
3.991107e+10 -7.444868e+09 -6.740778e+08
4.226361e+10 3.278078e+09 -1.581437e+07
2.740064e+10 3.021170e+10 1.421887e+08
3.507283e+10 2.073709e+10 -3.359863e+08
1.895914e+10 3.710627e+10 -1.532480e+08
2.099049e+10 3.503895e+10 5.250450e+08
-6.196770e+09 4.085638e+10 4.096539e+08
-3.079288e+10 2.867722e+10 -1.043192e+08
-2.752774e+10 2.991649e+10 2.758509e+08
3.812185e+10 1.388230e+10 -1.206717e+08
2.428191e+10 3.291415e+10 4.700925e+08
3.893391e+10 -7.606464e+09 -6.529184e+08
3.016980e+10 2.769074e+10 5.184917e+08
-9.504707e+09 3.967284e+10 -1.518841e+08
-2.781751e+09 4.159662e+10 1.056396e+08
4.040392e+10 6.489030e+09 -2.542469e+08
4.013003e+10 -9.139874e+09 6.084708e+08
-4.135483e+10 2.644439e+09 -1.270847e+08
-2.232612e+10 -3.811118e+10 -1.333761e+09
2.233003e+10 -3.810934e+10 1.338974e+09
3.665558e+09 -4.686334e+10 -6.974241e+08
-2.809197e+09 -4.589384e+10 -2.153208e+08
3.950762e+10 -6.028951e+09 1.894298e+08
4.238138e+10 -6.249574e+09 1.056853e+09
4.247635e+10 3.980426e+08 -1.606810e+09
4.060181e+10 9.138925e+09 2.124602e+09
3.543804e+10 2.442668e+10 1.674810e+09
1.799460e+09 4.215058e+10 -1.046884e+09
3.822096e+10 1.856619e+10 -1.371007e+09
1.480677e+10 4.077805e+10 1.324565e+09
-1.335360e+10 3.908314e+10 6.147322e+07
-4.887439e+10 -6.808914e+07 2.995438e+08
-4.195737e+10 3.955744e+07 -8.433144e+08
3.961424e+10 -6.904814e+09 -1.872675e+07
2.514527e+10 -3.706379e+10 -5.737280e+08
-2.514562e+10 -3.706520e+10 5.738358e+08
-3.535096e+10 -1.977289e+10 -6.095723e+07
3.680706e+10 -1.908976e+10 3.224568e+08
3.234902e+10 -3.335362e+10 2.720424e+08
-3.220064e+10 -3.336399e+10 -1.080329e+07
-2.509187e+09 -4.117356e+10 -2.401172e+08
2.356802e+09 -4.097789e+10 -1.029835e+08
2.988517e+10 3.113848e+10 -1.943048e+09
2.636508e+10 3.282224e+10 4.677493e+07
3.982745e+10 -4.911330e+09 5.342269e+08
-4.120521e+10 -8.112823e+09 9.700933e+08
-4.761062e+10 -8.476901e+09 -7.486919e+08
-4.680021e+10 -6.197423e+08 -2.151399e+08
-7.511873e+09 4.170893e+10 -7.685505e+08
2.340424e+10 3.572907e+10 5.777399e+08
-4.767824e+10 1.153617e+10 -5.026315e+08
-2.268117e+10 3.770158e+10 7.063764e+08
3.236664e+09 4.415153e+10 -7.358627e+08
-1.866321e+10 4.080075e+10 6.335866e+08
1.148175e+10 4.319933e+10 -7.960729e+08
3.886731e+10 -4.850585e+09 -3.047314e+08
7.330000e+09 4.348412e+10 -7.320753e+08
-4.116052e+10 1.035718e+10 -1.125265e+09
-4.461622e+10 8.094480e+09 -6.698483e+08
-4.536618e+10 -5.833955e+09 3.914468e+08
-4.506253e+10 -3.250209e+09 -1.626491e+08
-2.432827e+10 3.417194e+10 -7.264843e+07
1.319804e+10 3.925650e+10 -4.077239e+08
4.087524e+10 -1.341289e+09 2.433630e+08
4.901383e+10 -4.778620e+09 -2.464823e+08
-2.604146e+10 3.966321e+10 4.697695e+08
4.020822e+10 -4.511771e+09 -1.442986e+09
1.465942e+10 4.412859e+10 -3.644839e+08
9.716928e+09 4.654257e+10 -4.569136e+08
-2.243260e+10 4.126544e+10 4.523976e+08
-1.693833e+10 4.376357e+10 5.995641e+08
5.185051e+09 4.701021e+10 -4.434058e+08
2.164488e+10 -3.490329e+10 -2.713924e+08
-2.164464e+10 -3.490345e+10 2.711467e+08
-2.855997e+10 -3.593574e+10 -4.750901e+08
2.855871e+10 -3.593498e+10 4.754246e+08
-3.129827e+10 2.717265e+10 2.662024e+07
3.890679e+10 -4.116392e+09 -1.186962e+09
-4.165910e+10 1.753502e+09 7.667576e+08
3.506048e+10 -2.328049e+10 1.592631e+08
-3.507308e+10 -2.329415e+10 -1.605353e+08
-4.269742e+10 -2.119962e+10 2.934330e+08
2.599918e+10 -3.758236e+10 1.922316e+08
-2.600084e+10 -3.758248e+10 -1.926562e+08
2.113949e+10 -4.223735e+10 -6.612871e+08
-2.113938e+10 -4.223725e+10 6.614060e+08
1.122241e+10 4.354751e+10 -7.488875e+08
-2.683131e+10 3.591505e+10 3.858723e+08
3.959966e+10 -3.148486e+09 2.099391e+08
-2.265235e+10 3.873837e+10 7.362420e+08
-1.934880e+10 4.115835e+10 4.373204e+08
6.872185e+09 4.432191e+10 -7.442031e+08
-4.063207e+10 -7.245994e+09 9.289973e+07
-4.112421e+10 -6.923853e+08 7.099582e+07
-4.285762e+10 2.269829e+09 -1.150580e+09
-2.196206e+10 -3.571486e+10 5.871485e+07
2.196681e+10 -3.571732e+10 -5.747339e+07
-3.974853e+10 9.410475e+09 1.818401e+07
-4.210130e+10 1.756953e+09 -2.448739e+08
3.996724e+10 -1.959471e+09 5.911257e+08
-3.802020e+10 2.841576e+10 -3.231776e+08
4.272028e+10 2.865954e+09 -3.528797e+08
1.920049e+10 3.715214e+10 5.052746e+08
-2.972086e+10 3.056495e+10 1.703200e+08
-2.853249e+09 4.139473e+10 -2.743894e+08
-9.175742e+09 -4.196073e+10 -3.391828e+08
9.172780e+09 -4.196040e+10 3.406111e+08
4.602734e+10 -7.982778e+09 -1.002432e+09
4.155231e+10 2.133004e+10 4.440104e+08
4.671670e+10 1.040705e+10 -7.677588e+08
3.931057e+10 -2.434301e+09 6.524090e+08
-1.526858e+10 4.728942e+10 -1.099799e+08
-3.583073e+10 2.876580e+10 -9.763562e+08
4.839571e+10 2.984008e+08 1.729067e+09
3.962149e+10 2.733533e+10 1.125498e+09
1.711466e+10 4.356722e+10 7.088431e+08
1.057843e+09 4.603279e+10 7.382252e+08
-3.238661e+10 -2.659684e+10 -2.989899e+08
3.238427e+10 -2.659536e+10 2.991136e+08
-4.209442e+10 -1.774740e+10 -1.112750e+09
-4.375633e+10 1.270530e+10 8.496931e+08
4.005599e+10 -1.885429e+09 1.066412e+07
-4.584042e+10 -1.095134e+10 -1.527601e+09
-1.177165e+10 -4.349688e+10 1.895698e+08
1.177062e+10 -4.349899e+10 -1.883960e+08
-3.961098e+10 1.904356e+10 2.412354e+08
-3.849849e+10 1.880309e+10 -2.016863e+08
3.008598e+10 -2.827107e+10 -7.452029e+08
-3.008482e+10 -2.827587e+10 7.495195e+08
-3.070597e+10 2.859513e+10 -2.703448e+08
-4.047202e+10 1.443187e+10 1.806829e+08
3.663218e+10 2.662873e+10 -7.215273e+08
3.940369e+10 -2.163444e+09 -8.129512e+08
1.723007e+10 4.155997e+10 8.841623e+08
7.937383e+08 4.581482e+10 3.377849e+08
4.597118e+10 3.727077e+08 8.328221e+08
-1.469222e+10 -4.192117e+10 -2.961628e+08
1.469173e+10 -4.192126e+10 2.956785e+08
3.244673e+10 2.527372e+10 1.096768e+07
-4.378985e+10 1.312931e+10 9.327391e+08
6.753919e+09 -3.928346e+10 1.267441e+08
-6.752872e+09 -3.928456e+10 -1.257846e+08
-4.663170e+10 -1.078842e+10 -1.134841e+09
4.005227e+10 -2.222057e+08 -2.877496e+08
-1.140625e+10 3.872846e+10 3.750610e+08
2.534444e+10 -3.869957e+10 1.424172e+09
-2.533836e+10 -3.869780e+10 -1.417648e+09
1.834156e+10 -4.214755e+10 2.937558e+08
-1.834147e+10 -4.214953e+10 -2.949110e+08
-4.287018e+10 1.609045e+10 -2.811846e+08
-3.785492e+10 -1.731395e+10 2.174668e+08
-4.422453e+10 4.944016e+09 8.110714e+08
2.359821e+09 -4.066216e+10 -9.262936e+08
-2.933657e+09 -4.099870e+10 2.011154e+08
3.939953e+10 -2.410807e+08 4.069121e+08
3.763780e+10 1.842809e+10 -5.925672e+08
7.388571e+09 -4.586529e+10 2.097237e+08
-7.383265e+09 -4.587459e+10 -2.193005e+08
-3.607127e+10 2.131815e+10 -1.577475e+08
3.981512e+10 1.132484e+10 -2.450746e+08
1.614309e+10 -3.977649e+10 -1.239684e+08
-1.614328e+10 -3.977260e+10 1.244218e+08
4.209787e+10 -6.927420e+09 -8.024400e+08
2.046592e+10 -3.785639e+10 -4.445992e+08
-2.046371e+10 -3.786491e+10 4.426287e+08
4.022435e+10 7.051625e+08 -1.355231e+08
-3.658187e+10 2.914812e+10 3.976286e+08
-1.239367e+10 -3.832082e+10 -5.232677e+07
1.239485e+10 -3.832128e+10 5.226024e+07
4.470384e+10 -6.629680e+09 -1.969294e+07
-1.543100e+10 4.432411e+10 -4.434537e+08
-4.568784e+09 -4.155151e+10 -1.398842e+08
4.775082e+09 -4.190250e+10 1.328324e+08
-4.315926e+10 1.677348e+09 1.068879e+09
-3.583401e+10 2.223459e+10 1.056488e+08
-4.262806e+10 -1.656097e+10 -4.029116e+07
3.882271e+10 1.175778e+09 -4.633605e+08
4.332463e+10 -1.987708e+10 2.522915e+08
-3.418173e+10 2.335509e+10 7.051015e+08
-4.271091e+10 4.089502e+09 -2.262367e+08
-3.744126e+10 2.709987e+10 3.150656e+08
-4.030421e+10 2.008970e+10 1.083602e+07
3.645838e+10 -2.431272e+10 -4.214275e+08
-3.644803e+10 -2.432076e+10 4.324848e+08
3.864941e+10 -2.335121e+10 -1.397167e+07
-3.824376e+10 -2.312102e+10 1.031728e+08
-2.769638e+10 -3.498433e+10 3.574525e+08
3.913936e+10 1.189506e+09 5.251799e+08
2.769624e+10 -3.498610e+10 -3.579925e+08
-4.723053e+10 -1.556024e+10 -9.155818e+08
4.248816e+10 -1.457118e+10 6.737308e+08
1.213180e+10 -4.390268e+10 1.286317e+08
-1.213155e+10 -4.390242e+10 -1.284711e+08
-3.134581e+10 -3.188450e+10 -1.495235e+09
3.135289e+10 -3.189617e+10 1.495513e+09
-1.912073e+10 -4.155060e+10 -2.559748e+09
1.912262e+10 -4.155064e+10 2.558297e+09
-4.223702e+10 1.845342e+10 -1.047671e+09
4.196792e+10 1.530040e+09 -3.338192e+07
3.732502e+10 -1.387240e+10 -7.239587e+08
-4.462292e+10 -1.861639e+10 -1.018084e+09
4.142887e+10 -2.312082e+10 1.646554e+09
-4.651681e+10 4.870680e+09 7.458826e+08
1.070798e+10 -3.736865e+10 -8.756237e+08
-1.070617e+10 -3.736677e+10 8.743044e+08
-1.855288e+10 -3.491904e+10 8.527432e+08
1.855145e+10 -3.491752e+10 -8.526575e+08
4.370075e+10 -1.835131e+10 -4.471765e+08
-3.899623e+10 2.307835e+10 -2.600191e+08
4.012711e+10 3.526336e+09 -1.553931e+09
4.797373e+10 -3.116185e+09 -1.072622e+08
1.550300e+10 4.329151e+10 3.517429e+08
-4.140544e+10 8.180934e+09 2.009830e+07
-4.335954e+10 8.622406e+09 2.528212e+07
-4.132108e+10 -5.786736e+09 -1.538289e+08
-4.336574e+10 -6.051956e+09 2.158738e+08
-4.161336e+10 -2.700637e+09 -5.007039e+08
-4.132318e+10 -2.531446e+09 1.072026e+09
-3.502728e+10 -2.052604e+10 1.160604e+09
3.557261e+10 -2.071274e+10 -1.006965e+09
4.045684e+10 4.628303e+09 -1.421680e+09
6.602898e+09 -4.596133e+10 2.925249e+08
-6.603029e+09 -4.596021e+10 -2.923759e+08
4.046303e+10 -1.643740e+10 1.066523e+09
-1.175815e+10 -4.337309e+10 -4.563766e+08
1.175631e+10 -4.336625e+10 4.581487e+08
-1.747389e+10 -3.731891e+10 -1.644656e+08
1.747469e+10 -3.731916e+10 1.647580e+08
4.374047e+10 -1.478315e+10 6.170036e+08
-3.986473e+10 6.458517e+09 -5.508926e+08
-4.003022e+10 -3.656236e+09 -6.071872e+08
3.974785e+10 3.756674e+09 6.560564e+08
-4.088589e+10 -3.343669e+09 1.168312e+09
-4.003274e+10 5.829217e+09 5.595585e+08
-1.602081e+10 -3.878679e+10 7.280065e+08
1.602010e+10 -3.878630e+10 -7.280519e+08
-4.328348e+10 -1.793995e+10 -1.960798e+08
-2.412946e+10 -3.133430e+10 2.798061e+08
2.413023e+10 -3.133358e+10 -2.789768e+08
-3.815447e+10 1.457100e+10 7.320595e+08
-3.496165e+10 -2.546618e+10 8.595235e+08
3.496092e+10 -2.546504e+10 -8.592884e+08
3.955076e+10 5.014497e+09 -4.771958e+07
3.032933e+10 2.916760e+10 -1.322711e+09
2.709850e+10 3.185462e+10 -8.168692e+08
-8.911193e+09 4.058663e+10 3.874950e+08
2.370802e+10 3.314890e+10 -8.423155e+08
2.810846e+10 -3.452906e+10 -1.176392e+09
-2.812271e+10 -3.452053e+10 1.191631e+09
9.623705e+09 -3.995535e+10 2.180100e+06
-9.622793e+09 -3.995346e+10 -3.138428e+06
-2.933025e+10 2.905800e+10 2.866489e+08
1.997470e+10 3.530422e+10 -6.471090e+08
3.988400e+10 4.456542e+09 -1.973638e+07
-4.447601e+09 4.232635e+10 1.008325e+09
4.074661e+10 4.815486e+09 8.523278e+08
4.135982e+10 1.645183e+09 5.534235e+07
-2.075160e+08 4.027047e+10 6.145590e+07
1.626356e+10 3.710798e+10 4.675940e+07
3.495441e+10 2.121753e+10 -1.973752e+08
3.827268e+10 1.445166e+10 1.024719e+09