# vtk DataFile Version 2.0
Electric current density generated by TTH
ASCII
DATASET UNSTRUCTURED_GRID
POINTS 27157 double
4.502563e-05 -1.102810e-20 -5.181671e-23
4.500975e-05 1.195791e-06 -5.181671e-23
4.311746e-05 1.296888e-05 -5.181671e-23
-4.418700e-05 8.649623e-06 -5.181671e-23
4.426846e-05 5.449984e-06 -8.335223e-09
4.450564e-05 -3.872194e-06 1.583448e-07
-2.668478e-06 -4.454120e-05 -8.662492e-08
-3.193599e-05 3.116298e-05 -8.662492e-08
-7.889072e-06 4.391812e-05 -8.662492e-08
1.543616e-06 4.459435e-05 -8.662492e-08
-1.174148e-05 4.304854e-05 -8.662492e-08
-3.554380e-05 2.697549e-05 -8.662492e-08
-4.462030e-05 -2.599709e-07 -8.662492e-08
3.803847e-05 -2.354085e-05 -1.956647e-07
-4.421234e-05 8.519179e-06 -5.181671e-23
1.792860e-05 4.124040e-05 1.441306e-07
4.460900e-05 -3.602555e-06 -2.029175e-07
2.093986e-05 -3.938163e-05 5.304831e-09
1.855966e-05 -4.070405e-05 1.964989e-07
3.620176e-05 -2.638203e-05 -2.106829e-07
3.726058e-05 2.486417e-05 -2.106823e-07
3.449825e-05 -2.857358e-05 -2.106829e-07
3.564905e-05 2.712423e-05 -2.106829e-07
3.056724e-05 3.271022e-05 2.068250e-07
1.718084e-05 4.131280e-05 1.992351e-07
-4.423729e-05 8.388661e-06 -5.181671e-23
4.440774e-05 5.568607e-06 2.032937e-07
4.440774e-05 -5.568607e-06 2.032937e-07
3.816455e-05 -2.325222e-05 1.713812e-07
2.173267e-05 3.908838e-05 -1.912890e-07
4.454480e-05 -6.151663e-06 1.455863e-07
4.454480e-05 6.151663e-06 1.455863e-07
-4.675299e-06 -4.450551e-05 2.017527e-07
-8.536461e-06 -4.392867e-05 2.017527e-07
-1.244185e-05 -4.298604e-05 2.017527e-07
-3.784230e-05 -2.388639e-05 2.017527e-07
-4.426185e-05 8.258070e-06 -5.181671e-23
-1.766097e-05 -4.111799e-05 2.017527e-07
-3.456271e-05 -2.842566e-05 2.017527e-07
-2.396231e-05 -3.779427e-05 2.017527e-07
-2.029156e-05 3.988548e-05 2.017527e-07
-4.244590e-05 1.417549e-05 2.017527e-07
-4.104889e-05 1.782099e-05 2.017527e-07
-3.812163e-05 2.343801e-05 2.017527e-07
-4.335679e-05 1.108098e-05 2.017527e-07
-1.390208e-05 -4.253624e-05 2.017527e-07
-2.117747e-05 -3.942225e-05 2.017527e-07
-4.428603e-05 8.127407e-06 -5.181671e-23
-2.458030e-05 -3.739530e-05 2.017527e-07
-4.016195e-05 -1.973872e-05 2.017527e-07
-3.850173e-05 2.280824e-05 2.017527e-07
-2.832983e-06 4.466065e-05 2.017527e-07
-5.406203e-06 -4.442265e-05 2.017527e-07
-4.193723e-05 1.561626e-05 2.017527e-07
-1.445702e-05 4.235084e-05 2.017527e-07
2.710364e-06 4.466826e-05 2.017527e-07
-4.174997e-05 -1.611023e-05 2.017527e-07
-3.443065e-05 2.858548e-05 2.017527e-07
-4.430982e-05 7.996673e-06 -5.181671e-23
-4.468166e-05 2.479632e-06 2.017527e-07
-4.576269e-07 4.474807e-05 2.017527e-07
-4.081239e-05 -1.835615e-05 2.017527e-07
-3.566686e-06 4.460805e-05 2.017527e-07
-3.682336e-05 2.542910e-05 2.017527e-07
-4.471638e-05 1.744866e-06 2.017527e-07
-2.636398e-05 3.615992e-05 2.017527e-07
-2.588896e-05 -3.650152e-05 2.017527e-07
-2.301468e-05 3.837869e-05 2.017527e-07
-1.008651e-05 -4.359887e-05 2.017527e-07
-4.433323e-05 7.865870e-06 -5.181671e-23
-2.820269e-05 3.474490e-05 2.017527e-07
4.027259e-06 -4.456883e-05 2.017527e-07
-4.469552e-05 -2.215858e-06 2.017527e-07
-2.052663e-05 -3.976502e-05 2.017527e-07
-4.299521e-05 -1.241014e-05 2.017527e-07
-4.458903e-05 -3.797023e-06 2.017527e-07
1.414417e-05 -4.245635e-05 2.017527e-07
1.186990e-05 -4.314748e-05 2.017527e-07
-6.975706e-06 -4.420338e-05 2.017527e-07
5.602940e-06 -4.439906e-05 2.019972e-07
-4.435625e-05 7.734998e-06 -5.181671e-23
4.290369e-06 4.454505e-05 2.019972e-07
3.294155e-06 -4.462978e-05 2.019972e-07
9.197870e-07 -4.474174e-05 2.019972e-07
-4.456662e-05 4.060253e-06 2.019972e-07
-4.393572e-05 -8.504236e-06 2.019972e-07
-5.144037e-06 4.445456e-05 2.019972e-07
-9.054628e-06 4.382560e-05 2.019972e-07
-2.901561e-05 -3.406998e-05 2.019972e-07
-1.515149e-05 4.210821e-05 2.019972e-07
-3.965919e-05 2.073205e-05 2.019972e-07
-4.437889e-05 7.604058e-06 -5.181671e-23
-3.000832e-05 3.319895e-05 2.019972e-07
4.471187e-05 2.976046e-06 2.115326e-07
4.329745e-05 1.214212e-05 -1.453681e-07
8.535269e-06 4.389799e-05 -1.895242e-07
4.347119e-05 1.151079e-05 1.436787e-07
4.347119e-05 -1.151079e-05 1.436787e-07
9.444044e-06 4.372555e-05 1.957418e-07
2.249127e-05 3.855922e-05 -1.192751e-07
1.846238e-05 -4.100596e-05 -1.424071e-07
9.648048e-06 -4.391639e-05 1.495620e-07
-4.440113e-05 7.473053e-06 -5.181671e-23
-3.808375e-06 -4.480191e-05 1.497749e-07
-4.495525e-05 8.603620e-07 1.497749e-07
-4.181662e-05 1.652587e-05 1.495620e-07
-2.206103e-05 -3.917940e-05 1.497783e-07
-4.379192e-05 -1.019811e-05 1.495620e-07
-3.648387e-05 2.628007e-05 1.497749e-07
4.333836e-07 4.496139e-05 1.497749e-07
-3.138338e-05 3.219965e-05 1.495583e-07
-1.958696e-05 4.047326e-05 1.495620e-07
-1.953197e-06 4.492125e-05 1.495620e-07
4.307900e-05 1.309608e-05 -5.181671e-23
-4.442300e-05 7.341982e-06 -5.181671e-23
-6.842550e-06 4.443978e-05 1.497749e-07
-1.074518e-05 4.366069e-05 1.497749e-07
-4.292255e-05 1.339289e-05 1.497783e-07
4.462493e-05 7.447469e-07 -1.062828e-07
1.207755e-05 4.294364e-05 5.460363e-08
2.908073e-05 3.382802e-05 -5.460337e-08
4.289938e-05 -1.220774e-05 2.614978e-09
4.483644e-05 -3.499776e-06 1.398341e-07
8.354846e-06 4.392766e-05 1.869965e-07
-1.821214e-05 -4.112313e-05 1.367610e-07
-4.444447e-05 7.210848e-06 -5.181671e-23
-4.306885e-05 -1.295639e-05 1.367610e-07
-2.690248e-05 3.604234e-05 1.367610e-07
-4.494246e-05 -1.723078e-06 1.367610e-07
-3.829947e-05 -2.357848e-05 1.367610e-07
-3.441396e-05 -2.895640e-05 1.367610e-07
1.469295e-05 -4.250777e-05 1.367610e-07
-4.058389e-05 -1.938407e-05 1.367610e-07
-4.232152e-05 1.522112e-05 1.367610e-07
-3.729286e-05 2.514034e-05 1.367610e-07
-4.213889e-05 -1.571965e-05 1.367610e-07
-4.446556e-05 7.079650e-06 -5.181671e-23
1.241518e-05 -4.322797e-05 1.367610e-07
-1.298816e-05 -4.305928e-05 1.367610e-07
1.550984e-05 4.220477e-05 -1.488444e-07
2.656560e-05 3.627764e-05 1.488444e-07
2.656560e-05 -3.627764e-05 1.488444e-07
4.188745e-05 -1.634747e-05 -1.488444e-07
4.188745e-05 1.634747e-05 -1.488444e-07
2.460188e-05 3.763703e-05 1.488442e-07
4.096036e-05 1.854852e-05 -1.488442e-07
2.460188e-05 -3.763703e-05 1.488442e-07
-4.448626e-05 6.948391e-06 -5.181671e-23
4.096036e-05 -1.854852e-05 -1.488442e-07
4.028733e-05 1.996821e-05 -1.488442e-07
-4.424905e-05 -8.050956e-06 1.367328e-07
1.101585e-05 4.340249e-05 -2.085674e-07
3.217594e-05 3.141099e-05 1.472190e-07
3.004223e-05 3.319624e-05 2.073185e-07
3.195221e-05 3.131424e-05 1.975672e-07
4.333600e-05 -1.195202e-05 1.586919e-07
4.306311e-05 -1.219229e-05 -2.033803e-07
3.911138e-05 2.156117e-05 -1.457920e-07
-4.450657e-05 6.817072e-06 -5.181671e-23
3.798388e-05 -2.339181e-05 5.149117e-08
1.760559e-05 -4.099498e-05 -7.305165e-08
3.901510e-05 -2.162786e-05 -5.107287e-08
3.003700e-05 -3.320992e-05 2.085573e-07
2.928969e-05 3.369933e-05 1.322877e-07
3.891271e-05 2.210005e-05 2.017954e-07
1.072233e-05 -4.367241e-05 1.436169e-07
-4.353449e-05 -1.126924e-05 1.436169e-07
-2.301828e-05 -3.863168e-05 1.436169e-07
-4.324379e-05 1.233784e-05 1.436169e-07
-4.452649e-05 6.685693e-06 -5.181671e-23
-3.932295e-05 2.180731e-05 1.482267e-07
-2.932005e-05 3.409087e-05 1.482267e-07
-2.421320e-05 3.788897e-05 1.482267e-07
-1.947956e-05 -4.052653e-05 1.482267e-07
-3.977374e-05 -2.097385e-05 1.482267e-07
-3.732530e-05 -2.507339e-05 1.482267e-07
3.850760e-05 -2.321667e-05 -1.482691e-07
1.741585e-05 -4.124491e-05 -2.071557e-07
4.336637e-05 1.130033e-05 -2.115574e-07
4.336637e-05 -1.130033e-05 -2.115574e-07
-4.454603e-05 6.554255e-06 -5.181671e-23
2.145891e-05 3.952077e-05 1.420599e-07
-1.906326e-06 -4.492701e-05 1.457268e-07
-1.334948e-05 4.294021e-05 1.457266e-07
4.459009e-05 -5.825579e-06 1.440330e-07
4.459009e-05 5.825579e-06 1.440330e-07
3.916569e-05 -2.134088e-05 -1.600790e-09
3.595810e-05 -2.639050e-05 -1.678041e-08
3.540528e-05 2.712766e-05 -1.678038e-08
3.425391e-05 -2.856711e-05 -1.109999e-08
3.701749e-05 2.488270e-05 -1.677737e-08
-4.456518e-05 6.422761e-06 -5.181671e-23
3.929636e-05 2.185005e-05 1.507192e-07
4.454906e-05 -6.122276e-06 -1.453668e-07
4.454906e-05 6.122276e-06 -1.453668e-07
4.461038e-05 7.981289e-07 7.826816e-08
4.267416e-05 1.297565e-05 -1.784056e-08
4.458379e-05 -2.242589e-06 -1.204638e-07
-3.987861e-05 1.997943e-05 2.146401e-08
-4.363825e-05 -9.229561e-06 2.146401e-08
-2.950080e-05 -3.345421e-05 2.146401e-08
-3.047513e-05 3.256913e-05 2.146401e-08
-4.458394e-05 6.291211e-06 -5.181671e-23
8.681505e-06 -4.375058e-05 2.146401e-08
-9.776164e-06 4.351905e-05 2.146401e-08
-5.889852e-06 4.421302e-05 2.146401e-08
5.824604e-06 4.422166e-05 2.146401e-08
-1.582252e-05 4.170287e-05 2.146401e-08
2.516253e-06 -4.453257e-05 2.146401e-08
-4.434331e-05 4.811727e-06 2.146401e-08
-6.416488e-07 -4.459899e-05 2.146401e-08
3.013347e-05 3.293821e-05 -1.237553e-07
4.494150e-05 1.469496e-06 1.477122e-07
-4.460231e-05 6.159606e-06 -5.181671e-23
1.800897e-05 -4.089877e-05 -1.700149e-07
1.185619e-05 4.304631e-05 -1.326063e-07
4.477752e-05 4.116369e-06 1.468762e-07
1.859419e-05 -4.071952e-05 -2.055680e-07
2.049992e-05 4.002142e-05 1.469969e-07
3.807073e-05 2.351365e-05 2.005628e-07
4.452199e-05 2.864031e-06 6.879807e-08
4.284338e-05 1.247647e-05 9.095297e-08
4.449206e-05 3.154602e-06 2.293223e-08
1.857479e-05 -4.094848e-05 1.488155e-07
4.304016e-05 1.322316e-05 -5.181671e-23
-4.462030e-05 6.027947e-06 -5.181671e-23
3.894088e-05 2.250881e-05 -1.334792e-07
4.486628e-05 -3.072683e-06 1.414615e-07
4.498305e-06 -4.439124e-05 8.085313e-08
-2.003387e-05 -3.986804e-05 8.085313e-08
-4.144452e-06 -4.442585e-05 8.128328e-08
-1.432142e-05 -4.225771e-05 8.085313e-08
-1.716216e-05 -4.118589e-05 8.085313e-08
-3.982728e-05 -2.011478e-05 8.085313e-08
-4.430072e-05 5.316300e-06 8.085313e-08
-4.460206e-05 1.220390e-06 8.128328e-08
-4.463789e-05 5.896236e-06 -5.181671e-23
-2.157148e-05 -3.905770e-05 8.128328e-08
-2.348060e-05 -3.794046e-05 8.085313e-08
-3.746964e-05 -2.422484e-05 8.085313e-08
-3.476700e-05 -2.796557e-05 8.085313e-08
-3.087809e-05 3.220834e-05 8.129157e-08
-2.589276e-05 3.633706e-05 8.085313e-08
-2.336157e-05 3.801387e-05 8.085313e-08
-4.073235e-05 1.821243e-05 8.085313e-08
[...]
POINT_DATA 27157
VECTORS 10.000GHz_fone_imag double
-1.561267e-05 2.959092e-05 3.174670e-02
-3.625924e-05 -4.954237e-05 3.178402e-02
-1.961904e-04 -6.323875e-05 3.147050e-02
-2.113651e-04 -2.677595e-04 3.187945e-02
1.754273e-03 2.063053e-04 -3.308633e-02
-2.431666e-02 2.072363e-03 -2.180438e-02
-5.400144e-04 -1.312290e-02 -2.980753e-02
-9.558353e-03 9.267538e-03 -2.997040e-02
-2.564177e-03 1.287456e-02 -2.982696e-02
7.123330e-04 1.309641e-02 -2.984237e-02
-3.654455e-03 1.260890e-02 -2.976445e-02
-1.033080e-02 8.134610e-03 -2.983008e-02
-1.313284e-02 -3.185882e-04 -2.980904e-02
2.580823e-02 -1.579132e-02 -1.280984e-02
1.142928e-04 1.449039e-04 3.185618e-02
-8.813114e-03 -2.014674e-02 2.318149e-02
3.101030e-02 -2.593628e-03 -9.685359e-03
-1.413856e-04 4.971519e-04 -3.306697e-02
-1.227336e-02 2.713461e-02 -1.262871e-02
2.591091e-02 -1.876731e-02 -3.655473e-03
2.666763e-02 1.768330e-02 -3.653956e-03
2.468488e-02 -2.037731e-02 -3.647449e-03
2.548784e-02 1.934340e-02 -3.656593e-03
-2.172790e-02 -2.327597e-02 -7.448213e-03
-1.174471e-02 -2.796487e-02 -1.138710e-02
-2.519734e-04 1.303782e-04 3.176709e-02
-3.079691e-02 -3.601722e-03 -9.815267e-03
-3.079663e-02 3.645999e-03 -9.691086e-03
-2.255202e-02 1.367404e-02 -1.951647e-02
1.424172e-02 2.573329e-02 -1.425078e-02
-2.140142e-02 3.067156e-03 2.354231e-02
-2.140093e-02 -3.066315e-03 2.354335e-02
3.370829e-03 3.044658e-02 -1.057606e-02
5.729923e-03 3.016439e-02 -1.059693e-02
8.730132e-03 2.940466e-02 -1.053456e-02
2.604662e-02 1.619709e-02 -1.052717e-02
-3.572166e-04 6.869431e-05 3.211912e-02
1.228465e-02 2.809644e-02 -1.053653e-02
2.356594e-02 1.964355e-02 -1.053428e-02
1.658791e-02 2.569468e-02 -1.043766e-02
1.406616e-02 -2.724565e-02 -1.052859e-02
2.902638e-02 -9.894946e-03 -1.054693e-02
2.818853e-02 -1.202761e-02 -1.054115e-02
2.618091e-02 -1.587204e-02 -1.059779e-02
2.979011e-02 -7.486887e-03 -1.056923e-02
9.349444e-03 2.917750e-02 -1.054998e-02
1.433233e-02 2.706761e-02 -1.056503e-02
-2.801019e-04 -1.966797e-04 3.191558e-02
1.665633e-02 2.567839e-02 -1.057022e-02
2.762148e-02 1.334515e-02 -1.052601e-02
2.617761e-02 -1.580189e-02 -1.044596e-02
2.116654e-03 -3.054961e-02 -1.055091e-02
3.446447e-03 3.038978e-02 -1.044386e-02
2.877557e-02 -1.046980e-02 -1.039832e-02
1.006221e-02 -2.889354e-02 -1.056563e-02
-1.653744e-03 -3.058866e-02 -1.052711e-02
2.869690e-02 1.085497e-02 -1.053015e-02
2.370588e-02 -1.945855e-02 -1.046860e-02
4.788263e-05 1.365467e-04 3.186610e-02
3.056985e-02 -1.453143e-03 -1.043284e-02
5.142053e-04 -3.062772e-02 -1.053203e-02
2.787026e-02 1.273445e-02 -1.055348e-02
2.211109e-03 -3.051407e-02 -1.040735e-02
2.534936e-02 -1.727814e-02 -1.046068e-02
3.059501e-02 -1.365550e-03 -1.057379e-02
1.822713e-02 -2.466861e-02 -1.052552e-02
1.769322e-02 2.513451e-02 -1.058735e-02
1.569268e-02 -2.639472e-02 -1.056698e-02
6.824158e-03 2.997179e-02 -1.058132e-02
-5.890933e-04 1.262583e-05 3.195267e-02
1.926551e-02 -2.392685e-02 -1.056572e-02
-2.520618e-03 3.048981e-02 -1.041514e-02
3.058167e-02 1.289071e-03 -1.040362e-02
1.423853e-02 2.708722e-02 -1.041379e-02
2.934596e-02 8.713560e-03 -1.039745e-02
3.063257e-02 2.498488e-03 -1.058216e-02
-9.883327e-03 2.899035e-02 -1.042068e-02
-8.345377e-03 2.945792e-02 -1.040470e-02
4.594097e-03 3.027788e-02 -1.045087e-02
-3.672821e-03 3.053537e-02 -1.054193e-02
3.037467e-05 -1.075552e-06 3.182230e-02
-2.720563e-03 -3.056205e-02 -1.036576e-02
-2.586038e-03 3.051481e-02 -1.040260e-02
-9.528474e-04 3.063356e-02 -1.041565e-02
3.054089e-02 -2.461953e-03 -1.039856e-02
3.013950e-02 5.487257e-03 -1.039744e-02
3.206192e-03 -3.047269e-02 -1.039935e-02
5.884373e-03 -3.006932e-02 -1.041427e-02
1.964122e-02 2.353269e-02 -1.044954e-02
1.015254e-02 -2.902996e-02 -1.051748e-02
2.702380e-02 -1.446886e-02 -1.044328e-02
-9.922869e-05 -8.706748e-05 3.178589e-02
2.032594e-02 -2.294161e-02 -1.045121e-02
-3.238018e-02 -2.236785e-03 -1.443860e-03
2.164597e-02 5.909940e-03 2.317941e-02
5.685918e-03 2.862631e-02 -1.459080e-02
-2.141382e-02 -5.654204e-03 2.322489e-02
-2.133123e-02 5.684282e-03 2.328447e-02
-6.374924e-03 -2.936999e-02 -1.287674e-02
9.036672e-03 1.541706e-02 -2.751116e-02
9.100484e-03 -1.996013e-02 2.340419e-02
-4.850779e-03 2.215416e-02 2.247980e-02
2.628911e-04 5.843030e-05 3.203245e-02
1.939196e-03 2.267593e-02 2.247087e-02
2.275296e-02 -4.478600e-04 2.246917e-02
2.111476e-02 -8.362952e-03 2.255251e-02
1.114340e-02 1.980496e-02 2.246766e-02
2.211756e-02 5.165567e-03 2.256249e-02
1.843930e-02 -1.328089e-02 2.246589e-02
-2.196772e-04 -2.271883e-02 2.246563e-02
1.583534e-02 -1.626198e-02 2.247007e-02
9.898250e-03 -2.041250e-02 2.248691e-02
1.001600e-03 -2.266391e-02 2.248517e-02
5.044488e-05 -6.643114e-05 3.170771e-02
-7.589975e-05 -8.088336e-05 3.189704e-02
3.419404e-03 -2.249696e-02 2.249144e-02
5.396816e-03 -2.210627e-02 2.249449e-02
2.169458e-02 -6.778737e-03 2.246892e-02
1.634197e-02 2.498263e-04 -2.850910e-02
-2.133691e-03 -8.257783e-03 -3.203212e-02
5.718465e-03 6.418982e-03 -3.204068e-02
-6.022693e-04 1.847286e-05 -3.290044e-02
-2.122491e-02 1.617808e-03 2.397731e-02
-5.606333e-03 -2.849478e-02 -1.480489e-02
8.280249e-03 1.880528e-02 2.456885e-02
-2.611414e-05 3.199841e-04 3.198409e-02
1.972345e-02 5.856654e-03 2.448848e-02
1.225162e-02 -1.650352e-02 2.455997e-02
2.054226e-02 8.771963e-04 2.450509e-02
1.748209e-02 1.083742e-02 2.448470e-02
1.579239e-02 1.317122e-02 2.450750e-02
-6.666097e-03 1.944402e-02 2.457029e-02
1.852308e-02 8.925987e-03 2.451339e-02
1.932162e-02 -7.033991e-03 2.450909e-02
1.702328e-02 -1.151761e-02 2.457774e-02
1.924064e-02 7.259465e-03 2.451490e-02
-3.304758e-04 -2.538919e-04 3.187039e-02
-5.599006e-03 1.978621e-02 2.450262e-02
5.870304e-03 1.970964e-02 2.451605e-02
7.830828e-03 2.108259e-02 2.293433e-02
-1.319215e-02 -1.824199e-02 2.294347e-02
-1.319208e-02 1.824193e-02 2.294352e-02
2.093079e-02 -8.305060e-03 2.293970e-02
2.093073e-02 8.305056e-03 2.293970e-02
-1.220491e-02 -1.891432e-02 2.294805e-02
2.045993e-02 9.401481e-03 2.295196e-02
-1.220473e-02 1.891418e-02 2.294715e-02
1.496636e-04 7.511680e-05 3.184024e-02
2.044352e-02 -9.398076e-03 2.296155e-02
2.016660e-02 9.899392e-03 2.301752e-02
2.020923e-02 3.758187e-03 2.451472e-02
7.655070e-03 3.107754e-02 -5.949525e-03
-1.603210e-02 -1.555075e-02 2.293962e-02
-2.154800e-02 -2.351690e-02 -6.818921e-03
-2.167521e-02 -2.135321e-02 -1.179227e-02
-2.334132e-02 6.206571e-03 2.121440e-02
2.999940e-02 -8.599191e-03 -9.863796e-03
1.954993e-02 1.088750e-02 -2.390888e-02
-1.962167e-04 8.125942e-05 3.181322e-02
-6.895479e-03 4.321792e-03 -3.187612e-02
4.337127e-03 -9.890260e-03 -3.133215e-02
7.105101e-03 -3.920249e-03 -3.222411e-02
-2.166769e-02 2.373334e-02 -6.041608e-03
-1.292473e-02 -1.484958e-02 -2.637972e-02
-2.713314e-02 -1.518557e-02 -9.834904e-03
-5.178826e-03 2.081885e-02 2.367369e-02
2.073652e-02 5.383142e-03 2.368812e-02
1.103977e-02 1.839504e-02 2.366607e-02
2.065155e-02 -5.825114e-03 2.367123e-02
-2.852212e-04 1.755633e-05 3.211919e-02
1.953816e-02 -1.090905e-02 2.163037e-02
1.459987e-02 -1.697575e-02 2.163665e-02
1.201604e-02 -1.891639e-02 2.164879e-02
9.755039e-03 2.014611e-02 2.163262e-02
1.985096e-02 1.042061e-02 2.164960e-02
1.858811e-02 1.243820e-02 2.170466e-02
1.926375e-02 -1.156471e-02 2.249562e-02
1.190731e-02 -2.920376e-02 -6.751410e-03
3.115500e-02 8.133610e-03 -2.205360e-04
3.116110e-02 -8.128445e-03 -2.491404e-04
-1.097669e-04 -2.638360e-04 3.188952e-02
-1.029775e-02 -1.912866e-02 2.343384e-02
1.022917e-03 2.217213e-02 2.251889e-02
6.521703e-03 -2.123252e-02 2.255074e-02
-2.179707e-02 2.714586e-03 2.340516e-02
-2.178741e-02 -2.718124e-03 2.341452e-02
6.866384e-05 7.186611e-05 -3.296631e-02
1.731002e-03 -1.384714e-03 -3.298881e-02
1.641599e-03 1.417637e-03 -3.301623e-02
1.030733e-03 -9.839373e-04 -3.301003e-02
1.783541e-03 1.305859e-03 -3.298152e-02
2.004175e-04 3.999759e-06 3.193700e-02
-1.967675e-02 -1.086761e-02 2.254262e-02
2.194831e-02 -3.061434e-03 2.269314e-02
2.194790e-02 3.061403e-03 2.269370e-02
-1.196638e-02 -3.670068e-05 -3.063687e-02
2.635016e-03 8.554244e-04 -3.256203e-02
1.824824e-02 -8.380743e-04 -2.726014e-02
3.278657e-03 -1.591560e-03 -3.304362e-02
3.550973e-03 7.974826e-04 -3.304880e-02
2.433840e-03 2.689819e-03 -3.304611e-02
2.540262e-03 -2.623710e-03 -3.304786e-02
1.946428e-04 3.818809e-06 3.194377e-02
-7.571057e-04 3.587346e-03 -3.305727e-02
8.173642e-04 -3.382053e-03 -3.298942e-02
5.159934e-04 -3.435284e-03 -3.297886e-02
-4.673450e-04 -3.490937e-03 -3.297071e-02
1.233453e-03 -3.297411e-03 -3.300724e-02
-1.602012e-04 3.643722e-03 -3.304004e-02
3.499750e-03 -3.631372e-04 -3.300304e-02
8.804447e-05 3.664271e-03 -3.303483e-02
1.292879e-02 1.414917e-02 -2.687883e-02
-2.223998e-02 -7.380501e-04 2.297458e-02
1.716531e-04 -3.610858e-05 3.173602e-02
1.063954e-02 -2.399520e-02 -1.999283e-02
5.244804e-03 1.901008e-02 -2.633074e-02
-2.208226e-02 -2.034055e-03 2.306340e-02
1.304061e-02 -2.864721e-02 -8.643425e-03
-9.864059e-03 -1.951541e-02 2.306279e-02
-2.597022e-02 -1.623807e-02 -1.121864e-02
-1.024548e-02 -5.619334e-04 -3.155323e-02
-1.352435e-02 -4.072995e-03 -2.967996e-02
-3.946508e-03 -4.160130e-04 -3.261191e-02
-9.608023e-03 2.084328e-02 2.270328e-02
-1.348411e-04 7.442993e-05 3.181840e-02
1.692135e-04 1.781155e-04 3.189139e-02
1.760321e-02 1.010297e-02 2.467969e-02
-2.158809e-02 1.276357e-03 2.364664e-02
-1.334228e-03 1.281622e-02 -3.029173e-02
5.793989e-03 1.149853e-02 -3.032179e-02
1.088578e-03 1.262240e-02 -3.039905e-02
4.156461e-03 1.219721e-02 -3.030229e-02
4.937466e-03 1.190225e-02 -3.030732e-02
1.150391e-02 5.792901e-03 -3.032822e-02
1.264454e-02 -1.583687e-03 -3.032459e-02
1.266660e-02 -2.594858e-04 -3.038981e-02
-5.710693e-04 2.861907e-04 3.201626e-02
6.225496e-03 1.108712e-02 -3.039982e-02
6.820209e-03 1.102359e-02 -3.024607e-02
1.082371e-02 6.983732e-03 -3.033065e-02
1.006042e-02 8.068445e-03 -3.029926e-02
8.799006e-03 -9.127299e-03 -3.035243e-02
7.466698e-03 -1.050849e-02 -3.030260e-02
6.772429e-03 -1.105873e-02 -3.025901e-02
1.176242e-02 -5.278731e-03 -3.030426e-02
1.212439e-02 -3.802649e-03 -3.040286e-02
2.972398e-03 -1.230480e-02 -3.036631e-02
-6.743743e-05 -5.261566e-04 3.191870e-02
9.818963e-03 -8.355267e-03 -3.029817e-02
1.291418e-02 1.210355e-03 -3.025552e-02
8.255974e-03 -9.997434e-03 -3.026512e-02
-9.569456e-04 -1.285506e-02 -3.029887e-02
5.504801e-03 -1.137386e-02 -3.040309e-02
1.294514e-02 7.390665e-04 -3.026310e-02
1.285697e-02 -8.888501e-04 -3.028276e-02
1.196796e-02 4.789644e-03 -3.030476e-02
4.716727e-03 -1.184012e-02 -3.032933e-02
1.220318e-02 2.695661e-03 -3.047513e-02
2.928175e-04 1.450852e-04 3.180395e-02
-1.078670e-04 -1.269949e-02 -3.038791e-02
1.253082e-02 -3.328899e-03 -3.026030e-02
1.873674e-03 -1.251566e-02 -3.035874e-02
1.160345e-02 -5.705976e-03 -3.025167e-02
1.202450e-03 -1.282952e-02 -3.029555e-02
1.183049e-02 5.127434e-03 -3.031073e-02
2.096741e-03 1.269312e-02 -3.032975e-02
5.511699e-04 -1.262296e-02 -3.040342e-02
1.122770e-02 -6.482974e-03 -3.024450e-02
-1.868600e-03 -1.260199e-02 -3.032680e-02
-4.912695e-04 4.327468e-05 3.200238e-02
1.172018e-02 -4.468518e-03 -3.046739e-02
1.089541e-02 -6.898717e-03 -3.029369e-02
2.569759e-03 1.270949e-02 -3.027086e-02
4.095202e-03 -1.223187e-02 -3.032383e-02
1.032849e-02 -7.424064e-03 -3.039896e-02
-2.655232e-03 1.239587e-02 -3.036451e-02
3.410470e-03 1.244203e-02 -3.031179e-02
1.248643e-02 3.488277e-03 -3.026214e-02
8.619559e-03 9.473663e-03 -3.025778e-02
3.031436e-03 1.260991e-02 -3.026175e-02
4.195852e-04 -1.537052e-04 3.192667e-02
-3.324559e-03 1.252458e-02 -3.026040e-02
7.604666e-03 1.051694e-02 -3.026384e-02
1.695194e-03 1.285260e-02 -3.023325e-02
-6.457555e-04 1.291394e-02 -3.023521e-02
7.140262e-03 1.073520e-02 -3.032509e-02
-4.011813e-03 1.227173e-02 -3.033615e-02
2.797553e-04 1.292627e-02 -3.024565e-02
3.053946e-02 1.045703e-02 -2.169983e-03
3.053908e-02 -1.045687e-02 -2.169736e-03
-7.962234e-03 -3.129231e-02 -2.176018e-03
2.909857e-04 -1.907249e-04 3.174943e-02
-2.991184e-02 -9.269390e-03 -9.513229e-03
1.006805e-02 2.024851e-02 2.259254e-02
-1.500026e-02 2.868665e-02 -2.348850e-03
2.614458e-02 1.534553e-02 -1.182490e-02
-1.331035e-02 2.627497e-02 -1.476482e-02
6.442163e-03 7.027234e-03 -3.143926e-02
1.827115e-02 1.027638e-02 2.411584e-02
-3.128701e-02 -3.685989e-03 -8.703738e-03
1.591300e-02 -2.705855e-02 -7.552057e-03
1.518249e-02 -1.533359e-02 2.345631e-02
7.251531e-05 3.235681e-04 3.176273e-02
1.524973e-02 1.535289e-02 2.345286e-02
1.786703e-02 -1.225517e-02 2.342874e-02
1.467146e-02 -1.530029e-02 2.398212e-02
5.097595e-03 3.059882e-02 -9.846893e-03
1.728185e-02 2.578105e-02 -1.007811e-02
-7.843055e-03 3.002900e-02 -1.000067e-02
7.372288e-03 3.015724e-02 -9.996122e-03
1.180564e-02 2.865020e-02 -9.889706e-03
-9.442758e-03 2.959993e-02 -9.998110e-03
1.628595e-02 2.642893e-02 -9.986430e-03
9.581471e-06 -2.854102e-04 3.173344e-02
1.006375e-02 2.931538e-02 -9.901532e-03
4.009839e-03 3.079960e-02 -9.823666e-03
8.535769e-04 3.103409e-02 -9.998268e-03
6.197098e-03 3.041064e-02 -1.007614e-02
-1.479482e-03 3.099675e-02 -9.818688e-03
2.838019e-02 1.234572e-02 -9.964230e-03
2.990970e-02 8.238227e-03 -1.001274e-02
2.083709e-02 2.303518e-02 -1.000662e-02
2.617283e-02 -1.663356e-02 -9.896683e-03
3.090691e-02 3.016672e-03 -9.990438e-03
2.890396e-04 1.142468e-04 3.180542e-02
1.984676e-02 -2.386280e-02 -1.000497e-02
2.996931e-02 -8.074714e-03 -9.999294e-03
2.424323e-02 1.934190e-02 -9.902819e-03
9.661468e-03 -2.952615e-02 -1.001530e-02
2.690714e-02 -1.550558e-02 -9.965439e-03
2.356661e-02 -2.016610e-02 -9.913608e-03
3.096869e-02 1.817452e-03 -1.006850e-02
2.825733e-02 -1.277192e-02 -9.915403e-03
-2.237273e-03 -3.080927e-02 -9.959922e-03
3.083248e-02 -2.080385e-03 -9.963001e-03
5.109029e-05 -5.298958e-05 3.153997e-02
-5.863961e-05 1.350476e-04 3.177001e-02
2.788805e-02 -1.360783e-02 -1.004605e-02
1.789744e-02 -2.532774e-02 -9.903242e-03
1.628675e-02 -2.642725e-02 -9.985632e-03
3.075951e-02 -3.822340e-03 -9.926912e-03
-4.526014e-03 -3.066711e-02 -9.914207e-03
2.831290e-03 -3.077713e-02 -9.961080e-03
2.875849e-02 1.159102e-02 -9.902292e-03
1.144592e-02 -2.880844e-02 -9.917290e-03
1.827554e-02 2.510375e-02 -9.995032e-03
2.599536e-02 1.691811e-02 -9.913401e-03
-6.075195e-05 -1.248227e-04 3.175759e-02
2.765218e-02 1.406419e-02 -9.927799e-03
-3.141285e-03 3.074519e-02 -9.975893e-03
8.237767e-03 2.982328e-02 -9.949727e-03
1.384205e-02 2.776812e-02 -9.920164e-03
2.828657e-02 1.522923e-02 -5.304567e-03
3.148846e-02 -6.406365e-03 -5.269320e-03
1.365059e-02 2.910920e-02 -5.143208e-03
2.772310e-02 1.619144e-02 -5.434094e-03
2.827565e-02 -1.539287e-02 -5.118106e-03
2.193605e-02 2.342390e-02 -5.145515e-03
2.525662e-04 -1.243035e-04 3.180822e-02
3.169558e-02 5.010569e-03 -5.418782e-03
2.616833e-02 1.863319e-02 -5.313609e-03
3.185037e-02 4.421531e-03 -5.301735e-03
3.048738e-02 1.010091e-02 -5.363950e-03
2.327935e-02 2.218965e-02 -5.134210e-03
2.366990e-02 2.172631e-02 -5.322486e-03
1.601956e-02 -2.788511e-02 -5.295667e-03
1.301251e-02 -2.941017e-02 -5.332462e-03
2.581815e-02 1.910380e-02 -5.353384e-03
2.799923e-02 1.575511e-02 -5.317588e-03
2.687045e-04 2.723905e-04 3.195025e-02
1.235027e-02 -2.970666e-02 -5.021838e-03
1.754131e-02 -2.690088e-02 -5.346178e-03
1.565511e-02 -2.810155e-02 -5.300850e-03
1.989823e-02 -2.530224e-02 -5.173360e-03
2.411922e-02 -2.120996e-02 -5.026810e-03
2.364324e-02 -2.180622e-02 -5.312457e-03
2.291198e-02 2.251526e-02 -5.441058e-03
1.086475e-02 3.019785e-02 -5.144347e-03
3.170273e-02 -5.111839e-03 -5.352722e-03
2.653299e-02 1.812174e-02 -5.296774e-03
-2.712308e-04 -2.490023e-04 3.170779e-02
2.050680e-02 2.484211e-02 -5.148060e-03
-5.142262e-03 -3.173842e-02 -5.042748e-03
3.149010e-02 -6.782617e-03 -5.274478e-03
1.814145e-02 -2.657037e-02 -5.012803e-03
2.120555e-02 -2.424709e-02 -5.119549e-03
3.132864e-02 -7.490691e-03 -5.161867e-03
1.933180e-02 2.560008e-02 -5.133623e-03
1.994243e-02 2.526580e-02 -5.237028e-03
3.045510e-02 1.036866e-02 -5.368947e-03
1.501554e-02 -2.852083e-02 -5.103700e-03
3.001666e-04 -2.245684e-04 3.183206e-02
3.163823e-02 -5.717373e-03 -5.309375e-03
2.510916e-02 -2.020741e-02 -5.118351e-03
3.188000e-02 3.710560e-03 -5.110628e-03
3.186000e-02 -4.473834e-03 -5.007503e-03
2.408120e-02 2.130673e-02 -5.319266e-03
2.249417e-02 2.301364e-02 -5.226443e-03
1.174923e-02 2.987233e-02 -5.109104e-03
2.547019e-02 1.966030e-02 -5.019775e-03
-3.173882e-02 1.908439e-03 -7.340096e-03
2.213811e-02 2.259465e-02 -7.479000e-03
6.771624e-04 -2.561198e-04 3.195049e-02
-1.661924e-02 1.288386e-02 -2.544265e-02
-1.627111e-02 -1.302132e-02 -2.556701e-02
-1.710862e-02 -1.210010e-02 -2.551253e-02
1.209746e-03 3.718165e-03 -3.308770e-02
5.265701e-04 3.290501e-04 -3.311871e-02
-2.755488e-04 -8.397667e-04 -3.299957e-02
6.189566e-04 -1.884607e-04 -3.307455e-02
5.910703e-04 5.049313e-04 -3.307690e-02
-2.332072e-04 6.512922e-04 -3.313621e-02
7.770348e-04 -2.072044e-04 -3.298863e-02
6.312079e-04 3.509849e-04 3.178566e-02
5.544176e-04 -4.469460e-04 -3.305576e-02
5.547869e-04 4.467440e-04 -3.305603e-02
-2.249695e-04 6.706179e-04 -3.303848e-02
-2.250332e-04 -6.706401e-04 -3.303817e-02
5.209617e-03 3.039914e-03 -3.251146e-02
-5.831293e-03 -1.181803e-04 -3.253668e-02
-5.864629e-04 2.336994e-04 -3.305774e-02
-6.169381e-04 -2.499114e-04 -3.306306e-02
1.855879e-02 4.480736e-04 -2.685962e-02
-6.196661e-03 -3.131848e-02 -2.805863e-03
1.570790e-04 3.076314e-04 3.180486e-02
-9.299797e-03 -2.020908e-02 2.325359e-02
-6.671619e-03 -5.884514e-03 -3.158613e-02
-6.783040e-03 5.780063e-03 -3.164323e-02
-6.998934e-03 -5.481673e-03 -3.161732e-02
-9.428559e-03 -2.438588e-03 -3.144973e-02
2.760680e-02 -1.589226e-02 -4.998934e-03
-5.277015e-04 4.493988e-04 -3.328373e-02
-2.255679e-03 1.238129e-03 -3.297376e-02
-1.965994e-02 1.232449e-02 -2.358917e-02
-1.637082e-03 9.495557e-04 -3.298926e-02
-6.684555e-04 1.808278e-04 3.196633e-02
-1.149336e-03 -8.060842e-04 -3.300565e-02
5.434920e-04 -1.302532e-03 -3.301371e-02
5.428158e-04 1.300625e-03 -3.301131e-02
-1.191264e-03 7.443692e-04 -3.300369e-02
-1.191324e-03 -7.444096e-04 -3.300368e-02
6.114642e-04 1.269404e-03 -3.300939e-02
6.114895e-04 -1.269461e-03 -3.300943e-02
5.977252e-03 1.496424e-02 -2.879617e-02
-7.380637e-03 1.267441e-02 -2.956251e-02
-8.007693e-03 -2.105703e-02 2.282999e-02
-2.695906e-04 -2.941033e-05 3.182800e-02
-3.725260e-04 -2.241508e-04 3.190398e-02
1.299063e-02 1.875420e-02 2.211323e-02
1.299064e-02 -1.875421e-02 2.211328e-02
-2.101085e-02 -8.836984e-03 2.211573e-02
-2.101087e-02 8.837151e-03 2.211569e-02
1.197043e-02 -1.940099e-02 2.211884e-02
-2.047388e-02 -9.946172e-03 2.211488e-02
1.196793e-02 1.941295e-02 2.210660e-02
3.227911e-02 -1.273502e-03 -1.937250e-03
-1.670105e-03 3.698616e-04 -3.303713e-02
-1.670200e-03 -3.698861e-04 -3.303726e-02
-2.529731e-05 6.437356e-08 3.176098e-02
-9.407993e-03 1.948896e-02 2.351433e-02
3.590517e-03 3.598095e-03 -3.271654e-02
-1.389461e-03 -9.162559e-04 -3.325204e-02
-3.325738e-04 -1.584201e-03 -3.307651e-02
1.174006e-03 -1.152763e-03 -3.305701e-02
1.173910e-03 1.152531e-03 -3.305694e-02
4.558759e-03 2.085711e-02 2.366760e-02
2.463380e-03 1.094708e-02 -3.090183e-02
-2.967598e-02 9.272051e-03 -1.013106e-02
1.062753e-03 5.617596e-03 -3.249200e-02
-5.008215e-04 -3.219294e-05 3.200729e-02
-3.001758e-03 1.822836e-02 -2.705734e-02
-5.902482e-05 1.844487e-02 -2.708489e-02
-2.063113e-03 -1.843142e-02 -2.709851e-02
-2.555696e-03 1.831203e-02 -2.705424e-02
-3.247929e-03 1.822926e-02 -2.705619e-02
3.323649e-04 1.844759e-02 -2.711817e-02
-3.654307e-03 1.809097e-02 -2.710302e-02
1.656805e-02 -8.245733e-03 -2.707085e-02
1.839127e-02 -2.070518e-03 -2.707008e-02
1.803399e-02 3.836740e-03 -2.707769e-02
4.859963e-04 -1.524011e-04 3.190836e-02
6.635302e-03 -1.727682e-02 -2.707378e-02
1.261929e-02 -1.344549e-02 -2.707405e-02
-2.400892e-03 -1.830595e-02 -2.709970e-02
4.109431e-03 -1.803827e-02 -2.708591e-02
2.495070e-03 -1.832304e-02 -2.710226e-02
-9.960076e-04 1.847444e-02 -2.706137e-02
1.221217e-02 1.381313e-02 -2.708097e-02
-9.193931e-03 2.435379e-03 -3.150807e-02
-3.067479e-02 9.260261e-04 -1.091281e-02
-2.223298e-02 2.716615e-03 -2.356887e-02
1.811569e-04 7.306970e-05 3.170500e-02