# vtk DataFile Version 2.0
Electric current density generated by TTH
ASCII
DATASET UNSTRUCTURED_GRID
POINTS 1647 double
1.817236e-05 -4.450945e-21 -4.877664e-22
1.601927e-05 8.580071e-06 -4.877664e-22
1.165983e-05 -1.393855e-05 -4.877664e-22
-5.659568e-06 1.332822e-05 -1.035876e-06
1.779484e-06 1.427771e-05 -8.671820e-07
-6.376450e-06 -1.467877e-05 -1.983577e-06
-1.665281e-05 2.924907e-06 1.854084e-06
1.302120e-05 7.016848e-06 1.426671e-06
1.302120e-05 -7.016848e-06 1.426671e-06
-8.614224e-06 1.138799e-05 5.906214e-07
-8.614224e-06 -1.138799e-05 5.906214e-07
-1.247323e-06 1.790740e-05 9.129161e-07
-1.188018e-05 1.052028e-05 1.966830e-06
1.240360e-05 -1.328102e-05 -4.877664e-22
1.258931e-05 9.632101e-06 -1.964015e-06
-1.004829e-05 -1.334735e-05 1.920741e-06
-1.004829e-05 1.334735e-05 1.920741e-06
5.040577e-06 1.331481e-05 -4.324841e-07
-1.169219e-05 -8.040604e-06 -5.039333e-08
9.603023e-06 1.396071e-05 1.839205e-06
7.985021e-06 1.611767e-05 8.385416e-07
-1.078944e-05 -1.445051e-05 -7.290674e-07
-1.078944e-05 1.445051e-05 -7.290674e-07
9.526535e-06 1.525440e-05 -8.438048e-07
1.311036e-05 -1.258385e-05 -4.877664e-22
3.730283e-06 1.562858e-05 1.988231e-06
1.303601e-05 5.612871e-06 1.191987e-07
1.303601e-05 -5.612871e-06 1.191987e-07
-1.207501e-06 1.792276e-05 -8.880625e-07
-1.181347e-05 -1.061779e-05 1.969172e-06
-1.483023e-05 1.021897e-05 -7.874044e-07
-1.313181e-05 -5.804853e-06 8.009142e-07
6.849793e-07 1.525589e-05 -1.771564e-06
1.240300e-05 -1.150203e-05 1.851055e-06
5.943850e-06 -1.585465e-05 -1.844307e-06
1.377799e-05 -1.184912e-05 -4.877664e-22
5.162441e-06 1.350027e-05 9.912089e-07
1.738138e-05 4.596223e-06 8.564094e-07
1.738138e-05 -4.596223e-06 8.564094e-07
-1.040552e-06 1.431800e-05 -7.967174e-07
1.608771e-05 -2.206546e-06 1.990629e-06
1.608771e-05 2.206546e-06 1.990629e-06
-1.132495e-05 1.287506e-05 1.741394e-06
-1.132495e-05 -1.287506e-05 1.741394e-06
-2.434010e-06 -1.610709e-05 1.988469e-06
-7.886549e-06 -1.187065e-05 -4.938984e-07
1.440450e-05 -1.107904e-05 -4.877664e-22
-7.886549e-06 1.187065e-05 -4.938984e-07
6.758185e-06 1.516373e-05 -1.946524e-06
-5.201104e-06 1.619669e-05 -1.810067e-06
-3.198445e-06 -1.767205e-05 8.964918e-07
-6.796153e-06 -1.321179e-05 1.487932e-06
-6.777620e-06 1.320643e-05 1.476053e-06
-4.583922e-06 -1.342897e-05 -3.607899e-08
-1.712784e-05 5.439513e-06 8.729460e-07
4.238991e-06 1.749546e-05 -8.066714e-07
-1.524887e-05 6.125272e-07 -1.766349e-06
1.498803e-05 -1.027589e-05 -4.877664e-22
-1.521268e-05 7.633256e-07 1.750754e-06
1.716983e-05 -9.992584e-07 1.711615e-06
1.716983e-05 9.992584e-07 1.711615e-06
1.520673e-05 5.631846e-06 1.991146e-06
1.520673e-05 -5.631846e-06 1.991146e-06
-3.979288e-06 -1.514204e-05 -1.921085e-06
-4.554840e-06 -1.413856e-05 1.485125e-06
8.033009e-06 1.373601e-05 -1.973285e-06
1.795504e-05 8.890900e-07 -8.601138e-07
1.795504e-05 -8.890900e-07 -8.601138e-07
1.552682e-05 -9.442068e-06 -4.877664e-22
9.345264e-06 -1.119052e-05 1.183799e-06
-1.045022e-05 1.165327e-05 1.920121e-06
-1.047101e-05 -1.164969e-05 1.923172e-06
7.908150e-06 -1.616010e-05 -8.296399e-07
1.228754e-05 1.213996e-05 -1.665191e-06
8.676611e-06 1.246428e-05 1.725645e-06
6.379608e-06 -1.437727e-05 -1.939536e-06
1.478089e-05 -1.013121e-05 -9.708059e-07
-4.638588e-06 1.423062e-05 1.579126e-06
1.376060e-05 1.065371e-05 -1.572576e-06
1.601927e-05 -8.580071e-06 -4.877664e-22
1.458453e-05 -1.059628e-05 7.457107e-07
-9.735582e-06 -1.276373e-05 -1.987336e-06
-9.735582e-06 1.276373e-05 -1.987336e-06
1.259521e-05 1.288982e-05 7.595125e-07
9.318931e-06 -1.467270e-05 1.588552e-06
-2.185412e-06 -1.509492e-05 1.761702e-06
4.455552e-06 -1.641753e-05 1.810028e-06
-1.497011e-05 2.405372e-06 1.711137e-06
1.586713e-05 -8.429767e-06 8.800077e-07
1.581208e-05 8.543044e-06 8.698416e-07
1.646392e-05 -7.692468e-06 -4.877664e-22
1.609688e-05 -8.021829e-06 -8.433522e-07
1.706906e-05 -2.176831e-06 -1.706578e-06
1.706906e-05 2.176831e-06 -1.706578e-06
4.985139e-06 -1.517193e-05 -1.980252e-06
-1.343288e-05 5.037215e-06 -7.746336e-07
-1.317669e-05 7.274883e-06 1.640262e-06
-1.344923e-05 -1.048266e-05 1.790874e-06
-1.102215e-05 9.350662e-06 9.920899e-07
5.068130e-06 -1.442459e-05 1.780584e-06
7.549352e-06 -1.551201e-05 1.679188e-06
1.685943e-05 -6.781907e-06 -4.877664e-22
-1.850138e-08 -1.503092e-05 -1.625877e-06
-1.354447e-05 -1.189439e-05 -7.498583e-07
1.140086e-05 1.396393e-05 7.470011e-07
-1.721033e-05 -5.192964e-06 -8.607929e-07
5.895974e-06 1.323378e-05 1.048426e-06
1.723389e-05 -5.257671e-06 -7.686371e-07
1.725849e-05 5.316333e-06 -6.629840e-07
-6.813472e-06 -1.583641e-05 1.686521e-06
-6.826981e-06 1.581235e-05 1.696927e-06
9.802455e-06 -1.160324e-05 1.727185e-06
1.552682e-05 9.442068e-06 -4.877664e-22
1.720463e-05 -5.851107e-06 -4.877664e-22
9.631990e-06 1.521618e-05 7.909861e-07
9.180589e-06 -1.455386e-05 -1.706460e-06
6.575922e-06 -1.417089e-05 1.911514e-06
-1.071739e-05 -1.042574e-05 1.566961e-06
-1.446596e-05 -5.129091e-06 1.809072e-06
1.181321e-05 9.099810e-06 1.534600e-06
1.181321e-05 -9.099810e-06 1.534600e-06
-1.708798e-05 5.644643e-06 -8.190402e-07
9.416627e-06 -1.280282e-05 1.970525e-06
1.039925e-05 1.469647e-05 -8.022464e-07
1.749848e-05 -4.902845e-06 -4.877664e-22
-5.739988e-06 -1.311595e-05 7.011663e-07
-5.681547e-06 1.315064e-05 7.233986e-07
1.385316e-05 -1.152251e-05 -7.667650e-07
6.577230e-06 -1.313090e-05 -1.315805e-06
3.486922e-06 -1.413953e-05 1.161354e-06
1.016931e-05 1.154685e-05 1.826153e-06
-1.360442e-05 6.498837e-06 -1.657478e-06
9.028663e-06 1.134725e-05 1.069377e-06
1.340077e-05 1.204495e-05 -7.678835e-07
6.559786e-06 1.674260e-05 8.500805e-07
1.774011e-05 -3.939950e-06 -4.877664e-22
-1.566879e-05 -2.149338e-06 -1.957651e-06
5.406000e-06 1.488447e-05 -1.961325e-06
2.249448e-06 1.632374e-05 1.969171e-06
-6.922114e-07 -1.555009e-05 1.893981e-06
-1.441487e-05 9.626588e-07 -9.794857e-07
-1.640401e-05 -7.476788e-06 -7.454260e-07
-1.760966e-05 3.627198e-06 8.552867e-07
-1.437311e-05 9.286003e-06 -1.760453e-06
1.765498e-05 -3.618048e-06 7.593909e-07
1.765498e-05 3.618048e-06 7.593909e-07
1.792880e-05 -2.965297e-06 -4.877664e-22
5.722345e-07 1.798353e-05 -8.267652e-07
1.514935e-05 8.752583e-07 1.718513e-06
1.515421e-05 -8.400948e-07 1.720183e-06
8.819645e-06 -1.571927e-05 7.531066e-07
3.982883e-06 -1.756691e-05 7.811389e-07
5.978905e-06 1.291224e-05 -3.964536e-07
-1.227201e-05 9.907773e-06 -1.949093e-06
2.965209e-06 1.678884e-05 -1.792446e-06
-2.701142e-06 -1.784215e-05 -6.995242e-07
1.270215e-05 7.875430e-06 -1.561923e-06
1.806398e-05 -1.981795e-06 -4.877664e-22
-1.114299e-05 1.207450e-05 1.975760e-06
-1.114324e-05 -1.207531e-05 1.975663e-06
-6.969665e-07 1.647703e-05 1.967045e-06
-1.358620e-05 -1.049745e-05 -1.728924e-06
-1.662378e-05 6.920529e-06 7.950525e-07
-1.550921e-05 -6.405828e-06 -1.899189e-06
1.341400e-05 -1.056756e-05 -1.778683e-06
-1.421806e-05 -1.029210e-05 1.444084e-06
-9.873490e-07 -1.640774e-05 -1.974867e-06
9.686466e-06 1.405919e-05 -1.780452e-06
1.814525e-05 -9.923784e-07 -4.877664e-22
-7.879095e-07 -1.428069e-05 -6.611870e-07
1.427869e-05 9.806110e-06 -1.632333e-06
-7.619101e-06 -1.633787e-05 -7.466016e-07
-4.371438e-06 1.570788e-05 1.987599e-06
9.157103e-06 1.089488e-05 -4.096728e-07
5.241744e-06 -1.724060e-05 7.643668e-07
-1.671328e-05 1.659617e-07 -1.918749e-06
1.267324e-05 -1.123502e-05 -1.842647e-06
-1.677256e-05 1.654173e-07 1.901285e-06
-1.225118e-05 -9.913783e-06 -1.946448e-06
1.794425e-05 -4.395074e-21 9.254763e-07
7.354572e-06 1.230145e-05 7.407048e-07
-1.355042e-05 1.049553e-05 -1.745443e-06
9.079770e-06 -1.283081e-05 -1.937035e-06
-3.127780e-06 1.772501e-05 8.129884e-07
1.466156e-05 1.048156e-05 7.569745e-07
-9.759942e-06 1.163031e-05 -1.723341e-06
-9.759942e-06 -1.163031e-05 -1.723341e-06
-1.110345e-06 -1.537592e-05 -1.838686e-06
-2.988089e-06 -1.443541e-05 -1.376156e-06
1.398839e-05 2.941664e-06 -6.378211e-07
1.731218e-05 -4.240261e-21 1.638937e-06
1.398839e-05 -2.941664e-06 -6.378211e-07
-2.886237e-06 1.780593e-05 -7.182212e-07
-6.261770e-06 -1.601175e-05 -1.715327e-06
-1.004914e-05 -1.494460e-05 7.897887e-07
-1.004914e-05 1.494460e-05 7.897887e-07
1.035970e-05 9.731602e-06 -3.094572e-07
1.191062e-05 1.354640e-05 -7.192158e-07
-6.320001e-06 1.689398e-05 -7.205529e-07
-1.393453e-05 3.182882e-06 6.350556e-07
-1.297693e-05 -7.496396e-06 1.593552e-06
1.642095e-05 -4.021972e-21 1.976937e-06
-1.763439e-05 -3.699502e-06 7.681003e-07
-3.511337e-06 -1.590121e-05 -1.988772e-06
3.766579e-06 1.386149e-05 8.156103e-07
-1.266287e-05 -1.009613e-05 1.991407e-06
-9.217711e-06 1.081098e-05 -2.650674e-07
-9.284931e-06 -1.075603e-05 -2.800059e-07
-1.718719e-05 -5.181305e-06 9.121167e-07
1.074574e-05 -1.343173e-05 -1.710218e-06
-3.238195e-06 1.383250e-05 -2.599021e-07
-1.736904e-05 -2.509290e-06 -1.446802e-06
1.547472e-05 -3.790214e-21 1.862045e-06
-1.765312e-05 -3.608394e-06 -7.684364e-07
5.611247e-06 1.402410e-05 -1.675815e-06
3.270086e-06 -1.690119e-05 -1.702148e-06
1.614457e-05 8.087665e-06 -6.677794e-07
-1.736693e-05 -2.513418e-06 1.448212e-06
-2.118477e-06 1.418291e-05 7.602119e-07
1.082045e-05 -1.234914e-05 -1.977174e-06
1.931050e-06 -1.500770e-05 -1.692482e-06
-1.117967e-05 -8.828411e-06 -4.679408e-07
-1.262402e-06 -1.793655e-05 8.519660e-07
1.498803e-05 1.027589e-05 -4.877664e-22
1.469028e-05 -3.598080e-21 1.320580e-06
-5.572850e-06 -1.447806e-05 -1.876317e-06
-1.800896e-05 7.213040e-07 -7.557228e-07
-7.848032e-06 -1.617879e-05 8.501237e-07
9.062040e-06 -1.096302e-05 -3.667665e-07
-1.391146e-05 -3.011306e-06 4.172492e-07
-5.324083e-06 1.404757e-05 -1.619989e-06
-4.753426e-06 1.336963e-05 1.555528e-08
-6.471860e-06 1.433260e-05 1.938815e-06
5.124045e-06 1.470121e-05 1.894990e-06
-1.800945e-05 7.338726e-07 7.532762e-07
1.424732e-05 -3.489586e-21 4.765869e-07
-6.226862e-06 -1.689857e-05 7.891827e-07
-8.248300e-06 1.522668e-05 1.635447e-06
-8.245120e-06 -1.522938e-05 1.634846e-06
-1.195118e-05 7.923365e-06 7.574514e-07
1.384830e-05 -1.064197e-05 1.522153e-06
4.400496e-06 1.694526e-05 -1.485440e-06
-1.352601e-05 1.192473e-05 -7.344630e-07
[...]
POINT_DATA 1647
VECTORS 10.000GHz_fone_imag double
-8.051039e-04 -6.222818e-04 2.084716e-02
1.606747e-04 -3.049714e-04 2.251701e-02
5.552491e-04 7.454112e-04 2.166762e-02
-8.924026e-03 2.098791e-02 -4.219033e-02
3.005085e-03 1.852059e-02 -4.079807e-02
-1.418069e-02 -3.163748e-02 -5.357773e-03
2.691814e-02 -4.601471e-03 1.011614e-02
-2.727326e-02 -1.518062e-02 -3.261163e-02
-2.496845e-02 1.213315e-02 -3.226512e-02
8.933436e-03 -1.106903e-02 -4.718409e-02
8.265609e-03 8.515496e-03 -4.344042e-02
1.750584e-03 -1.078243e-02 1.946208e-02
2.369470e-02 -2.198239e-02 -8.312985e-03
-1.304173e-03 5.368597e-04 2.205950e-02
2.868622e-02 1.991170e-02 -8.061785e-03
1.699999e-02 2.447123e-02 6.842356e-03
1.847887e-02 -2.246242e-02 6.141647e-03
1.289324e-03 6.905031e-03 -4.608144e-02
1.613055e-04 1.321285e-03 -4.953321e-02
-1.388882e-02 -2.261041e-02 9.185695e-03
-4.969298e-03 -9.855492e-03 1.790491e-02
-5.365418e-03 -7.533487e-03 2.072779e-02
-5.423541e-03 6.996299e-03 2.145159e-02
5.988980e-03 8.117612e-03 1.951724e-02
4.427349e-05 6.090152e-05 1.976223e-02
-8.012169e-03 -3.104323e-02 -1.827226e-03
-3.617091e-03 -1.631721e-03 -5.094621e-02
-5.445057e-03 1.327863e-03 -4.750819e-02
-9.476961e-04 1.056378e-02 1.958275e-02
2.515750e-02 2.119365e-02 -7.055147e-03
-8.497676e-03 4.472653e-03 2.088753e-02
1.763468e-02 7.916010e-03 -4.353695e-02
3.642048e-03 3.267845e-02 -1.955348e-02
-1.969554e-02 1.676094e-02 6.613496e-03
9.568355e-03 -2.294534e-02 1.041989e-02
5.791508e-04 -3.821478e-04 1.997049e-02
-7.423502e-03 -2.087618e-02 -4.184376e-02
-1.006395e-02 -1.815583e-03 1.948552e-02
-9.855176e-03 1.842239e-03 2.036224e-02
-1.207259e-03 1.877804e-02 -4.143826e-02
-3.343539e-02 4.102358e-03 -7.851338e-04
-3.320562e-02 -4.163464e-03 -6.361453e-04
1.488454e-02 -1.946641e-02 1.210599e-02
1.610207e-02 1.899328e-02 1.250666e-02
5.415742e-03 3.305891e-02 -3.599921e-04
-6.436725e-03 -9.648507e-03 -4.963435e-02
1.855659e-04 -5.679861e-04 2.030726e-02
-6.607732e-03 8.273286e-03 -4.853582e-02
1.245838e-02 2.859163e-02 5.115592e-03
-8.607480e-03 2.260593e-02 1.136498e-02
1.169792e-03 9.216427e-03 2.018821e-02
1.481922e-02 2.946579e-02 -3.165360e-02
1.310452e-02 -2.860252e-02 -3.165027e-02
-6.799707e-04 -1.171008e-03 -5.057531e-02
9.095893e-03 -2.923914e-03 2.020556e-02
2.870693e-03 1.016115e-02 2.086830e-02
-3.400980e-02 1.329869e-04 -2.129845e-02
-1.073796e-04 1.078741e-03 2.130039e-02
3.368162e-02 -7.479251e-04 -1.861392e-02
-2.451809e-02 1.329275e-03 1.091924e-02
-2.427173e-02 -2.463246e-03 1.249197e-02
-3.108793e-02 -1.226719e-02 -5.623568e-04
-3.204648e-02 1.217692e-02 -7.208758e-04
-7.894710e-03 -3.381713e-02 -1.003287e-02
1.003102e-02 3.059433e-02 -3.093776e-02
1.809799e-02 3.052551e-02 -6.170284e-03
1.066841e-02 3.395681e-04 2.103428e-02
1.062609e-02 -8.074448e-04 2.125281e-02
-4.465343e-04 2.938411e-04 2.073172e-02
-1.778759e-02 2.074599e-02 -3.792034e-02
2.430822e-02 -2.538632e-02 -9.305835e-03
2.219951e-02 2.504130e-02 -1.144536e-02
5.138739e-03 -9.262256e-03 2.094529e-02
1.674626e-02 1.638289e-02 1.443615e-02
-2.127907e-02 -2.731074e-02 -2.186661e-02
1.447632e-02 -3.241448e-02 -7.749362e-03
1.019977e-02 -7.189072e-03 2.034412e-02
1.041099e-02 -3.292800e-02 -2.726304e-02
1.476802e-02 1.250288e-02 1.522615e-02
-5.415177e-04 2.169801e-04 2.215410e-02
-7.005352e-03 5.476514e-03 2.144477e-02
-2.075710e-02 -2.750601e-02 -4.462233e-03
-2.079994e-02 2.785298e-02 -5.265221e-03
-6.909234e-03 -6.090962e-03 2.087150e-02
-1.168197e-02 1.758577e-02 1.449132e-02
5.052973e-03 3.284687e-02 -1.962098e-02
-6.451675e-03 2.461465e-02 9.196461e-03
3.070518e-02 -5.831872e-03 -2.149748e-02
-8.287758e-03 4.581122e-03 1.886755e-02
-1.059437e-02 -3.938213e-03 1.938532e-02
-1.332537e-03 -1.224495e-04 2.192967e-02
9.633827e-03 -4.941108e-03 2.080590e-02
2.142469e-02 -2.909786e-03 1.255638e-02
2.363375e-02 2.512924e-03 1.202105e-02
1.075333e-02 -3.086860e-02 -6.855764e-03
-1.451002e-02 4.845107e-03 -4.284754e-02
2.973472e-02 -1.518350e-02 -2.360859e-02
1.888984e-02 1.490753e-02 8.556822e-03
1.747781e-02 -1.490182e-02 -4.330585e-02
-1.171306e-02 3.437154e-02 -1.936493e-02
-1.001484e-02 2.172683e-02 1.297350e-02
4.174557e-04 -5.706496e-04 2.054308e-02
-1.572758e-03 -3.318778e-02 -2.542321e-02
-6.569082e-03 -5.746076e-03 2.131694e-02
-6.463895e-03 -7.116071e-03 2.054768e-02
-1.045968e-02 -3.639469e-03 2.074696e-02
-1.200129e-02 -1.995521e-02 -3.946236e-02
8.561066e-03 -3.795710e-03 1.968601e-02
7.424072e-03 2.242396e-03 1.943962e-02
9.086148e-03 2.158366e-02 1.359960e-02
7.998266e-03 -2.025082e-02 1.238689e-02
-2.140323e-02 2.497621e-02 -1.890886e-02
2.576055e-04 3.427743e-04 2.248259e-02
1.359542e-03 -3.090047e-04 2.111421e-02
-6.070489e-03 -8.220610e-03 2.067638e-02
1.134312e-02 -1.972929e-02 1.287383e-02
-1.468763e-02 3.273717e-02 -1.181559e-02
2.232591e-02 2.107556e-02 -2.564198e-02
3.365592e-02 1.116368e-02 -1.849250e-02
-2.667860e-02 -1.992261e-02 -2.917831e-02
-2.700837e-02 1.992436e-02 -2.605414e-02
-9.037963e-03 3.096246e-03 2.070748e-02
-2.073522e-02 2.880188e-02 -7.605932e-03
5.056029e-03 7.675671e-03 2.133225e-02
1.606208e-04 5.738801e-04 2.222742e-02
4.165344e-03 1.304323e-02 -4.275039e-02
7.340789e-03 -1.576774e-02 -4.665024e-02
6.661525e-03 -5.594076e-03 2.105349e-02
1.083908e-02 -2.365778e-02 -3.474498e-02
-6.330778e-03 2.779103e-02 -3.834491e-02
-2.132507e-02 -2.586333e-02 -1.657741e-02
-3.101615e-02 1.379372e-02 -2.035394e-02
-1.461505e-02 -2.050652e-02 -4.039033e-02
5.996889e-03 7.190303e-03 2.028854e-02
-3.019411e-03 -8.614380e-03 2.040677e-02
-1.211811e-03 -1.523504e-04 2.106975e-02
-3.391441e-02 -3.286794e-03 -1.029856e-02
1.244280e-02 3.287479e-02 -7.969704e-03
-3.588494e-03 -3.185675e-02 2.847113e-03
1.098910e-03 3.224537e-02 -1.221347e-02
-2.380623e-02 2.506781e-03 -4.022770e-02
-8.404996e-03 -4.277856e-03 2.047170e-02
9.307673e-03 -2.120018e-03 1.776819e-02
-2.179571e-02 1.357201e-02 1.132094e-02
-8.229136e-03 1.702150e-03 2.069381e-02
-8.769809e-03 -1.681161e-03 1.860838e-02
-4.685068e-04 1.221506e-04 2.200452e-02
7.900680e-04 1.086032e-02 2.055427e-02
-3.269810e-02 -2.245456e-03 -1.848225e-02
-3.572110e-02 3.150065e-03 -2.171678e-02
-3.952153e-03 8.474127e-03 2.092391e-02
-1.528377e-03 9.239878e-03 2.065458e-02
4.550216e-03 6.229145e-03 -4.520739e-02
-2.627592e-02 2.051528e-02 -9.215764e-03
4.904012e-03 2.255314e-02 1.044191e-02
-1.332094e-03 -8.176553e-03 2.100086e-02
2.764842e-02 1.698278e-02 -2.835846e-02
-6.064264e-04 9.260129e-04 2.227316e-02
1.949759e-02 -2.163893e-02 1.718529e-03
2.261361e-02 2.269953e-02 2.509846e-03
2.904140e-03 -3.081842e-02 4.037282e-03
-1.958606e-02 -1.485612e-02 1.276050e-02
9.157889e-03 -3.324257e-03 2.018402e-02
-2.664177e-02 -1.114364e-02 7.924692e-03
2.092572e-02 -1.450768e-02 1.103298e-02
1.581567e-02 1.119586e-02 1.630162e-02
-2.112728e-03 -3.065222e-02 1.608673e-03
1.423893e-02 2.235061e-02 9.019474e-03
-7.946731e-04 -2.208209e-04 2.073500e-02
6.914807e-04 -1.625063e-02 -4.613371e-02
1.616725e-02 1.092347e-02 1.305378e-02
-4.915212e-03 -8.434178e-03 1.998496e-02
7.534730e-03 -3.069048e-02 1.170575e-03
4.900920e-03 6.312060e-03 -4.719862e-02
-3.194925e-03 8.144775e-03 2.108919e-02
-2.971139e-02 1.219666e-03 7.135052e-03
1.994690e-02 -1.742660e-02 7.602992e-03
2.992080e-02 -6.140638e-04 6.790374e-03
-2.450337e-02 -2.102049e-02 -8.605361e-03
-1.092168e-02 4.468792e-05 2.068224e-02
-8.784752e-03 -1.495763e-02 -4.220792e-02
-1.859638e-02 1.679839e-02 1.148444e-02
2.094388e-02 -2.962346e-02 -1.065722e-02
2.172838e-03 -1.005748e-02 2.033238e-02
-7.215262e-03 -5.892416e-03 1.950986e-02
-2.122558e-02 2.563246e-02 -1.785769e-02
-2.032203e-02 -2.421006e-02 -2.009265e-02
-2.550000e-03 -3.432122e-02 -1.438979e-02
-4.058269e-03 -2.691507e-02 -3.368491e-02
1.262142e-02 1.687252e-03 -4.368653e-02
-2.260873e-02 2.996815e-04 1.214986e-02
1.501058e-02 -3.419385e-03 -4.737722e-02
-1.015632e-03 8.555381e-03 2.103932e-02
-8.892681e-03 -2.061543e-02 1.258261e-02
5.324264e-03 8.640267e-03 2.082731e-02
5.915179e-03 -7.608148e-03 1.926374e-02
3.729236e-03 5.589861e-03 -4.666708e-02
5.415480e-03 5.139807e-03 1.978972e-02
-3.240538e-03 7.035093e-03 2.013398e-02
1.483587e-02 -4.200363e-03 -4.840400e-02
2.915206e-02 1.522329e-02 -2.715379e-02
-3.050004e-02 5.617769e-04 3.999763e-03
7.653130e-03 9.269769e-04 1.903671e-02
-5.414539e-03 -2.946710e-02 1.525797e-03
-5.646928e-03 -1.642182e-02 -4.178588e-02
2.562416e-02 2.055375e-02 -4.045669e-05
-2.062698e-03 2.009015e-03 -4.909378e-02
-4.594944e-03 -4.276735e-03 -5.077736e-02
9.186398e-03 3.301706e-03 1.891167e-02
1.525545e-02 -1.855250e-02 1.267195e-02
1.265335e-03 6.006951e-03 -4.871708e-02
-1.768451e-02 -1.979212e-03 1.509221e-02
-3.650650e-02 -1.146397e-04 -1.586258e-02
-9.754878e-03 -2.078883e-03 2.135584e-02
1.432461e-02 3.043920e-02 -2.260760e-02
4.145676e-03 -2.296647e-02 1.224582e-02
6.935633e-03 1.954657e-03 2.026490e-02
1.754877e-02 3.574149e-03 1.673379e-02
2.451925e-03 -1.935651e-02 -4.580180e-02
2.157745e-02 -2.287363e-02 3.273919e-03
3.324330e-03 -3.363011e-02 -2.365926e-02
-7.162532e-03 -6.180080e-03 -4.737784e-02
4.568941e-04 8.511828e-03 2.029148e-02
-2.648758e-04 1.556840e-04 2.239353e-02
-2.448769e-02 -1.166551e-03 -3.392938e-02
-1.158747e-02 -2.986885e-02 -1.672014e-02
-9.350086e-03 1.334210e-03 2.033985e-02
4.357727e-03 8.558704e-03 1.923770e-02
2.852704e-03 -3.051161e-03 -4.471795e-02
9.441015e-03 2.574478e-03 -4.411151e-02
-1.325464e-02 3.085985e-02 -2.716341e-02
-1.328548e-03 2.038148e-03 -4.546394e-02
1.374447e-02 -2.994792e-02 -1.156757e-02
-1.104659e-02 -3.118672e-02 -9.489005e-03
9.019400e-03 -4.304007e-04 1.881423e-02
-1.343360e-02 3.871203e-04 -4.671923e-02
3.997927e-03 9.024491e-03 1.857450e-02
9.738887e-03 -1.883217e-02 1.462273e-02
1.048261e-02 2.033130e-02 1.272170e-02
1.427697e-02 -8.607379e-03 -4.638105e-02
-1.497034e-02 1.251106e-02 1.421316e-02
4.811926e-03 1.719101e-02 1.486750e-02
-6.768354e-03 5.955311e-03 2.058076e-02
-2.206164e-02 -4.777825e-03 1.129861e-02
-1.718383e-02 -9.358192e-03 -4.608481e-02
4.414902e-03 -8.213918e-03 2.149336e-02
1.111654e-02 1.844433e-04 -4.925285e-02
3.143375e-02 1.127221e-02 5.034750e-04
2.840666e-02 -1.023666e-02 -1.885942e-03
-3.842299e-03 -2.053845e-02 -4.369538e-02
1.008361e-03 -7.815609e-03 1.933256e-02
-3.484065e-03 -1.674339e-02 -4.535771e-02
-9.391407e-03 -2.634293e-02 -2.947205e-02
-8.606174e-03 -3.078532e-03 1.893862e-02
-8.818406e-03 3.987040e-03 2.126039e-02
9.289128e-04 -3.423838e-02 -1.119341e-02
-2.095893e-02 -6.312271e-03 -4.270828e-02
2.958375e-02 -5.819762e-05 -3.343808e-02
-7.985149e-03 5.828216e-03 -4.407946e-02
-9.448461e-03 5.114282e-04 1.885432e-02
-1.013686e-02 -1.040065e-03 1.906869e-02
-6.240369e-03 -3.461920e-02 -7.222249e-03
6.686507e-03 -3.111457e-03 2.005923e-02
-1.839046e-03 1.820199e-02 -4.730238e-02
1.376911e-03 2.948954e-03 -4.881396e-02
4.460567e-04 -1.762373e-03 -4.903272e-02
2.863523e-03 -1.977982e-02 1.389811e-02
7.427495e-03 2.027788e-02 1.153133e-02
3.261555e-02 1.383343e-04 -1.538490e-02
-1.223761e-02 1.806388e-02 1.337462e-02
-1.393740e-02 -2.002515e-02 1.283238e-02
-1.052305e-02 -2.207693e-02 1.237432e-02
-1.196696e-02 2.286828e-02 1.228482e-02
1.849757e-02 2.672525e-04 1.463784e-02
1.901804e-02 -5.691619e-04 1.452185e-02
-7.137284e-03 2.375264e-03 2.078943e-02
-6.752822e-03 -3.450915e-03 2.068044e-02
-3.177282e-02 6.685836e-03 3.011328e-03
-1.205589e-03 2.294617e-02 1.346229e-02
3.264654e-02 8.721578e-06 1.955291e-03
1.077824e-02 -3.368788e-02 -1.804313e-02
1.349434e-02 2.963948e-02 -8.454257e-03
7.833619e-03 1.930517e-02 1.374444e-02
2.017053e-03 -1.187480e-02 -4.329346e-02
6.252821e-03 -2.068862e-02 1.507543e-02
6.578791e-03 -3.953103e-03 2.032639e-02
-6.269390e-03 5.503676e-03 2.123606e-02
6.160021e-03 4.614588e-03 2.021986e-02
6.700088e-03 -4.587496e-03 2.075968e-02
-2.683546e-03 5.810472e-03 1.924418e-02
2.115127e-02 1.223383e-04 1.207165e-02
1.601624e-03 9.808514e-03 2.110556e-02
3.351918e-02 -9.373026e-03 -1.349236e-02
2.670222e-02 1.916498e-02 -2.765192e-02
8.133979e-03 4.628902e-03 1.987027e-02
3.272565e-02 7.932168e-03 -2.239262e-03
2.219972e-02 -2.532797e-02 -2.535328e-02
-2.604393e-05 -2.081418e-02 1.552207e-02
6.172679e-04 2.407420e-02 1.321373e-02
-1.584279e-04 -8.357231e-03 1.956316e-02
-4.493834e-03 3.355623e-02 -2.509136e-03
1.174167e-02 -5.468071e-05 2.109151e-02
-5.973349e-03 -2.228150e-02 1.337727e-02
7.748793e-03 -1.149651e-02 -4.469320e-02
6.479143e-03 1.065796e-02 -4.273705e-02
-7.230690e-03 2.936297e-02 -3.113901e-02
-1.322287e-02 -1.738286e-02 1.395809e-02
-1.558547e-02 1.779124e-02 1.271131e-02
-1.872145e-02 -4.237543e-03 1.552692e-02
-1.765586e-02 5.124057e-03 1.471798e-02
-1.402698e-02 -2.931587e-02 1.140861e-03
-1.654035e-02 -1.606016e-02 1.182387e-02
-4.146153e-04 5.037882e-03 -4.940225e-02
-1.829916e-02 1.610142e-02 1.226772e-02
-3.172859e-02 -1.284378e-02 -2.788374e-03
-3.167704e-02 1.422027e-02 -1.923731e-03
-2.739261e-02 1.419119e-02 -2.415094e-02
-2.836747e-02 -1.412572e-02 -2.264986e-02
1.946415e-03 7.704620e-03 2.117070e-02
1.882254e-02 -1.525208e-02 1.090836e-02
1.734161e-02 -3.094049e-02 -8.768733e-03
-1.094094e-02 -3.164785e-02 -1.237763e-02
3.679021e-03 -8.183196e-03 2.026187e-02
1.335490e-03 1.152236e-03 -5.063035e-02
3.249793e-03 -7.388624e-03 2.163137e-02
2.507496e-03 -3.311217e-02 -2.627828e-02
-1.329367e-02 -1.975337e-02 -4.112153e-02
-1.494180e-02 1.975005e-02 -4.042821e-02
-2.699550e-03 -5.963294e-03 1.995569e-02
9.886609e-03 1.640330e-02 1.482970e-02
-5.953704e-04 4.601779e-03 -5.113744e-02
-1.153628e-02 -7.978243e-03 -4.278047e-02
3.274609e-02 -8.917424e-03 -6.311769e-04
3.006280e-02 9.342451e-03 6.345292e-04
-2.391915e-04 -4.802949e-04 2.262444e-02
3.816499e-03 2.494486e-03 -4.771447e-02
4.868195e-03 1.279752e-02 -4.248270e-02
-1.946504e-02 1.887826e-02 -3.777287e-02
-7.942771e-03 3.775888e-04 2.020499e-02
-1.709156e-02 6.438089e-03 -4.472556e-02
-1.728829e-02 -7.389131e-03 -4.455250e-02
2.304989e-02 -2.246173e-02 -3.005984e-02
4.725435e-03 -6.157147e-03 2.041357e-02
6.785950e-03 6.108888e-03 2.075107e-02
-9.854749e-03 -2.519866e-02 1.063949e-02
2.972718e-02 -1.692349e-02 -1.542894e-02
-2.431644e-02 -2.565399e-02 -5.415991e-03
3.036264e-02 1.448037e-02 -1.301232e-02
-5.777629e-03 -1.977195e-04 -4.706200e-02
7.624220e-03 3.555871e-03 2.095905e-02
-7.960312e-03 2.350248e-02 1.119235e-02
-1.531248e-02 1.308309e-02 1.629818e-02
1.502879e-02 9.403629e-03 -4.112987e-02
-1.912040e-02 -2.110044e-02 8.032764e-03
-4.675087e-03 -2.175470e-02 1.451745e-02
-1.651374e-02 2.620706e-02 -2.502646e-02
-2.895018e-02 -1.925878e-02 -3.257145e-03
-2.295846e-02 2.182827e-02 -5.839180e-03
-1.968920e-02 2.356864e-02 6.267743e-03
-3.128654e-02 -9.466178e-03 -5.181849e-03
-3.357876e-02 8.203960e-03 -3.859059e-03
2.293065e-02 -9.752933e-03 1.280745e-02
2.149634e-02 -6.958283e-03 -4.318653e-02
2.230484e-02 5.606020e-03 1.282721e-02
9.837603e-03 -1.870228e-02 1.233393e-02
-1.040784e-02 -2.475844e-02 -3.976803e-02
-5.365340e-03 -1.984603e-02 1.542327e-02
1.658217e-02 1.502391e-02 1.309441e-02
8.236432e-03 6.952929e-03 2.018460e-02
1.782333e-02 -1.477652e-02 1.376742e-02
2.413319e-03 3.961565e-03 -4.800854e-02
3.401483e-03 -2.340174e-03 -4.535398e-02
9.573128e-03 2.577313e-02 9.765667e-03
-1.963892e-02 -1.971978e-02 -3.831035e-02
8.351162e-03 -3.193291e-02 -3.291856e-04
3.414299e-02 -7.169528e-03 -1.944808e-02
3.458805e-02 8.117558e-03 -1.853932e-02
1.442077e-02 1.809594e-02 1.433176e-02
1.439246e-02 -1.761896e-02 1.446315e-02
1.713067e-02 2.608377e-02 -3.386772e-02
2.200744e-02 1.921275e-02 8.395599e-03
-3.415300e-03 -8.646700e-03 2.090007e-02
6.499254e-03 5.393891e-03 2.142925e-02
6.507314e-03 -5.643412e-03 1.945209e-02
-1.077902e-02 2.236044e-02 -3.696371e-02
1.946345e-02 8.308947e-03 1.502753e-02
-8.305505e-03 3.382471e-02 -2.024953e-02
7.228993e-04 -9.377067e-03 2.047755e-02
2.557571e-02 1.158211e-02 8.760036e-03
1.404731e-02 1.461837e-02 1.558938e-02
7.865317e-03 -4.536199e-03 1.971460e-02
1.751858e-03 1.738811e-02 -4.202367e-02
3.530329e-02 -4.935164e-03 -1.506995e-02
3.588927e-02 4.661315e-03 -1.457786e-02
-6.945455e-03 5.159860e-03 2.092081e-02
-2.628838e-03 -3.421203e-02 -2.082320e-02
1.060109e-02 1.581675e-02 1.669868e-02
-8.108492e-03 3.928310e-03 -4.894137e-02
1.691716e-03 -7.489493e-03 2.120563e-02
2.077888e-02 9.516722e-03 1.334999e-02
7.189201e-03 -3.253682e-02 -1.126863e-02
1.674030e-02 -2.494651e-02 -3.051353e-02
1.211428e-02 -2.952042e-02 -1.683154e-02
8.215096e-03 3.452368e-02 -2.059772e-02
2.918114e-02 1.887178e-02 -6.825720e-03
-1.593330e-03 -1.471597e-04 -5.013114e-02
-1.021580e-02 -1.891866e-02 1.513474e-02
-1.327034e-02 1.255172e-02 -4.518371e-02
-2.952603e-03 1.854804e-02 1.680200e-02
-4.135246e-04 4.595384e-03 -5.105012e-02
-2.032985e-02 -1.058215e-02 1.381693e-02
-2.064462e-02 9.526702e-03 1.240132e-02
9.001609e-04 9.752762e-04 -5.003405e-02
6.501230e-03 2.613259e-03 2.117946e-02
-9.788927e-03 -1.299079e-02 1.566409e-02
-1.124637e-02 1.419458e-02 1.468090e-02
1.731007e-02 1.958010e-02 1.083301e-02
-1.536325e-02 -1.211935e-02 1.619407e-02
-1.051157e-02 3.166381e-02 3.138362e-04
1.649060e-02 -2.664628e-02 -2.893835e-02
8.471670e-03 -1.671514e-03 2.125988e-02
7.065315e-03 1.782668e-03 1.958243e-02
-1.074775e-02 -1.232419e-02 -4.055154e-02
2.526154e-03 -2.663254e-03 -4.755663e-02
5.704127e-03 -4.745369e-03 2.137875e-02
2.499675e-02 2.243705e-02 -2.525675e-02
-2.818402e-02 1.330381e-02 4.743960e-03
-8.471579e-03 2.052031e-02 -3.559396e-02
2.505715e-02 -1.324918e-02 8.604094e-03
-1.345628e-02 3.232976e-02 -1.122620e-02
-4.507410e-03 3.270499e-02 -5.124155e-03
3.172617e-02 -3.328671e-04 -2.339786e-02
2.960783e-02 5.365628e-04 -2.398731e-02
-2.127387e-02 5.512624e-03 1.361155e-02
3.037629e-02 1.647536e-02 -6.461452e-03
-3.275019e-02 3.744782e-03 -1.616978e-02
1.230731e-04 8.200944e-03 2.093020e-02
-1.229545e-02 1.472734e-02 -4.376301e-02
-1.307197e-02 2.076351e-02 -3.869460e-02
-1.667805e-02 3.154062e-02 -7.690949e-03
7.200390e-04 3.347547e-03 -5.075064e-02
2.222961e-02 -2.235813e-02 -2.272275e-03
-8.335422e-03 3.167942e-02 -2.267523e-03
2.088397e-02 1.257495e-02 1.238651e-02
-1.895584e-02 2.959904e-02 -6.255515e-03
-3.790234e-04 1.423694e-04 2.218170e-02
2.862994e-02 -1.562235e-02 -5.617963e-03
-3.454040e-02 -3.137686e-03 -2.108713e-02
-7.855334e-03 5.080700e-03 2.126973e-02
2.970373e-02 -1.474947e-02 -1.030701e-02
-1.910057e-02 1.017006e-02 -4.413409e-02
-7.642491e-03 -4.892044e-03 1.877555e-02
-2.600521e-02 2.480939e-02 -1.106519e-02
-2.500742e-02 -2.492669e-02 -1.110175e-02
-2.642610e-02 -2.341407e-02 -1.584608e-02
-2.565776e-02 2.255725e-02 -1.687662e-02
8.022583e-03 3.457950e-02 -1.533728e-02
-2.393274e-02 -9.743846e-03 7.842324e-03
2.975408e-02 -8.468535e-03 5.042662e-03
1.871637e-02 -8.607348e-03 1.425054e-02
5.493038e-03 -1.895665e-02 1.376342e-02
2.790089e-02 -1.985260e-02 2.782796e-04
2.421975e-02 -2.053073e-02 -3.213027e-02
7.550876e-03 -4.129352e-04 2.111022e-02
-2.883637e-02 -7.739917e-03 -3.604357e-02
-2.461545e-02 7.231810e-03 -3.207691e-02
1.706846e-02 6.779783e-03 -4.206053e-02
-2.194247e-02 2.101798e-02 -1.056335e-03
-2.318867e-02 1.015839e-02 9.207867e-03
-2.321694e-02 -2.118374e-02 -1.065225e-04
-1.934944e-02 2.161456e-02 7.274645e-03
-1.902683e-02 -2.133543e-02 3.929681e-03
-1.686862e-02 -1.329677e-02 1.497757e-02
-1.163917e-02 1.286561e-02 -4.645435e-02
1.059550e-02 -1.782066e-02 1.232919e-02
3.252042e-02 -1.221619e-02 -9.124198e-03
-3.168543e-03 -1.579549e-02 -4.582161e-02
1.617728e-03 -1.346466e-02 -4.333292e-02
-9.474230e-03 -1.040477e-02 -4.459399e-02
-3.095668e-03 -4.898026e-03 -4.661122e-02
6.335303e-03 -3.487299e-02 -5.542890e-03
-1.249356e-03 7.485541e-03 1.925678e-02
-6.711102e-03 1.716593e-02 1.761948e-02
7.853077e-03 -3.684027e-04 2.148178e-02
8.389462e-03 7.218801e-04 2.158775e-02
-3.460271e-03 1.914536e-02 -4.542958e-02
1.940662e-02 -1.196489e-02 1.187220e-02
-2.351075e-03 -2.329860e-02 1.273811e-02
1.085890e-02 -3.162202e-02 -1.495673e-03
1.660996e-02 -2.193732e-02 -3.582243e-02
1.135658e-02 -3.034994e-02 -2.573837e-02
-5.289211e-03 -4.137090e-03 2.013356e-02
-4.447550e-03 5.200337e-03 2.092424e-02