# vtk DataFile Version 2.0
Electric current density generated by TTH
ASCII
DATASET UNSTRUCTURED_GRID
POINTS 14730 double
4.258442e-05 -1.043018e-20 -9.144850e-23
4.253213e-05 2.109646e-06 -9.144850e-23
3.641142e-05 2.208261e-05 -9.144850e-23
3.021519e-05 -3.000792e-05 -9.144850e-23
-3.957828e-05 -1.559170e-05 -1.790229e-07
-3.808385e-05 1.895155e-05 -1.790229e-07
-4.253649e-05 4.336778e-07 -1.790229e-07
3.719486e-06 -4.237578e-05 -1.790229e-07
-3.472150e-05 2.457558e-05 -1.790229e-07
-3.015821e-05 3.000039e-05 -1.790229e-07
-3.696511e-05 -2.105073e-05 -1.787837e-07
1.131655e-05 -4.100582e-05 -1.790228e-07
1.096201e-05 -4.050151e-05 -2.752303e-07
-1.208555e-05 4.079166e-05 -1.683073e-07
3.037998e-05 -2.984108e-05 -9.144850e-23
3.872853e-05 1.612404e-05 -2.678739e-07
3.872853e-05 -1.612404e-05 2.678739e-07
-9.635206e-06 4.142676e-05 -1.899312e-07
2.143423e-05 3.674581e-05 1.760006e-07
4.041765e-05 1.327439e-05 1.734272e-07
4.033259e-05 -1.351919e-05 -1.801993e-07
1.041859e-05 4.124102e-05 -1.826815e-07
1.129926e-06 4.193624e-05 2.683516e-07
2.554531e-05 3.327705e-05 -2.683516e-07
2.554531e-05 -3.327705e-05 2.683516e-07
3.054384e-05 -2.967333e-05 -9.144850e-23
-3.025589e-06 4.184221e-05 2.683527e-07
3.134595e-05 2.771907e-05 -6.802295e-08
4.058010e-05 1.056652e-05 -2.494265e-07
2.340123e-05 3.553641e-05 -1.578061e-07
2.340123e-05 -3.553641e-05 1.578061e-07
1.177657e-05 -4.026048e-05 -2.644747e-07
2.114508e-05 3.628301e-05 -3.044341e-07
-6.356703e-06 4.140272e-05 -1.869373e-07
4.104478e-05 -1.117263e-05 -1.798803e-07
9.800190e-06 4.109128e-05 -3.719300e-07
3.070678e-05 -2.950469e-05 -9.144850e-23
-9.799556e-06 4.067883e-05 -6.004348e-08
-4.092879e-05 1.085484e-05 3.489903e-07
-4.068983e-05 -1.171885e-05 3.489903e-07
-4.211030e-05 4.440281e-06 3.489903e-07
1.052411e-05 -4.051103e-05 1.145902e-07
1.076709e-05 -4.114093e-05 -1.996879e-07
4.205297e-05 -1.047544e-06 -3.440423e-07
4.205297e-05 1.047544e-06 3.440423e-07
4.145552e-05 -6.485709e-06 2.761709e-07
4.145552e-05 6.485709e-06 -2.761709e-07
3.086879e-05 -2.933515e-05 -9.144850e-23
3.243064e-05 -2.752155e-05 1.865520e-07
-2.474174e-05 -3.404422e-05 -3.515075e-07
-3.767538e-05 -1.875440e-05 -3.515075e-07
-3.647095e-05 2.100077e-05 -3.515075e-07
-7.691247e-06 -4.137640e-05 -3.515075e-07
3.151999e-05 -2.788677e-05 3.515893e-07
3.971940e-05 -1.395452e-05 -3.562796e-07
3.661126e-05 2.035970e-05 -1.931748e-07
2.088410e-05 3.683814e-05 -3.480799e-07
2.119771e-05 -3.689057e-05 1.626819e-07
3.102986e-05 -2.916472e-05 -9.144850e-23
4.136028e-05 -7.140429e-06 -2.868946e-07
4.136028e-05 7.140429e-06 2.868946e-07
1.981638e-05 -3.763901e-05 1.823743e-07
1.735462e-05 3.807114e-05 -4.246258e-08
-5.105537e-08 -4.184002e-05 -4.197062e-08
-1.340494e-05 3.963427e-05 -3.951062e-08
-2.969165e-05 2.947874e-05 -4.197062e-08
-3.478837e-05 2.324563e-05 -4.197062e-08
-1.427391e-05 -3.932996e-05 -4.197062e-08
-4.881168e-06 -4.155403e-05 -3.898464e-08
3.118999e-05 -2.899340e-05 -9.144850e-23
-2.679598e-05 -3.213356e-05 -4.197062e-08
-2.154306e-05 -3.586763e-05 -4.197062e-08
9.531096e-06 -4.073968e-05 -3.898454e-08
-1.466549e-05 3.976483e-05 -3.314219e-07
-1.793315e-05 -3.840208e-05 -3.314218e-07
-3.985103e-05 -1.442960e-05 -3.314218e-07
1.088198e-06 -4.236902e-05 -3.314218e-07
-3.086919e-05 2.904155e-05 -3.314218e-07
-3.301421e-05 2.657780e-05 -3.314218e-07
-3.548228e-05 -2.318029e-05 -3.314218e-07
3.134918e-05 -2.882121e-05 -9.144850e-23
-1.338240e-05 -4.021479e-05 -3.314218e-07
-2.083754e-05 -3.690684e-05 -3.314218e-07
4.253282e-05 1.976609e-07 -1.886113e-07
4.253282e-05 -1.976609e-07 1.886113e-07
3.357572e-05 2.579958e-05 -3.491972e-07
4.190505e-05 4.090254e-06 3.577473e-07
4.190505e-05 -4.090254e-06 -3.577473e-07
4.234677e-05 -1.912480e-06 -3.277249e-07
4.234677e-05 1.912480e-06 3.277249e-07
4.061007e-05 -1.264493e-05 -1.887740e-07
3.150741e-05 -2.864814e-05 -9.144850e-23
1.876057e-05 -3.788988e-05 3.669373e-07
3.471625e-05 2.335401e-05 4.574056e-08
1.755576e-05 3.852410e-05 3.519484e-07
-3.196610e-05 -2.703903e-05 1.476701e-07
-4.142325e-05 6.087270e-06 1.476701e-07
-2.546799e-05 3.323134e-05 1.476701e-07
-4.067245e-05 -9.934385e-06 1.476701e-07
-2.146352e-05 3.594798e-05 1.476701e-07
-1.717235e-05 3.818443e-05 1.476701e-07
-3.999695e-05 1.237677e-05 1.476701e-07
3.166469e-05 -2.847420e-05 -9.144850e-23
4.144316e-05 5.828636e-06 -9.890757e-08
4.144316e-05 -5.828636e-06 9.890757e-08
2.189721e-06 4.190807e-05 2.810247e-07
2.638650e-05 -3.263179e-05 2.810247e-07
2.638650e-05 3.263179e-05 -2.810247e-07
-1.968207e-06 4.191905e-05 2.810250e-07
3.647091e-05 2.072528e-05 2.653098e-07
-3.766420e-05 -1.935600e-05 -3.478383e-07
-7.204024e-06 -4.172947e-05 -3.478383e-07
-3.642337e-05 2.160058e-05 -3.478383e-07
3.628926e-05 2.228278e-05 -9.144850e-23
3.182101e-05 -2.829940e-05 -9.144850e-23
-2.533315e-05 -3.393344e-05 -3.478383e-07
3.508234e-05 2.320645e-05 3.428280e-07
3.268805e-05 -2.721102e-05 1.912255e-07
1.069764e-05 4.100880e-05 -3.323768e-07
1.078965e-05 4.042341e-05 -2.607475e-08
3.427705e-05 2.477213e-05 3.645877e-07
3.427705e-05 -2.477213e-05 -3.645877e-07
3.246373e-05 -2.690918e-05 3.706762e-07
1.125437e-05 -4.041450e-05 2.691327e-07
3.667242e-05 2.019012e-05 1.350173e-07
3.197637e-05 -2.812374e-05 -9.144850e-23
3.192476e-05 2.761957e-05 -3.733543e-07
9.840701e-06 -4.079338e-05 -2.795417e-07
-5.172854e-06 -4.163823e-05 -2.748218e-07
-2.137239e-05 -3.610708e-05 -2.748218e-07
-2.666411e-05 -3.239639e-05 -2.748218e-07
-1.370961e-05 3.965535e-05 -2.748218e-07
-3.503577e-05 2.308670e-05 -2.748218e-07
-2.996491e-05 2.937014e-05 -2.748218e-07
-1.406054e-05 -3.953229e-05 -2.748218e-07
2.183996e-07 -4.195775e-05 -2.748218e-07
3.213075e-05 -2.794723e-05 -9.144850e-23
3.498895e-05 -2.306972e-05 -2.206894e-07
2.022665e-05 3.741738e-05 1.866391e-07
1.761498e-05 3.847161e-05 -3.593070e-07
3.662401e-05 -2.136162e-05 -3.228790e-07
3.594769e-05 2.276037e-05 1.623562e-07
3.072682e-05 -2.941759e-05 -1.792273e-07
3.076148e-05 2.938194e-05 1.784633e-07
7.590345e-06 4.185593e-05 -1.792228e-07
-9.176657e-06 4.114860e-05 -3.697813e-07
-1.867007e-05 -3.822235e-05 1.794921e-07
3.228416e-05 -2.776988e-05 -9.144850e-23
-4.226137e-05 -4.847249e-06 1.794921e-07
-3.266385e-05 2.725055e-05 1.794921e-07
-3.693518e-05 -2.110242e-05 1.794921e-07
6.072476e-06 -4.210279e-05 1.794921e-07
-4.001816e-05 -1.443056e-05 1.756858e-07
-3.907949e-05 1.680218e-05 1.794921e-07
-3.520021e-05 -2.388441e-05 1.794921e-07
-1.100308e-05 -4.109077e-05 1.794921e-07
4.068996e-05 1.151311e-05 3.654765e-07
-2.080314e-05 -3.644101e-05 2.771793e-07
3.243659e-05 -2.759168e-05 -9.144850e-23
-1.793474e-05 -3.793498e-05 2.771793e-07
-2.614935e-05 -3.282232e-05 2.811498e-07
-5.836101e-06 -4.155758e-05 2.811498e-07
-4.161631e-05 -5.359673e-06 2.763754e-07
-3.256023e-05 2.646789e-05 2.771793e-07
-1.433250e-05 3.943726e-05 2.771793e-07
-3.042501e-05 2.889700e-05 2.771793e-07
-3.540484e-05 2.252976e-05 2.811498e-07
-3.833699e-05 1.707279e-05 2.823092e-07
-1.343787e-05 -3.975099e-05 2.771793e-07
3.258804e-05 -2.741264e-05 -9.144850e-23
5.454025e-06 -4.161080e-05 2.823092e-07
-3.670379e-05 -2.034513e-05 2.811498e-07
-3.928911e-05 -1.475500e-05 2.837399e-07
-3.501964e-05 -2.311585e-05 2.771793e-07
8.783375e-07 -4.195171e-05 2.771793e-07
-1.028965e-05 -4.067882e-05 2.763754e-07
1.048697e-05 -4.062763e-05 2.756958e-07
1.790760e-05 3.858626e-05 1.781579e-07
2.245409e-05 3.593042e-05 3.380428e-07
2.245409e-05 -3.593042e-05 -3.380428e-07
3.273850e-05 -2.723277e-05 -9.144850e-23
3.553279e-05 2.338394e-05 1.822873e-07
-2.693619e-05 -3.292372e-05 1.792701e-07
-5.368456e-06 -4.219845e-05 1.792701e-07
-1.401732e-05 4.016273e-05 1.792701e-07
3.464598e-07 -4.253716e-05 1.792701e-07
-3.558893e-05 2.330145e-05 1.792701e-07
-3.046669e-05 2.968687e-05 1.792701e-07
-1.413711e-05 -4.012072e-05 1.792701e-07
-2.156026e-05 -3.666995e-05 1.792701e-07
1.008788e-05 -4.132511e-05 1.792700e-07
3.288796e-05 -2.705208e-05 -9.144850e-23
3.571264e-05 -2.213918e-05 -3.197513e-07
2.169147e-05 -3.633782e-05 3.572098e-07
1.905134e-05 3.756032e-05 -3.609813e-07
3.807321e-05 -1.893729e-05 -2.054367e-07
3.807321e-05 1.893729e-05 2.054367e-07
2.957490e-05 -2.966350e-05 -1.870508e-07
2.957490e-05 2.966350e-05 1.870508e-07
6.513640e-06 4.137838e-05 -1.870487e-07
2.128386e-05 3.682370e-05 -1.904480e-07
-3.968832e-05 -1.462208e-05 3.635298e-07
3.303643e-05 -2.687056e-05 -9.144850e-23
4.161077e-05 -4.519364e-06 -1.138732e-07
4.161077e-05 4.519364e-06 1.138732e-07
3.688997e-05 2.082193e-05 -3.420996e-07
-1.363732e-05 4.030334e-05 -1.607604e-07
4.066504e-05 -1.161319e-05 -3.647505e-07
-3.690663e-05 -2.020500e-05 3.478616e-07
-2.604479e-05 -3.304559e-05 3.478616e-07
-3.561579e-05 2.240216e-05 3.478616e-07
-6.070079e-06 -4.163527e-05 3.478616e-07
-9.090261e-06 4.096547e-05 -2.780847e-07
3.318390e-05 -2.668823e-05 -9.144850e-23
-4.136707e-05 7.074820e-06 2.831602e-07
-3.979393e-05 1.331347e-05 2.781226e-07
-2.627633e-05 3.271636e-05 2.781226e-07
-4.097961e-05 -9.026482e-06 2.781226e-07
-3.141278e-05 -2.782163e-05 2.781226e-07
-1.807722e-05 3.786845e-05 2.781226e-07
-2.235455e-05 3.551847e-05 2.831603e-07
4.228674e-05 4.672328e-07 3.650722e-07
4.228674e-05 -4.672328e-07 -3.650722e-07
2.963575e-05 -3.051340e-05 1.831782e-07
3.616601e-05 2.248228e-05 -9.144850e-23
3.333036e-05 -2.650509e-05 -9.144850e-23
2.963575e-05 3.051340e-05 -1.831782e-07
6.063680e-06 4.210199e-05 1.831690e-07
1.825980e-05 3.842597e-05 -1.693395e-07
3.704248e-05 -1.985442e-05 3.253499e-07
-3.310121e-05 -2.609212e-05 -3.680746e-07
3.644612e-05 -2.079347e-05 2.768604e-07
-2.052917e-06 4.179328e-05 6.654007e-08
2.623962e-05 -3.259409e-05 6.653929e-08
2.623962e-05 3.259409e-05 -6.653929e-08
2.092981e-06 4.179129e-05 6.653929e-08
3.347581e-05 -2.632115e-05 -9.144850e-23
1.541538e-05 -3.899962e-05 -2.521702e-07
4.133084e-05 6.847679e-06 -1.975928e-07
4.133084e-05 -6.847679e-06 1.975928e-07
3.108674e-05 2.904994e-05 -1.620248e-07
-4.204797e-05 3.878256e-06 3.730497e-07
3.279196e-05 2.613788e-05 -2.508299e-07
[...]
POINT_DATA 14730
VECTORS 10.000GHz_fone_imag double
3.766499e-05 6.276671e-05 2.675802e-02
8.271493e-04 -7.170582e-05 2.669174e-02
-8.090991e-05 -2.206927e-05 2.656574e-02
4.210241e-05 -4.097078e-05 2.651205e-02
-1.189737e-02 -4.830183e-03 2.330478e-02
-1.163968e-02 5.720959e-03 2.323358e-02
-1.277665e-02 -2.274351e-05 2.336232e-02
1.202631e-03 -1.291220e-02 2.323892e-02
-1.056712e-02 7.547671e-03 2.330359e-02
-9.047391e-03 9.142694e-03 2.320663e-02
-1.129221e-02 -6.389099e-03 2.349394e-02
3.437860e-03 -1.240325e-02 2.331021e-02
5.315516e-03 -1.971041e-02 -1.933688e-02
-3.275609e-03 1.154136e-02 2.375177e-02
-2.758558e-05 -1.730434e-06 2.658990e-02
1.862983e-02 7.692550e-03 -1.985500e-02
-1.863975e-02 7.740612e-03 -1.985278e-02
-3.147506e-03 1.343677e-02 2.281562e-02
-6.540842e-03 -1.119969e-02 2.349514e-02
-1.195861e-02 -3.584128e-03 2.343704e-02
1.232436e-02 -4.161574e-03 2.320828e-02
3.331299e-03 1.277501e-02 2.310363e-02
-4.923507e-04 -2.012846e-02 -1.983633e-02
1.222489e-02 1.600187e-02 -1.983067e-02
-1.222252e-02 1.600302e-02 -1.983910e-02
6.975998e-05 -3.594378e-04 2.659744e-02
1.505146e-03 -2.007970e-02 -1.983621e-02
3.831302e-03 3.304939e-03 -2.814130e-02
1.790060e-02 4.768489e-03 -2.105836e-02
6.687921e-03 9.591712e-03 2.391678e-02
-6.649015e-03 9.497492e-03 2.378358e-02
5.392092e-03 -1.875779e-02 -2.022622e-02
1.102089e-02 1.953460e-02 -1.663919e-02
-1.975433e-03 1.368785e-02 -2.462496e-02
1.244700e-02 -3.460481e-03 2.307166e-02
6.208271e-03 2.683136e-02 1.326417e-03
1.650903e-04 3.036914e-05 2.674536e-02
-1.225798e-03 4.752028e-03 -2.783831e-02
2.452929e-02 -6.440442e-03 9.286243e-03
2.434480e-02 7.086892e-03 9.290395e-03
2.523539e-02 -2.549946e-03 9.321445e-03
-2.151096e-03 8.230713e-03 -2.707119e-02
3.742703e-03 -1.388603e-02 2.243756e-02
2.536448e-02 -5.397811e-04 -1.158994e-02
-2.528293e-02 -5.861590e-04 -1.170286e-02
-2.059886e-02 3.141402e-03 -1.910447e-02
2.059589e-02 3.153663e-03 -1.911543e-02
1.024926e-04 1.822238e-05 2.656505e-02
-1.010406e-02 8.444628e-03 2.300580e-02
-1.556456e-02 -2.091336e-02 -9.607917e-03
-2.320568e-02 -1.187950e-02 -9.594639e-03
-2.248627e-02 1.326050e-02 -9.592934e-03
-4.500761e-03 -2.571363e-02 -9.591009e-03
-1.961012e-02 1.718479e-02 -9.627246e-03
2.501575e-02 -8.679979e-03 -9.221569e-03
1.279709e-02 6.976431e-03 -2.434964e-02
1.252276e-02 2.212485e-02 9.419735e-03
-5.634811e-03 1.018940e-02 2.367808e-02
-1.551556e-05 8.503182e-05 2.657909e-02
2.104964e-02 -3.584708e-03 -1.818647e-02
-2.120474e-02 -3.549537e-03 -1.812610e-02
-6.253229e-03 1.163357e-02 2.308720e-02
1.253413e-03 3.103833e-03 -2.813915e-02
-3.827441e-05 -3.161749e-03 -2.826253e-02
-9.657314e-04 2.840996e-03 -2.834539e-02
-2.275254e-03 2.186614e-03 -2.820944e-02
-2.444447e-03 1.840011e-03 -2.828547e-02
-1.112551e-03 -2.956190e-03 -2.827436e-02
-3.422408e-04 -2.904555e-03 -2.845143e-02
-1.066826e-04 7.074756e-05 2.662960e-02
-2.010005e-03 -2.397313e-03 -2.825030e-02
-1.659654e-03 -2.691871e-03 -2.826434e-02
6.701897e-04 -2.783515e-03 -2.838302e-02
-8.444522e-03 2.288703e-02 1.200514e-02
-1.032035e-02 -2.216662e-02 1.194696e-02
-2.302717e-02 -8.397414e-03 1.201562e-02
6.342774e-04 -2.439926e-02 1.200563e-02
-1.777403e-02 1.671221e-02 1.199678e-02
-1.906320e-02 1.531040e-02 1.194907e-02
-2.047822e-02 -1.334053e-02 1.197832e-02
-5.986709e-05 -1.029321e-04 2.658002e-02
-7.691267e-03 -2.315334e-02 1.200171e-02
-1.199040e-02 -2.125586e-02 1.199680e-02
1.360611e-02 1.346962e-04 2.302479e-02
-1.364544e-02 -2.806101e-05 2.300436e-02
2.048179e-02 1.533270e-02 9.144742e-03
-2.641405e-02 -2.565703e-03 -8.436803e-03
2.642552e-02 -2.525344e-03 -8.427383e-03
2.387648e-02 -1.088062e-03 1.269888e-02
-2.381030e-02 -1.080202e-03 1.264973e-02
1.291682e-02 -3.997759e-03 2.291927e-02
6.970022e-05 -8.070050e-05 2.653896e-02
-1.190520e-02 2.384354e-02 4.508485e-03
-2.844527e-03 -1.874947e-03 -2.831802e-02
-1.063733e-02 -2.351619e-02 8.261935e-03
8.250576e-03 6.998820e-03 -2.638751e-02
1.065186e-02 -1.649970e-03 -2.634154e-02
6.682888e-03 -8.621472e-03 -2.631235e-02
1.054888e-02 2.495013e-03 -2.635135e-02
5.630741e-03 -9.279321e-03 -2.627993e-02
4.532067e-03 -9.921889e-03 -2.631930e-02
1.033166e-02 -3.281802e-03 -2.635282e-02
5.916642e-05 3.708985e-05 2.650820e-02
7.416347e-03 1.050277e-03 -2.757002e-02
-7.300224e-03 9.348612e-04 -2.754619e-02
-9.581610e-04 -2.062533e-02 -1.894569e-02
-1.289008e-02 1.613213e-02 -1.894270e-02
1.274964e-02 1.604902e-02 -1.888785e-02
1.092855e-03 -2.061832e-02 -1.894391e-02
-1.730910e-02 -9.871681e-03 -1.986929e-02
-2.258282e-02 -1.165407e-02 9.652911e-03
-4.274267e-03 -2.506649e-02 9.655365e-03
-2.185588e-02 1.302393e-02 9.626977e-03
-1.428090e-04 -3.051511e-05 2.652012e-02
-2.203025e-04 -2.371775e-04 2.661249e-02
-1.523823e-02 -2.033753e-02 9.659238e-03
-2.118868e-02 -1.382900e-02 -1.154824e-02
-1.046326e-02 8.836995e-03 2.283335e-02
5.909224e-03 2.367302e-02 1.181774e-02
5.959521e-04 1.963874e-03 -2.863646e-02
-2.176195e-02 -1.575375e-02 5.380039e-03
2.175089e-02 -1.577973e-02 5.498792e-03
-2.119374e-02 1.762019e-02 -4.047040e-03
-5.346284e-03 1.924054e-02 -1.967247e-02
-8.867553e-03 -4.865026e-03 -2.650382e-02
1.977272e-04 -4.517484e-05 2.661784e-02
2.081153e-02 1.813649e-02 -4.519188e-04
4.837905e-03 -2.010921e-02 -1.900020e-02
-2.384246e-03 -2.039440e-02 -1.948677e-02
-1.051599e-02 -1.748127e-02 -1.937722e-02
-1.321604e-02 -1.576842e-02 -1.943740e-02
-6.511264e-03 1.937787e-02 -1.932947e-02
-1.700385e-02 1.127880e-02 -1.960455e-02
-1.453599e-02 1.441872e-02 -1.930730e-02
-6.984961e-03 -1.919851e-02 -1.936840e-02
-4.304049e-05 -2.042905e-02 -1.936620e-02
2.430907e-04 -4.034799e-04 2.658782e-02
1.370983e-02 -9.054457e-03 -2.298942e-02
-6.346205e-03 -1.193648e-02 2.303522e-02
1.113729e-02 2.383923e-02 6.740400e-03
2.028754e-02 -1.202727e-02 1.333202e-02
-1.011725e-02 -6.183855e-03 2.370862e-02
9.428284e-03 -9.116223e-03 2.322757e-02
-9.486195e-03 -8.994055e-03 2.326207e-02
2.271584e-03 1.292063e-02 2.322474e-02
-5.924036e-03 2.664730e-02 -4.118266e-03
5.666631e-03 1.183988e-02 2.303313e-02
4.215655e-04 -3.647541e-04 2.646772e-02
1.312155e-02 1.583799e-03 2.287729e-02
1.015156e-02 -8.330818e-03 2.302655e-02
1.147466e-02 6.457756e-03 2.296949e-02
-1.821555e-03 1.310317e-02 2.297177e-02
1.200094e-02 4.633778e-03 2.303572e-02
1.208847e-02 -5.315747e-03 2.296478e-02
1.093273e-02 7.291023e-03 2.304483e-02
3.348589e-03 1.279256e-02 2.289151e-02
-2.580567e-02 -7.212980e-03 5.330172e-03
1.002208e-02 1.787643e-02 -1.945755e-02
4.128342e-04 -2.995301e-04 2.647121e-02
8.619439e-03 1.848502e-02 -1.951560e-02
1.294211e-02 1.610585e-02 -1.929809e-02
2.793214e-03 2.046844e-02 -1.931000e-02
2.010977e-02 2.485894e-03 -1.967489e-02
1.589529e-02 -1.278232e-02 -1.951016e-02
7.139542e-03 -1.921919e-02 -1.945547e-02
1.496808e-02 -1.400261e-02 -1.946643e-02
1.744279e-02 -1.119049e-02 -1.923389e-02
1.921813e-02 -8.656875e-03 -1.858295e-02
6.412006e-03 1.946786e-02 -1.946646e-02
1.222269e-04 1.456002e-04 2.675359e-02
-2.647242e-03 2.086598e-02 -1.854623e-02
1.814215e-02 1.005566e-02 -1.927871e-02
1.987936e-02 7.428739e-03 -1.843578e-02
1.708249e-02 1.113158e-02 -1.951644e-02
-5.887091e-04 2.047902e-02 -1.946034e-02
5.057184e-03 1.963261e-02 -1.967780e-02
-5.176252e-03 1.984220e-02 -1.927149e-02
-5.519088e-03 -1.174264e-02 2.316325e-02
-1.324871e-02 -2.121020e-02 1.077245e-02
1.324706e-02 -2.118772e-02 1.085487e-02
1.697239e-04 -3.111064e-04 2.664022e-02
-1.087151e-02 -7.389037e-03 2.302988e-02
8.322630e-03 1.022329e-02 2.299505e-02
1.737594e-03 1.306115e-02 2.303054e-02
4.355261e-03 -1.251929e-02 2.307126e-02
-1.296498e-04 1.321841e-02 2.311093e-02
1.107884e-02 -7.099798e-03 2.299666e-02
9.456742e-03 -9.198170e-03 2.311022e-02
4.375827e-03 1.247780e-02 2.310474e-02
6.699264e-03 1.142558e-02 2.309897e-02
-3.237859e-03 1.285643e-02 2.306026e-02
3.008894e-04 -1.933073e-04 2.661174e-02
1.984992e-02 -1.255427e-02 -1.489005e-02
-1.336559e-02 2.256005e-02 7.326212e-03
1.223414e-02 2.373312e-02 -7.402847e-03
1.323662e-02 -6.635588e-03 2.218865e-02
-1.319579e-02 -6.584807e-03 2.206862e-02
9.803148e-03 -9.949055e-03 -2.478023e-02
-9.699432e-03 -9.937277e-03 -2.473469e-02
2.091094e-03 1.381313e-02 -2.477509e-02
6.935526e-03 1.215225e-02 2.262500e-02
2.485923e-02 9.213044e-03 6.019784e-03
2.803346e-04 -1.689842e-04 2.655919e-02
8.128016e-03 -1.122046e-03 -2.717771e-02
-8.134960e-03 -1.102342e-03 -2.716152e-02
2.174310e-02 1.224809e-02 1.055865e-02
-3.704662e-03 1.114763e-02 2.368477e-02
2.573240e-02 -7.496427e-03 5.241834e-03
2.288983e-02 1.245136e-02 -1.022227e-02
1.597827e-02 2.053454e-02 -1.023545e-02
2.206467e-02 -1.378054e-02 -1.023370e-02
3.916424e-03 2.572235e-02 -1.023773e-02
-4.488527e-03 2.041357e-02 -1.894178e-02
1.691209e-04 8.170619e-05 2.663816e-02
2.119290e-02 -3.534366e-03 -1.826930e-02
1.990646e-02 -6.750940e-03 -1.864854e-02
1.320070e-02 -1.632702e-02 -1.865278e-02
2.051962e-02 4.449579e-03 -1.865579e-02
1.568821e-02 1.398194e-02 -1.866770e-02
9.133234e-03 -1.893757e-02 -1.865516e-02
1.146613e-02 -1.825324e-02 -1.820808e-02
-2.684178e-02 -4.823868e-04 5.458496e-03
2.692440e-02 -4.692052e-04 5.345578e-03
-9.096959e-03 9.453770e-03 2.291628e-02
-5.329666e-04 -1.520622e-04 2.662288e-02
8.758681e-05 -1.338284e-04 2.670188e-02
9.095902e-03 9.446893e-03 2.293016e-02
-1.810387e-03 -1.298454e-02 2.293139e-02
5.285014e-03 1.094565e-02 2.344095e-02
-2.101664e-02 1.134596e-02 -1.453670e-02
-2.132161e-02 -1.698504e-02 -5.059252e-03
-1.793601e-02 1.010935e-02 -1.927555e-02
4.221151e-04 -5.092404e-03 -2.784609e-02
-3.072965e-03 4.085224e-03 -2.784322e-02
3.113944e-03 4.063053e-03 -2.788823e-02
-8.760058e-05 -5.108731e-03 -2.784697e-02
-7.763422e-05 1.392523e-04 2.652073e-02
6.731648e-03 -1.708295e-02 -2.146366e-02
1.436330e-02 2.461118e-03 -2.435423e-02
-1.434280e-02 2.467896e-03 -2.434408e-02
8.660647e-03 8.258366e-03 2.379881e-02
2.713394e-02 -2.516959e-03 7.926594e-04
1.492648e-02 1.200010e-02 -2.090181e-02
2.406171e-02 9.780356e-03 7.702659e-03
-2.402247e-02 9.669092e-03 7.813762e-03
-1.015175e-02 1.941951e-02 -1.733533e-02
-1.089836e-02 -9.053979e-03 2.254294e-02
1.802167e-04 -2.755127e-04 2.660981e-02
9.027527e-03 -2.453054e-02 -9.651055e-03
1.485255e-02 2.192012e-02 6.450224e-03
-1.477572e-02 2.193482e-02 6.427502e-03
-1.907040e-02 -1.696199e-02 9.221768e-03
-1.599297e-02 1.990811e-02 9.244217e-03
-2.418824e-02 8.150619e-03 9.275268e-03
-2.494868e-02 -5.492238e-03 9.243420e-03
-2.522667e-02 4.335079e-03 9.212369e-03
-1.348867e-02 2.141979e-02 9.465491e-03
-1.104166e-02 2.300448e-02 9.277287e-03
1.176623e-04 7.647304e-05 2.651650e-02
-1.975217e-03 -2.066830e-02 -1.934355e-02
-2.072838e-02 -9.894722e-04 -1.940686e-02
4.288022e-03 -2.031742e-02 -1.934170e-02
-4.588487e-04 -2.591911e-02 7.751553e-03
1.559070e-02 2.071067e-02 7.739909e-03
-1.559928e-02 2.071598e-02 7.749365e-03
2.110562e-03 -2.583680e-02 7.755366e-03
-1.584718e-02 -1.229595e-02 -2.023174e-02
2.459649e-02 1.057337e-02 5.238173e-03
-2.452129e-02 1.053277e-02 5.215470e-03
7.210968e-05 1.222453e-04 2.655790e-02
-2.071506e-02 1.827697e-02 -1.746475e-03
-2.413167e-02 1.279419e-02 3.190699e-03
-2.400526e-02 1.277769e-02 2.698189e-03
-1.027449e-03 -2.665668e-02 5.345144e-03
1.648928e-02 2.093838e-02 5.328964e-03
-1.649193e-02 2.097701e-02 5.343089e-03
1.619384e-03 -2.663011e-02 5.344065e-03
-1.239187e-02 2.296650e-02 8.028369e-03
-6.973655e-03 -1.083313e-02 2.349489e-02
6.962897e-03 -1.086733e-02 2.349815e-02
-2.890183e-04 1.086546e-04 2.657730e-02
-9.370081e-03 -2.557784e-02 4.095974e-03
-6.240128e-03 1.301115e-02 -2.413642e-02
-4.024081e-03 1.337511e-02 -2.458695e-02
2.020286e-02 -7.920096e-03 -1.802550e-02
-2.015724e-02 -7.917425e-03 -1.800372e-02
-3.291843e-03 2.139753e-02 -1.813296e-02
-1.004611e-03 2.132370e-02 -1.821863e-02
-1.336349e-02 -1.661578e-02 -1.810019e-02
1.341443e-02 -1.659482e-02 -1.821589e-02
1.109146e-03 2.131838e-02 -1.821966e-02
-2.710595e-05 3.022824e-04 2.663701e-02
1.729326e-03 -1.916363e-02 -2.083508e-02
-1.144406e-02 1.544616e-02 -2.085344e-02
1.147159e-02 1.545066e-02 -2.080542e-02
-1.775473e-04 -1.922723e-02 -2.081889e-02
2.046121e-02 -1.323514e-02 1.197943e-02
1.891464e-02 -9.559680e-03 -1.854528e-02
-1.887262e-02 -9.536227e-03 -1.864146e-02
-1.804901e-02 -5.965320e-03 -2.060534e-02
-6.204966e-03 1.104005e-02 2.332360e-02
7.093800e-03 2.532386e-02 6.875130e-03
-4.621072e-04 3.515057e-04 2.665617e-02
1.295323e-02 1.426500e-02 -2.083664e-02
-1.295297e-02 1.427561e-02 -2.084860e-02
-2.098242e-03 -1.915793e-02 -2.084611e-02
-1.846107e-02 1.676360e-02 -1.290977e-02
2.112657e-02 1.186611e-02 -1.393374e-02
-3.924455e-03 1.186247e-02 -2.545713e-02
-1.158162e-03 5.451888e-03 -2.786568e-02
1.868826e-02 1.831976e-02 -9.495606e-03
3.047836e-03 -1.234793e-02 2.332346e-02
-5.091335e-03 -1.442637e-02 2.212093e-02
-8.303489e-05 -2.392269e-04 2.671150e-02
-2.114822e-02 6.753539e-03 -1.717830e-02
-2.147247e-02 1.104006e-02 1.248368e-02
2.139121e-02 1.110679e-02 1.230191e-02
5.292659e-04 -8.237958e-04 -2.843791e-02
1.141207e-02 -2.822938e-03 2.372973e-02
-1.149623e-02 -2.876115e-03 2.366981e-02
4.221303e-03 1.165654e-02 2.335027e-02
-8.014588e-03 -2.316124e-02 -1.306919e-02
-2.641386e-02 1.739787e-03 6.611463e-03
2.638637e-02 1.778916e-03 6.541738e-03
-8.030567e-06 -4.401003e-05 2.641769e-02
-1.946324e-02 -8.521806e-03 -1.818037e-02
1.939015e-02 -8.490075e-03 -1.821159e-02
-1.431128e-03 3.076199e-03 -2.819365e-02
-7.689351e-03 1.033567e-02 2.318858e-02
7.519737e-03 1.024294e-02 2.327389e-02
9.992898e-03 -1.814443e-02 -1.920189e-02
1.201758e-02 -1.690174e-02 -1.919539e-02
7.807507e-03 -1.914332e-02 -1.924485e-02
-1.390876e-02 2.160571e-02 8.623484e-03
1.384310e-02 2.160804e-02 8.643737e-03
-4.151560e-05 -2.699375e-04 2.678846e-02
6.952117e-05 -2.128073e-04 2.679256e-02
4.135572e-03 2.529963e-02 8.860740e-03
-1.820636e-02 -1.811834e-02 8.530284e-03
1.820854e-02 -1.804977e-02 8.858400e-03
3.699410e-03 2.531053e-02 9.442798e-03
-1.784405e-02 -1.830781e-02 9.431725e-03
1.785415e-02 -1.830577e-02 9.433922e-03
1.094264e-02 2.464411e-02 4.653454e-03
-9.564486e-03 -7.190344e-03 -2.573643e-02
-7.118609e-04 -7.179412e-04 -2.843471e-02
6.232716e-04 -7.973727e-04 -2.846564e-02
1.035094e-04 -5.555388e-05 2.654477e-02
9.407556e-03 -7.205514e-03 -2.572021e-02
-2.502050e-02 5.384074e-03 9.006686e-03
2.501933e-02 5.394703e-03 9.044727e-03
-2.586527e-02 8.816666e-03 8.852136e-04
2.560413e-02 2.855101e-03 9.143796e-03
-2.558421e-02 2.892031e-03 9.087225e-03
4.412881e-03 -1.760052e-02 -2.164241e-02
-4.156903e-03 1.338801e-02 2.268466e-02
-3.506237e-03 -2.412708e-02 -1.362584e-02
-1.700975e-02 1.746878e-02 -1.362862e-02
8.226922e-05 -2.562583e-04 2.652972e-02
1.699267e-02 1.748190e-02 -1.364633e-02
1.023163e-02 -2.489248e-02 5.032826e-03
7.166823e-03 4.434700e-04 -2.749280e-02
-7.109109e-03 3.521689e-04 -2.752466e-02
-2.273048e-02 -8.089363e-03 1.268416e-02
2.262604e-02 -8.134845e-03 1.265306e-02
-7.748284e-03 -1.156757e-02 -2.470901e-02
7.771046e-03 -1.155788e-02 -2.473805e-02
-1.146847e-02 2.432110e-02 5.542532e-03
4.383845e-03 -1.218678e-02 2.307157e-02
6.165737e-04 -1.423084e-04 2.665841e-02
-2.646359e-03 -2.170995e-03 -2.837686e-02
1.662933e-03 2.558413e-02 9.273282e-03
1.637047e-02 -1.972578e-02 9.254661e-03
-1.641109e-02 -1.973262e-02 9.185299e-03
-8.726087e-04 2.562415e-02 9.274123e-03
-4.078449e-03 2.504273e-02 9.826088e-03
-2.956761e-03 2.542667e-02 9.409384e-03
1.473208e-02 -2.093005e-02 9.335143e-03
-1.468270e-02 -2.094223e-02 9.273263e-03
-3.679726e-04 2.556758e-02 9.504240e-03
1.272240e-04 1.632893e-04 2.652242e-02
-1.669235e-02 -1.938292e-02 9.396995e-03
1.670704e-02 -1.933548e-02 9.492543e-03
2.164448e-03 2.546745e-02 9.504950e-03
-3.403927e-03 -1.310763e-02 2.276959e-02
-6.038621e-03 -1.885361e-02 -2.028065e-02
9.506667e-03 8.097395e-03 2.331431e-02
-4.764102e-03 2.053048e-02 -1.848762e-02
1.093243e-02 1.809560e-02 -1.847496e-02
2.444587e-03 2.097390e-02 -1.844742e-02
1.352502e-02 1.628350e-02 -1.840495e-02
-2.994542e-04 1.731726e-04 2.670648e-02
7.265692e-03 1.987058e-02 -1.847173e-02
1.762494e-02 -1.170932e-02 -1.839283e-02
1.501937e-02 -1.495627e-02 -1.844331e-02
6.735271e-03 -1.999820e-02 -1.856519e-02
7.536479e-05 2.114567e-02 -1.846455e-02
-1.808679e-02 5.358373e-03 -2.106716e-02
1.286374e-02 -3.563969e-03 2.297014e-02
1.318628e-02 -1.507207e-03 2.302341e-02
1.286629e-02 3.558210e-03 2.297339e-02
1.030031e-02 8.204737e-03 2.311833e-02
-1.119043e-04 2.968588e-04 2.655618e-02
-2.719207e-03 8.927034e-03 -2.680762e-02
2.636615e-02 -2.752458e-03 6.309408e-03
-2.637677e-02 -2.770264e-03 6.281486e-03
2.186443e-02 1.401919e-02 8.478412e-03
-1.374171e-02 -2.285093e-02 -8.296255e-03
2.049577e-02 1.737156e-02 4.904899e-03
-2.121123e-02 -2.911896e-03 -1.811348e-02
2.121493e-02 -2.914622e-03 -1.814668e-02
1.215365e-02 2.380045e-02 -7.475956e-03
-1.223034e-02 -1.108258e-02 -2.314926e-02
-2.148142e-04 2.435466e-05 2.646115e-02
1.692354e-02 -1.523095e-02 -1.639301e-02
2.332337e-02 -1.474531e-02 -2.581477e-03
4.761138e-03 2.223906e-02 -1.635282e-02
3.838336e-03 -1.532539e-02 -2.321830e-02
1.199976e-02 -6.132667e-04 2.351573e-02
1.220054e-02 3.410799e-04 2.338787e-02
1.204448e-02 -1.492449e-04 2.356093e-02
8.019148e-03 8.918901e-03 2.350328e-02
1.203129e-02 -4.671265e-03 2.329847e-02
-1.209443e-02 -4.658726e-03 2.329541e-02
-2.172814e-04 2.786049e-04 2.658027e-02
1.282248e-02 4.309778e-03 2.304572e-02
-2.203876e-02 -1.140413e-02 1.070877e-02
-2.169235e-02 -1.196667e-02 1.079902e-02
2.207389e-02 -1.156400e-02 1.073080e-02
2.184776e-02 -1.220862e-02 1.067750e-02
-1.325746e-02 4.449603e-03 2.268624e-02
-6.931179e-03 -2.542266e-02 6.891310e-03
-2.417700e-02 1.020251e-02 6.828620e-03
-2.618449e-02 -2.884341e-03 6.898651e-03
3.949053e-03 -2.596330e-02 6.827333e-03
-2.473830e-04 1.569259e-04 2.656976e-02
1.358031e-02 2.806791e-03 2.273143e-02
-1.401113e-02 2.919189e-03 2.246117e-02
1.933467e-02 3.024450e-03 -2.028546e-02
4.349740e-03 1.896291e-02 -2.036012e-02
2.029245e-02 -1.549648e-02 8.748460e-03
-2.037524e-02 -1.556357e-02 8.632760e-03
1.484904e-02 2.153607e-02 -9.587351e-03
5.426311e-03 2.563305e-02 -9.568827e-03
2.299965e-02 -1.248846e-02 -9.555761e-03
2.370683e-02 1.107992e-02 -9.574962e-03
1.283100e-05 -1.937913e-05 2.660793e-02
-2.021979e-04 -2.480601e-04 2.664153e-02
2.852247e-03 2.346955e-02 1.304772e-02
1.608853e-02 -1.731255e-02 1.304107e-02
-1.608944e-02 -1.731914e-02 1.305268e-02
-2.192072e-03 -1.557977e-02 2.162433e-02
1.088475e-02 1.128214e-02 2.169331e-02
-1.093079e-02 1.132930e-02 2.162376e-02
2.139259e-02 1.708340e-02 -3.986902e-03
1.427719e-02 -2.103965e-02 9.078636e-03
-1.435276e-02 -2.104010e-02 9.301735e-03
-6.653852e-03 -1.086510e-02 2.338378e-02
2.345347e-04 -4.287728e-05 2.665078e-02
-4.449088e-03 -1.193419e-02 2.338562e-02
1.293959e-03 -1.256953e-02 2.339993e-02
-8.026764e-03 -9.425569e-03 2.356035e-02
-1.139386e-02 5.493531e-03 2.336945e-02
-1.053423e-02 7.167411e-03 2.337220e-02
-1.259179e-02 1.007243e-03 2.333549e-02
-8.878190e-03 8.938461e-03 2.340043e-02
-1.260364e-02 7.360654e-05 2.345930e-02
-1.264874e-02 5.103332e-04 2.337805e-02
-1.167530e-02 -4.664841e-03 2.349355e-02
-3.301248e-05 2.093554e-04 2.668247e-02
-8.594347e-03 -9.403481e-03 2.336955e-02
-1.252041e-04 -1.274203e-02 2.339081e-02
-5.592847e-03 1.442448e-02 -2.386039e-02
5.752244e-03 -1.226944e-02 -2.477606e-02
2.916637e-03 2.351858e-02 1.304288e-02
1.617019e-02 -1.731316e-02 1.303175e-02
-1.617739e-02 -1.732427e-02 1.304351e-02
-2.122672e-02 -1.542643e-02 6.856343e-03
2.112724e-02 -1.523247e-02 6.841835e-03
1.150620e-02 9.537092e-03 -2.408157e-02
-1.016971e-04 -1.298899e-04 2.651843e-02
-1.906840e-03 -1.255534e-02 2.345624e-02
-1.077395e-02 6.707459e-03 2.346215e-02
-1.115168e-02 -6.023565e-03 2.346030e-02
-7.804911e-03 -1.001105e-02 2.345440e-02
4.533169e-04 -1.345185e-02 2.330641e-02
8.740258e-03 1.036936e-02 2.325476e-02
-8.607743e-03 1.035751e-02 2.329783e-02
-8.849081e-04 -1.343264e-02 2.330518e-02
1.681653e-03 -1.344467e-02 2.315873e-02
2.188265e-02 -8.947452e-03 1.312717e-02
-6.243375e-05 3.941153e-04 2.659294e-02
-2.187062e-02 -8.901595e-03 1.315873e-02