# vtk DataFile Version 2.0
Electric current density generated by TTH
ASCII
DATASET UNSTRUCTURED_GRID
POINTS 1826 double
2.322915e-05 -5.689500e-21 -4.056719e-22
2.150844e-05 8.773833e-06 -4.056719e-22
-1.014304e-05 -2.089766e-05 -4.056719e-22
5.317243e-07 1.994045e-05 3.187090e-07
8.693968e-06 -2.131266e-05 8.097690e-07
-2.058722e-05 -1.108549e-06 1.352652e-06
-3.537470e-06 2.178795e-05 1.578886e-06
2.051624e-05 2.220150e-06 1.365866e-06
-1.715379e-05 1.176019e-05 1.463820e-06
2.183682e-05 3.894965e-06 -1.540413e-06
2.032707e-05 8.150046e-06 -1.623640e-06
1.955788e-05 3.799764e-06 -1.519916e-07
-1.897225e-05 -6.302786e-06 4.934188e-07
-9.234580e-06 -2.131468e-05 -4.056719e-22
-2.293610e-05 -1.574677e-06 8.571705e-07
-1.904096e-05 6.995130e-06 -1.041742e-06
7.523314e-06 -1.844279e-05 -7.434367e-08
-2.236161e-05 -5.393998e-06 -8.355046e-07
2.012771e-05 3.683054e-06 -1.228430e-06
1.287232e-05 -1.742127e-05 1.653937e-06
-2.150214e-05 -4.364826e-07 -1.654954e-06
-2.148315e-05 8.228933e-06 -8.316101e-07
1.063208e-05 -1.699375e-05 -6.410402e-07
1.152369e-05 -1.644165e-05 -7.130614e-07
-8.309025e-06 -2.169224e-05 -4.056719e-22
-1.990150e-05 -7.173411e-06 -1.602662e-06
2.259146e-05 4.066894e-06 -9.132819e-07
4.413410e-06 -1.958306e-05 7.052175e-07
1.925060e-05 -8.291894e-06 1.538908e-06
-8.442983e-06 1.919109e-05 1.541181e-06
-5.295009e-07 -2.192848e-05 1.616236e-06
-5.191233e-06 -1.971406e-05 1.155357e-06
1.708520e-05 -1.152508e-05 1.346949e-06
1.781479e-05 -1.451967e-05 -8.698682e-07
-2.186400e-05 3.124219e-06 1.574761e-06
-7.368083e-06 -2.202963e-05 -4.056719e-22
7.513147e-06 1.936744e-05 -1.450705e-06
-1.868100e-05 1.182001e-05 -1.567999e-06
4.177981e-06 1.948771e-05 -2.145510e-07
8.586697e-06 -1.847904e-05 1.145534e-06
1.725953e-05 1.266004e-05 1.647739e-06
-1.379313e-05 -1.841038e-05 8.334247e-07
2.747832e-06 -2.279320e-05 -9.077595e-07
1.671948e-05 -1.579280e-05 -8.422812e-07
-1.754148e-05 1.267414e-05 1.654875e-06
2.665546e-06 1.978742e-05 -4.021550e-07
-6.413497e-06 -2.232622e-05 -4.056719e-22
1.331100e-05 1.869855e-05 9.164159e-07
2.203078e-05 2.304787e-06 -1.552098e-06
-2.212014e-05 -6.354297e-06 8.150408e-07
1.902670e-05 -7.653377e-06 -1.268832e-06
-1.868225e-05 1.342055e-05 -8.354691e-07
-2.089089e-05 -5.817003e-06 -1.652438e-06
1.975354e-05 -2.928158e-06 4.148978e-07
-4.568400e-06 -2.139767e-05 1.627572e-06
1.162789e-05 1.618213e-05 -1.818427e-07
2.131334e-05 -5.102422e-06 -1.620433e-06
-5.447035e-06 -2.258148e-05 -4.056719e-22
-1.504292e-05 -1.418605e-05 1.393013e-06
1.742495e-05 1.496975e-05 8.860661e-07
2.162274e-06 -2.154314e-05 -1.654419e-06
-1.638613e-05 -1.226315e-05 -1.232841e-06
2.257439e-05 -4.574752e-06 -7.813333e-07
-2.275765e-05 3.454017e-06 -8.087340e-07
2.840972e-06 -2.281393e-05 8.570942e-07
-1.916843e-05 -1.272062e-05 -8.315309e-07
3.616853e-06 2.063327e-05 1.533836e-06
1.919510e-05 1.263364e-05 -8.743221e-07
-4.470486e-06 -2.279491e-05 -4.056719e-22
2.056440e-05 -1.028987e-05 -8.487867e-07
-2.008943e-05 7.509956e-06 -1.651511e-06
-2.142862e-05 2.463418e-06 -1.656278e-06
-7.199645e-06 1.882651e-05 -8.580968e-07
2.710556e-06 2.136241e-05 -1.655818e-06
2.295335e-05 9.343782e-07 -8.858232e-07
-3.100594e-07 2.296156e-05 8.994296e-07
-1.615808e-05 -1.636983e-05 8.385377e-07
-2.153153e-05 6.643931e-07 -1.655990e-06
-3.810828e-06 -2.158031e-05 -1.620728e-06
-3.485659e-06 -2.296614e-05 -4.056719e-22
-8.122744e-06 2.035918e-05 -1.619551e-06
1.939584e-05 4.688488e-06 3.521811e-07
-1.228260e-05 -1.945691e-05 8.243478e-07
1.798695e-05 9.215013e-06 -9.413078e-07
-1.807405e-05 -1.020056e-05 1.439620e-06
-1.161794e-05 1.681855e-05 -1.209327e-06
-1.705258e-05 1.333301e-05 1.654655e-06
-1.215186e-05 -1.951713e-05 -8.556712e-07
-7.651076e-06 -1.931190e-05 -1.449955e-06
-2.613641e-06 -2.281817e-05 -8.936659e-07
-2.494377e-06 -2.309483e-05 -4.056719e-22
9.491811e-06 2.095605e-05 8.312495e-07
1.191384e-05 1.683756e-05 1.359126e-06
1.914474e-05 1.078055e-05 1.607624e-06
-4.193620e-06 2.260280e-05 -8.597331e-07
2.233725e-05 5.530188e-06 -8.204838e-07
5.417029e-06 2.042954e-05 1.597499e-06
1.180865e-06 2.047068e-05 -1.265830e-06
-1.072712e-05 -1.915161e-05 -1.612492e-06
1.218169e-05 1.777590e-05 1.656115e-06
2.010482e-05 9.184922e-06 1.568964e-06
-1.498476e-06 -2.318076e-05 -4.056719e-22
-1.594466e-05 -1.367056e-05 -1.555076e-06
6.675000e-06 -2.102075e-05 -1.584523e-06
-2.039736e-06 2.142966e-05 1.655633e-06
1.870343e-05 7.861278e-06 -1.045636e-06
1.548846e-05 1.287005e-05 8.269423e-07
1.516782e-05 -1.564119e-05 -1.642272e-06
-9.548956e-06 2.092641e-05 8.369665e-07
-1.434110e-05 -1.390678e-05 -4.419235e-07
-2.836782e-06 -2.140437e-05 -1.656176e-06
-1.875217e-06 -2.294063e-05 8.107619e-07
2.111106e-05 9.691051e-06 -4.056719e-22
-4.998006e-07 -2.322377e-05 -4.056719e-22
-5.052608e-06 -2.245087e-05 -8.191552e-07
6.469453e-06 -1.945735e-05 -1.265808e-06
4.379181e-06 -2.049303e-05 -1.537006e-06
4.264436e-06 2.166180e-05 -1.577511e-06
1.020577e-05 1.966707e-05 -1.549696e-06
-1.442990e-05 -1.658849e-05 -1.603837e-06
1.159212e-05 1.856109e-05 1.626874e-06
8.920823e-06 -1.811629e-05 -9.169904e-07
-1.132187e-05 1.886482e-05 1.599855e-06
1.793691e-05 -8.945108e-06 6.362017e-07
4.998006e-07 -2.322377e-05 -4.056719e-22
-4.855915e-06 2.142384e-05 -1.608638e-06
8.224919e-06 2.017899e-05 1.641875e-06
-2.130351e-05 -5.606552e-06 1.592260e-06
9.261826e-06 -1.763217e-05 1.931933e-08
1.273015e-06 -2.210314e-05 1.556242e-06
2.177070e-05 -7.436786e-06 8.305548e-07
1.612481e-05 -1.647557e-05 -7.427050e-07
1.771221e-05 -1.280285e-05 -1.632098e-06
-1.279422e-05 1.798328e-05 1.579873e-06
-1.955182e-05 -3.818163e-06 -1.228288e-07
1.498476e-06 -2.318076e-05 -4.056719e-22
2.156096e-05 8.046528e-06 -8.171893e-07
-1.514745e-05 -1.306048e-05 5.206143e-07
-2.170515e-05 3.792160e-06 -1.590814e-06
1.983164e-05 2.016915e-06 -2.391379e-07
-1.307581e-05 1.896954e-05 -7.695112e-07
1.694794e-05 1.554910e-05 -8.402988e-07
-4.983391e-06 2.248355e-05 7.888896e-07
2.081336e-05 -8.996653e-07 1.481744e-06
-1.453100e-05 -1.657744e-05 1.587702e-06
-1.752288e-05 -1.349923e-05 1.563411e-06
2.494377e-06 -2.309483e-05 -4.056719e-22
6.823989e-06 1.980519e-05 1.533825e-06
9.696193e-06 1.816690e-05 -1.334995e-06
2.147797e-05 8.207040e-06 8.530339e-07
-1.735500e-05 -1.510870e-05 8.230172e-07
-5.844958e-06 2.228956e-05 -7.625327e-07
7.788818e-06 -2.047209e-05 1.622904e-06
-1.307600e-05 -1.805772e-05 -1.490609e-06
-1.285454e-05 1.625407e-05 1.421489e-06
1.594595e-05 -1.333598e-05 -1.458262e-06
-7.777679e-06 2.169116e-05 -7.620754e-07
3.485659e-06 -2.296614e-05 -4.056719e-22
9.958505e-06 -1.943421e-05 -1.635063e-06
-1.948620e-05 5.868762e-06 -1.117937e-06
1.077550e-06 2.203532e-05 1.582516e-06
-1.780310e-06 2.293626e-05 -8.315815e-07
-2.185010e-05 1.886636e-06 1.617009e-06
1.700519e-05 -1.127517e-05 -1.173046e-06
1.815384e-05 -1.261849e-05 1.567261e-06
-2.007746e-05 4.076011e-06 1.250692e-06
1.958619e-05 -6.079865e-06 1.268710e-06
1.929342e-05 -1.258470e-05 7.781070e-07
4.470486e-06 -2.279491e-05 -4.056719e-22
-2.035258e-05 -5.748764e-06 1.601098e-06
1.135942e-05 1.746168e-05 -1.481041e-06
1.594525e-05 -1.514904e-05 -1.601796e-06
3.801417e-06 -2.123991e-05 1.656275e-06
1.473233e-05 -1.767020e-05 -8.302389e-07
-1.060804e-05 -1.950171e-05 1.532894e-06
1.683883e-05 -1.378412e-05 1.645543e-06
-7.521974e-06 -2.175346e-05 8.105862e-07
-1.582768e-05 1.267074e-05 1.028599e-06
-2.143720e-05 -7.874511e-06 -1.069307e-06
5.447035e-06 -2.258148e-05 -4.056719e-22
1.954428e-05 5.464402e-06 -1.052269e-06
2.244482e-06 -2.198548e-05 1.570242e-06
1.293341e-05 1.516999e-05 2.458846e-07
9.231743e-06 -1.991552e-05 1.612503e-06
2.446627e-06 -1.979023e-05 2.827300e-07
1.395681e-05 1.544022e-05 1.471838e-06
-2.260468e-05 -4.492676e-06 7.554659e-07
-8.975973e-06 1.826607e-05 -1.119626e-06
-1.213705e-05 -1.877107e-05 1.460992e-06
1.530284e-05 1.720951e-05 -7.888936e-07
6.413497e-06 -2.232622e-05 -4.056719e-22
-1.753385e-05 1.053361e-05 -1.221833e-06
-2.305012e-05 -4.960636e-07 7.383578e-07
1.905780e-05 -9.254998e-06 -1.610513e-06
9.430097e-06 -1.858806e-05 1.486941e-06
-1.964579e-05 1.029516e-05 -1.541036e-06
2.028220e-05 -5.459432e-06 1.555569e-06
1.990406e-05 -7.061858e-07 0.000000e+00
-1.988699e-05 -1.114397e-06 7.299956e-08
-1.463110e-05 1.384737e-05 8.392291e-07
1.456886e-05 -1.534019e-05 1.602944e-06
7.368083e-06 -2.202963e-05 -4.056719e-22
-4.066324e-06 2.014366e-05 1.302691e-06
2.132132e-05 -4.045676e-06 1.651259e-06
-2.222841e-05 -1.694168e-06 1.491594e-06
2.034184e-05 3.843181e-06 1.408669e-06
7.820822e-06 2.121797e-05 1.288598e-06
-1.119656e-05 1.652077e-05 -3.655322e-07
1.071740e-05 -1.895901e-05 1.643456e-06
-8.537267e-06 -2.141231e-05 -7.462433e-07
-9.883328e-06 1.962739e-05 -1.606643e-06
-5.720871e-06 -2.225262e-05 8.796599e-07
8.309025e-06 -2.169224e-05 -4.056719e-22
1.959835e-05 -5.345187e-06 -1.076573e-06
2.173678e-05 -2.390512e-06 1.629804e-06
2.070038e-05 -2.834615e-06 -1.510565e-06
1.884975e-05 -1.112413e-05 1.626137e-06
-1.141444e-07 -2.101670e-05 1.560223e-06
1.929850e-05 -5.048008e-06 3.200372e-07
-1.019059e-05 -1.778500e-05 -1.259845e-06
-2.216279e-05 -6.366548e-06 -7.310069e-07
1.330111e-05 -1.876406e-05 8.402102e-07
1.958933e-05 6.240366e-06 1.309930e-06
2.067458e-05 1.059032e-05 -4.056719e-22
9.234580e-06 -2.131468e-05 -4.056719e-22
1.861215e-05 1.006507e-05 1.603828e-06
-1.900416e-05 6.134908e-06 4.166969e-07
1.261431e-05 1.921866e-05 8.595637e-07
-1.958097e-05 1.106607e-05 1.378112e-06
-8.216077e-06 -1.938102e-05 1.571785e-06
-2.009581e-05 4.457859e-06 -1.328927e-06
1.886712e-05 -6.484358e-06 -3.325775e-07
1.914333e-05 5.496514e-06 2.667453e-08
8.215182e-06 -2.148458e-05 -8.377420e-07
1.164167e-05 1.847231e-05 -1.635453e-06
1.014304e-05 -2.089766e-05 -4.056719e-22
-3.951871e-06 -2.272982e-05 7.067126e-07
-1.211811e-05 1.958919e-05 -7.791678e-07
-2.042797e-05 1.332530e-07 1.197280e-06
-1.796805e-05 1.336437e-05 -1.438837e-06
-1.253705e-05 1.670929e-05 -1.508809e-06
-2.213280e-05 -1.104680e-06 -1.548589e-06
1.952851e-05 6.382061e-06 -1.298688e-06
[...]
POINT_DATA 1826
VECTORS 10.000GHz_fone_imag double
-3.941079e-06 -2.726796e-04 1.899134e-02
1.355656e-03 5.574398e-04 1.717634e-02
-2.231853e-04 -2.615159e-04 1.844649e-02
1.339286e-04 -5.784082e-03 -2.890588e-02
-2.882083e-03 9.283863e-03 1.642603e-02
2.175915e-02 1.146349e-03 -1.794861e-02
3.575150e-03 -2.186299e-02 5.998124e-03
-2.414766e-02 -2.299449e-03 -1.751776e-02
2.081763e-02 -1.335162e-02 -1.486060e-02
1.990390e-02 4.200066e-03 8.445891e-03
2.163188e-02 8.575401e-03 4.641276e-03
5.043203e-03 1.826801e-03 -3.037332e-02
8.906207e-03 3.568136e-04 -2.959759e-02
1.287545e-04 -9.301822e-04 1.734231e-02
8.998405e-03 -1.088719e-04 1.526392e-02
-1.710310e-02 5.274731e-03 -2.435280e-02
9.850411e-04 -1.590288e-03 -3.256810e-02
-9.936984e-03 -2.916422e-03 1.692571e-02
1.830435e-02 2.645041e-03 -2.174064e-02
-1.450029e-02 1.929169e-02 -2.760443e-04
-2.473511e-02 -9.947594e-04 -2.725947e-03
-9.679088e-03 3.945913e-03 1.666158e-02
5.746918e-03 -1.075671e-02 -2.866444e-02
7.369692e-03 -1.106404e-02 -2.825332e-02
1.175680e-03 1.200568e-04 1.788837e-02
-2.450174e-02 -8.886604e-03 -8.515706e-03
1.024195e-02 2.440493e-03 1.524481e-02
-3.401249e-03 1.362501e-02 -2.954456e-02
-2.366943e-02 9.876819e-03 -1.143339e-02
9.073036e-03 -2.380470e-02 -1.103899e-02
1.139386e-03 2.126987e-02 5.047797e-03
4.759867e-03 1.925464e-02 -2.219432e-02
-1.896842e-02 1.272528e-02 -1.791900e-02
8.220552e-03 -6.034808e-03 1.678190e-02
2.171684e-02 -2.529462e-03 6.349727e-03
-4.065698e-04 1.081696e-03 1.817751e-02
8.152312e-03 2.194285e-02 -1.622756e-02
-1.882049e-02 1.111314e-02 6.003594e-03
-1.839703e-04 4.176981e-03 -3.202118e-02
-9.112025e-03 1.941081e-02 -2.126404e-02
-2.143584e-02 -1.487647e-02 -4.382740e-03
5.731919e-03 8.062781e-03 1.661058e-02
1.561086e-03 -1.174976e-02 1.643845e-02
8.036158e-03 -7.730121e-03 1.639812e-02
2.095027e-02 -1.437022e-02 -2.785644e-04
2.968056e-03 6.662972e-03 -3.048697e-02
-1.573680e-04 1.825607e-04 1.876930e-02
-6.628921e-03 -7.968168e-03 1.669500e-02
1.900147e-02 2.610968e-03 7.612188e-03
9.220708e-03 2.307366e-03 1.682772e-02
1.900516e-02 -7.951282e-03 -1.944080e-02
-8.222504e-03 6.008944e-03 1.723358e-02
-2.251773e-02 -5.363676e-03 -9.460117e-05
-8.175498e-03 1.427774e-03 -3.208744e-02
4.739035e-03 2.244741e-02 3.569388e-03
6.108297e-04 2.370343e-03 -3.184693e-02
2.041812e-02 -4.632205e-03 5.673316e-03
1.765324e-04 -7.821140e-06 1.863488e-02
1.642930e-02 1.760470e-02 -1.478975e-02
-8.790383e-03 -7.353221e-03 1.698286e-02
2.925868e-03 -2.319802e-02 8.071616e-04
-1.708078e-02 -1.239219e-02 -2.065753e-02
1.006296e-02 -4.820489e-04 1.622850e-02
-1.003391e-02 8.855684e-04 1.665026e-02
-1.450203e-03 1.137551e-02 1.654775e-02
-7.910756e-03 -4.576592e-03 1.595172e-02
-4.801968e-03 -2.421777e-02 -9.137224e-03
8.877329e-03 5.661631e-03 1.531195e-02
2.405717e-04 -1.353474e-04 1.864410e-02
9.806414e-03 -4.618286e-03 1.398897e-02
-2.288239e-02 7.597718e-03 -1.705020e-03
-2.495385e-02 3.207931e-03 -1.215044e-03
-4.964853e-03 1.397669e-02 -2.414728e-02
2.126383e-03 2.443932e-02 -1.231333e-03
1.122866e-02 8.187592e-04 1.619046e-02
-3.212474e-04 -1.056085e-02 1.551295e-02
7.517836e-03 7.545817e-03 1.702159e-02
-2.516546e-02 1.252494e-05 -1.832356e-03
-4.279761e-03 -2.270767e-02 3.834044e-03
2.287501e-04 5.812817e-04 1.853035e-02
-8.891081e-03 2.185486e-02 4.338990e-03
-3.350127e-03 -4.553526e-04 -3.091172e-02
5.546822e-03 8.400326e-03 1.679687e-02
1.472202e-02 7.526241e-03 -2.179948e-02
2.082229e-02 1.266532e-02 -1.373156e-02
-1.271495e-02 1.811627e-02 -2.138405e-02
2.025044e-02 -1.564528e-02 -7.742735e-04
-6.225057e-03 -8.073212e-03 1.645908e-02
-8.588032e-03 -2.155645e-02 -1.440325e-02
-1.514375e-03 -1.098200e-02 1.659333e-02
8.585427e-05 9.419960e-04 1.759977e-02
-4.183911e-03 -9.824425e-03 1.622928e-02
-1.192363e-02 -1.907572e-02 -1.803839e-02
-1.830239e-02 -1.015491e-02 5.199745e-03
-2.228923e-03 1.046513e-02 1.632478e-02
9.429234e-03 1.866586e-03 1.697469e-02
-6.860215e-03 -2.548141e-02 -7.110262e-03
5.174284e-04 2.176831e-02 -2.093385e-02
-1.105420e-02 -1.973140e-02 5.618162e-03
-1.339509e-02 -2.076931e-02 -1.964118e-03
-1.940290e-02 -8.633389e-03 6.453966e-03
-1.116637e-03 -1.020247e-04 1.852567e-02
-1.972354e-02 -1.661162e-02 -1.044141e-02
6.730925e-03 -1.945168e-02 5.462216e-03
1.529788e-03 -2.335539e-02 -7.805302e-04
1.539556e-02 7.523268e-03 -2.397640e-02
-1.091544e-02 -8.790570e-03 -2.773669e-02
1.665005e-02 -1.793349e-02 1.852105e-03
4.259078e-03 -9.330024e-03 1.626473e-02
-5.670415e-03 -6.076172e-03 -2.837046e-02
-3.186330e-03 -2.465252e-02 -5.703070e-04
1.932763e-03 8.731350e-03 1.583247e-02
-1.132957e-03 8.398191e-04 1.817690e-02
1.445770e-04 -4.749352e-04 1.921941e-02
-2.190157e-03 -9.543789e-03 1.646702e-02
6.988637e-03 -2.116513e-02 -2.001862e-02
5.493133e-03 -2.493560e-02 -1.126115e-02
5.029143e-03 2.151140e-02 5.641575e-03
8.977868e-03 1.843034e-02 7.724918e-03
-1.576938e-02 -1.672145e-02 4.646001e-03
-1.279419e-02 -1.927300e-02 2.010948e-03
7.557822e-03 -1.626324e-02 -2.328334e-02
1.228820e-02 -2.021510e-02 4.903005e-03
-1.084315e-02 4.221207e-03 -2.872822e-02
-5.625107e-05 -4.777988e-04 1.913586e-02
-4.882542e-03 2.243744e-02 4.258638e-03
-9.290422e-03 -2.219057e-02 3.414342e-03
2.230124e-02 5.850826e-03 5.185646e-03
-4.794739e-04 -4.893642e-05 -3.379830e-02
-5.545971e-04 1.916886e-02 6.462753e-03
-9.462779e-03 2.928811e-03 1.668497e-02
5.905294e-03 -6.478926e-03 1.678073e-02
1.925981e-02 -1.392650e-02 9.925211e-04
1.332500e-02 -1.795671e-02 6.979940e-03
-1.933093e-03 -3.227333e-04 -2.994514e-02
8.987662e-05 2.706890e-04 1.931861e-02
8.861743e-03 4.406825e-03 1.577561e-02
7.295671e-03 5.671282e-03 -2.827013e-02
-2.093358e-02 4.738836e-03 5.200109e-03
4.674702e-03 -8.511409e-04 -2.931579e-02
-5.541857e-03 8.925779e-03 1.664210e-02
7.166006e-03 7.984898e-03 1.571575e-02
1.864236e-03 -9.450938e-03 1.675248e-02
-2.484688e-02 1.156084e-03 -1.385484e-02
1.465683e-02 1.629665e-02 5.579309e-03
1.726309e-02 1.319049e-02 6.260904e-03
-3.421411e-05 7.065981e-05 1.893530e-02
-7.912443e-03 -2.426009e-02 -1.148692e-02
1.225076e-02 1.805485e-02 -1.824512e-02
-9.371358e-03 -4.567406e-03 1.667996e-02
7.467341e-03 6.451446e-03 1.727310e-02
-2.326148e-03 9.218560e-03 1.725318e-02
-7.952383e-03 2.185465e-02 4.161702e-03
-1.168520e-02 -1.659998e-02 8.545797e-03
1.511261e-02 -1.766826e-02 -1.615011e-02
1.837924e-02 -1.569236e-02 -1.408550e-02
-3.542857e-03 8.343531e-03 1.709924e-02
-1.477065e-04 -1.479896e-04 1.889881e-02
1.112103e-02 -2.196008e-02 1.851492e-03
-1.875808e-02 6.865354e-03 -2.214896e-02
-4.579920e-04 -2.189087e-02 6.092163e-03
-1.499940e-03 1.072477e-02 1.553459e-02
2.284793e-02 -2.634085e-03 5.077478e-03
1.559905e-02 -1.266104e-02 -2.228375e-02
-1.791770e-02 1.221954e-02 6.619121e-03
2.116846e-02 -4.282602e-03 -2.050784e-02
-1.972000e-02 6.505679e-03 -1.841082e-02
-7.499523e-03 5.270369e-03 1.523173e-02
-7.239976e-04 -9.119457e-04 1.812442e-02
2.478681e-02 7.665200e-03 -8.246196e-03
1.276312e-02 2.129789e-02 -1.315883e-02
1.618704e-02 -1.613148e-02 4.932192e-03
-2.814670e-03 2.259890e-02 -2.013002e-03
6.539239e-03 -7.205464e-03 1.633031e-02
9.547717e-03 1.913472e-02 5.949325e-03
-1.951773e-02 1.650636e-02 1.071026e-03
2.655451e-03 7.938011e-03 1.541986e-02
1.235558e-02 -1.031660e-02 -2.422357e-02
-1.271130e-02 -4.200187e-03 1.638062e-02
6.314629e-04 -4.562234e-04 1.872055e-02
1.708071e-02 4.786464e-03 -2.444997e-02
-2.452939e-03 1.937715e-02 6.330751e-03
-4.694412e-03 -4.142982e-03 -2.931859e-02
-1.008433e-02 2.049390e-02 3.520846e-03
-3.826786e-04 4.066225e-03 -3.213456e-02
-1.720234e-02 -1.755633e-02 -1.474005e-02
9.097285e-03 1.180650e-03 1.667887e-02
-7.883785e-03 1.678362e-02 -2.328586e-02
1.113719e-02 1.624717e-02 9.394044e-03
6.499732e-03 7.521664e-03 1.697809e-02
2.712382e-04 1.597296e-04 1.910546e-02
-1.835471e-02 1.121416e-02 -2.056281e-02
8.270448e-03 1.733153e-04 1.749014e-02
2.334154e-02 -1.138509e-02 -7.083058e-03
-9.396813e-03 2.038244e-02 -1.136912e-02
-1.709204e-02 8.587601e-03 6.727623e-03
-2.164151e-02 5.297389e-03 -1.042987e-02
-3.910046e-04 6.950020e-04 -3.079575e-02
1.855587e-03 8.658146e-04 -3.168405e-02
1.095460e-02 -1.049826e-02 -2.767041e-02
-1.759582e-02 1.820666e-02 -8.122687e-03
-2.585909e-04 -3.189086e-04 1.899564e-02
4.780100e-03 -2.186777e-02 -1.830862e-02
-2.320989e-02 3.561085e-03 1.247001e-03
1.987304e-02 1.667055e-03 9.812503e-03
-2.324064e-02 -4.962687e-03 -1.353588e-02
-6.612313e-03 -1.456024e-02 1.174138e-02
-2.968709e-03 5.171667e-03 -3.156876e-02
-1.240388e-02 2.089073e-02 1.362605e-03
-3.225804e-03 -8.220983e-03 1.673049e-02
-1.073831e-02 2.022578e-02 4.706764e-03
2.389257e-03 1.041445e-02 1.603289e-02
-2.881412e-05 5.096304e-05 1.877159e-02
1.854973e-02 -5.253614e-03 -2.335178e-02
-2.275511e-02 2.149037e-03 2.843731e-03
2.426143e-02 -3.420792e-03 -1.313225e-02
-1.954685e-02 1.200619e-02 4.052701e-03
3.512684e-04 2.662817e-02 -9.556029e-03
-7.306887e-03 9.222687e-04 -3.109319e-02
-1.073569e-02 -1.889571e-02 -2.052777e-02
-8.169308e-03 -2.646327e-03 1.804661e-02
-5.922134e-03 8.513898e-03 1.630600e-02
-2.178891e-02 -6.578377e-03 -1.950583e-02
-5.441088e-04 -3.795993e-04 1.877197e-02
1.918605e-04 -7.904206e-04 1.912720e-02
-2.301058e-02 -1.141430e-02 -6.188012e-03
7.154947e-03 -2.556305e-03 -3.112469e-02
-5.904580e-03 -8.688621e-03 1.669056e-02
1.580959e-02 -9.393681e-03 1.124478e-02
1.029820e-02 2.283935e-02 -7.969132e-03
-2.245267e-02 4.663140e-03 -1.801902e-02
7.364990e-03 -2.747534e-03 -3.217679e-02
2.446729e-03 -4.075870e-04 -2.912049e-02
3.373570e-03 -7.846040e-03 1.537470e-02
1.140396e-02 1.856178e-02 3.270369e-03
6.442008e-04 -1.889162e-04 1.861262e-02
1.870756e-03 8.992117e-03 1.643039e-02
-6.002892e-03 7.838307e-03 1.593592e-02
1.946230e-02 -9.276854e-04 -1.943750e-02
-1.491470e-02 1.232900e-02 8.753506e-03
-1.544517e-02 2.062313e-02 -1.161500e-02
-2.139757e-02 -3.083382e-04 7.008915e-03
2.157721e-02 7.111357e-03 -1.920880e-02
2.333990e-02 -9.959650e-03 -1.238799e-02
2.401402e-02 -6.039979e-04 2.939310e-03
-1.687001e-02 -1.676962e-02 4.780180e-03
1.967019e-04 -2.639891e-04 1.712084e-02
-4.287140e-04 -8.844398e-03 1.497413e-02
-1.443298e-02 -1.836217e-02 3.500352e-03
6.227568e-03 8.858191e-03 1.634336e-02
8.854749e-03 -2.105318e-02 6.268701e-03
2.184385e-02 3.747881e-03 5.591066e-03
2.239998e-03 9.086406e-03 1.710784e-02
-2.953107e-03 -1.745753e-02 -2.474711e-02
1.584481e-02 4.115679e-04 -2.709133e-02
1.518459e-02 1.460940e-02 8.063493e-03
7.112052e-03 -5.132821e-03 1.777374e-02
4.491848e-04 -3.896369e-05 1.806177e-02
2.167132e-02 5.198207e-03 -1.721024e-02
3.344781e-04 8.597954e-03 -2.817168e-02
-1.959937e-02 -3.865279e-03 -2.375910e-02
-3.029039e-03 -8.867510e-03 -3.096825e-02
2.080002e-02 -5.248020e-03 5.496146e-03
-2.952864e-03 -8.223583e-03 1.577633e-02
-8.830289e-03 1.476921e-03 1.691389e-02
-2.248179e-03 -1.291225e-02 -2.819845e-02
-1.965743e-02 3.051062e-03 8.890970e-03
1.900212e-02 -9.476176e-03 -2.242601e-02
-1.427842e-04 5.328199e-04 1.865875e-02
-1.120929e-03 9.219568e-04 -3.338122e-02
7.754195e-03 -2.574449e-03 1.725132e-02
-1.661463e-02 -8.262503e-03 9.804339e-03
-2.381344e-03 2.475758e-02 -1.563789e-02
-9.650015e-03 -8.946715e-03 -2.653353e-02
1.388203e-02 -6.559389e-03 -2.677248e-02
-6.355912e-03 6.097427e-03 1.703274e-02
-6.071888e-04 -9.219682e-03 1.720770e-02
1.387632e-02 2.013092e-02 -1.342861e-02
1.334640e-05 -1.477405e-03 -3.290485e-02
3.700529e-05 2.544777e-04 1.878552e-02
5.471442e-03 -6.272716e-03 1.729662e-02
-1.114298e-02 1.642048e-02 6.220706e-03
-1.746513e-02 1.604017e-03 -2.336918e-02
-5.628199e-03 -9.939805e-03 -2.924834e-02
2.525589e-02 1.314869e-03 1.862727e-05
2.046083e-02 -1.152464e-02 1.686272e-03
-1.000793e-02 4.158914e-03 1.746360e-02
1.785028e-02 -1.720012e-02 -1.109665e-02
-2.415895e-03 2.500860e-02 -1.232417e-02
3.945481e-03 6.771073e-03 -2.816818e-02
-9.201893e-04 8.117390e-04 1.871672e-02
-1.708552e-03 2.435257e-02 -1.737216e-02
-8.445635e-04 -4.377480e-03 -2.947189e-02
-2.121216e-02 6.468143e-03 7.144327e-03
3.117895e-03 8.033068e-03 1.592520e-02
-5.248750e-03 -4.605623e-03 -2.921228e-02
7.287585e-03 5.612934e-03 1.672474e-02
-8.660818e-03 2.339613e-02 -1.568718e-03
7.270164e-03 -5.904708e-03 1.741740e-02
-1.819432e-02 1.170705e-02 -1.838385e-02
-2.278343e-02 4.922645e-03 4.679815e-03
1.204515e-05 -1.510786e-03 1.778858e-02
-7.209087e-03 -1.745402e-02 8.076332e-03
2.256817e-02 -8.914939e-03 3.688349e-03
-2.397769e-02 -1.720436e-03 -1.533605e-02
-9.268634e-03 -7.765027e-04 1.743538e-02
3.370818e-03 8.358766e-03 -2.963046e-02
1.573916e-02 1.368371e-02 8.031973e-03
-2.088076e-02 -1.209017e-02 6.036305e-04
2.161096e-02 -8.345790e-03 1.657137e-03
-1.385408e-02 -1.529595e-02 -1.956244e-02
-1.619727e-03 1.989354e-03 -2.872792e-02
1.077351e-03 2.140883e-04 1.828309e-02
-1.842142e-02 -5.074183e-03 7.698808e-03
1.358225e-02 1.465124e-02 -2.272566e-02
-6.079204e-03 5.883227e-03 1.658443e-02
-1.161878e-02 -2.019131e-02 -7.546339e-03
-1.711861e-02 -1.387676e-02 3.709514e-03
-8.743191e-03 5.526089e-03 1.508384e-02
3.837372e-03 -8.076835e-03 1.558383e-02
8.217976e-03 4.573343e-03 1.665670e-02
4.113119e-04 -2.020538e-02 6.828870e-03
-1.682798e-03 2.408577e-02 1.728367e-03
3.079685e-04 2.819791e-05 1.891515e-02
6.786543e-04 -9.752286e-03 1.637257e-02
5.807678e-03 6.776105e-03 1.625428e-02
4.068278e-03 6.118396e-03 1.621482e-02
-1.863501e-02 -4.465646e-03 -2.160128e-02
-3.170186e-03 2.119962e-02 -1.966660e-02
-2.830871e-03 2.144211e-02 6.284404e-03
-2.187385e-02 1.253359e-02 -9.596835e-03
2.077387e-02 1.010278e-02 3.069037e-03
-1.603214e-02 -1.007100e-02 -2.400507e-02
-1.206284e-02 -1.786393e-02 8.541381e-03
6.025313e-04 -9.909414e-04 1.832664e-02
-5.074643e-04 7.174819e-04 1.902145e-02
8.952285e-03 3.941244e-03 1.675108e-02
3.954865e-04 9.040026e-03 1.751422e-02
-1.051893e-02 1.333077e-03 1.650862e-02
9.432375e-03 -8.462320e-04 1.749395e-02
6.290651e-03 2.362126e-02 -1.559519e-02
-2.137687e-02 -1.228896e-02 -1.294033e-02
-4.761637e-03 3.525656e-03 1.645801e-02
2.139230e-02 -1.320281e-02 -1.368562e-02
-8.056443e-03 4.359915e-03 1.660132e-02
1.281348e-02 4.881869e-03 -2.745639e-02
-4.021370e-04 -3.043677e-05 1.809629e-02
5.380529e-03 9.817873e-03 -3.042494e-02
-2.130739e-04 -1.784597e-02 -2.675624e-02
-1.883522e-02 -1.778001e-02 -7.066247e-03
5.978898e-03 7.579163e-03 1.688663e-02
-1.468904e-02 1.922866e-02 -1.410686e-02
-2.518849e-02 -2.197053e-03 -1.123441e-02
1.676717e-02 1.910571e-02 -8.798672e-03
-2.152135e-02 -1.284057e-02 -1.344991e-02
-7.322275e-03 7.147323e-03 1.557539e-02
-1.084216e-02 -2.131805e-02 -1.203006e-02
-2.557690e-04 -2.048406e-04 1.756322e-02
1.688673e-02 -1.990332e-02 -8.594048e-03
-9.378602e-03 8.271491e-03 -2.637896e-02
-7.956857e-03 -2.193833e-02 5.303685e-03
-1.851966e-03 9.831596e-03 1.695231e-02
6.210477e-03 -2.157312e-02 -2.007857e-02
8.433918e-03 -3.321109e-03 1.602953e-02
-2.325643e-02 -8.137769e-03 1.168351e-03
-2.934633e-03 -2.198236e-02 5.630316e-03
-2.054700e-02 8.968922e-03 5.628616e-03
-1.225103e-02 -8.616201e-03 -2.338366e-02
-5.282822e-04 1.399135e-03 1.807146e-02
7.809229e-03 1.768016e-02 -2.484837e-02
1.959498e-02 -8.569411e-03 4.474444e-03
2.317570e-02 -7.410600e-04 1.495310e-03
8.584250e-03 -2.364012e-03 1.615846e-02
5.162357e-03 9.630120e-03 -2.978239e-02
-2.015404e-02 -1.028501e-02 -1.431896e-02
2.468452e-03 2.931302e-04 -3.243314e-02
-2.682740e-03 8.928062e-03 -2.885987e-02
-4.802204e-04 -2.598208e-02 -9.159356e-03
4.771301e-04 2.505745e-02 -1.384883e-02
-3.938980e-04 2.132899e-05 1.907571e-02
2.301058e-03 -2.459605e-02 -3.811089e-03
5.393210e-03 2.549478e-03 -3.119597e-02
5.490069e-03 -1.770923e-03 -3.061125e-02
2.060927e-02 1.403669e-02 -1.468823e-02
4.974338e-03 -1.960285e-02 6.172705e-03
-2.377436e-02 4.166974e-03 -6.966701e-03
-2.471129e-02 -5.310882e-03 -1.425923e-02
1.224306e-03 -2.368110e-02 -1.663600e-02
2.126532e-02 -2.219787e-03 4.714857e-03
-1.995588e-02 -8.483174e-03 -1.517626e-02
-1.022192e-03 2.376915e-05 1.883345e-02
1.529844e-02 -8.161764e-03 -2.492269e-02
-1.000849e-02 -2.296256e-02 -1.001897e-02
-1.704992e-02 1.615814e-02 5.057661e-03
-6.881673e-03 -2.307364e-02 -5.018081e-03
8.376309e-03 -1.612105e-02 -2.422418e-02
-8.770100e-03 1.170433e-02 -2.658055e-02
-1.496472e-03 -8.389989e-03 1.719275e-02
1.046607e-02 7.145211e-03 -2.723662e-02
-2.339181e-03 -4.694298e-03 -3.185244e-02
4.072470e-03 -1.331356e-02 -2.841431e-02
5.254435e-04 -1.061456e-03 1.943814e-02
7.025102e-03 1.883224e-02 8.339205e-03
-1.399077e-02 -1.792804e-02 -1.158661e-02
2.421696e-02 8.156481e-03 -2.929964e-03
4.957223e-03 -7.613062e-03 1.652311e-02
-5.202486e-04 -9.459606e-04 -3.262814e-02
4.770490e-04 2.176854e-02 5.737978e-03
1.693280e-02 8.321108e-03 -2.479195e-02
1.075570e-02 -4.047647e-03 -2.800964e-02
5.182719e-03 -7.934849e-03 1.621658e-02
2.709704e-03 -2.613334e-02 -5.947729e-03
8.589724e-04 8.198906e-04 1.822974e-02
-1.025685e-02 -2.247584e-03 1.625920e-02
-2.241503e-02 1.428564e-03 -1.378091e-02
3.184708e-03 -1.683677e-02 -2.280711e-02
-8.744540e-03 -3.696700e-04 1.744636e-02
-2.233351e-03 -2.132269e-02 -1.580755e-02
1.132721e-02 1.332463e-02 1.021472e-02
-7.463588e-03 -2.753238e-03 1.768755e-02
9.554733e-03 2.008820e-02 5.800467e-03
-1.587798e-02 4.602736e-04 -2.540406e-02
-7.464015e-03 2.461333e-02 -9.990972e-03
-1.201471e-03 5.200214e-04 1.726020e-02
2.164423e-02 -5.006717e-05 -1.862471e-02
2.199773e-02 -3.197806e-03 -1.992729e-02
-6.019035e-03 -6.628035e-03 1.549238e-02
8.923813e-03 2.724346e-03 1.590055e-02
-7.375641e-03 4.945698e-03 1.736637e-02
1.159845e-02 -4.728987e-03 -2.881477e-02
-1.268273e-03 -9.181055e-03 1.697924e-02
-6.736114e-03 -6.253049e-03 1.668990e-02
-4.712662e-03 8.907041e-03 1.691195e-02
5.031082e-04 -1.273914e-02 -2.691244e-02
-5.566602e-04 1.397719e-04 1.756653e-02
1.073430e-02 -1.951968e-02 -1.740869e-02
8.477341e-03 2.701501e-03 1.649150e-02
1.103443e-02 1.524596e-02 1.040964e-02
-3.702084e-03 8.413703e-03 1.751150e-02
-5.998103e-03 -1.652698e-02 -2.574992e-02
-2.535069e-02 3.726647e-03 -5.367369e-03
2.537584e-03 7.870691e-03 1.721163e-02
5.203976e-03 -6.789681e-03 1.572506e-02
-3.172679e-03 -8.266901e-03 1.700768e-02
-9.248736e-03 3.635853e-03 -2.769849e-02
4.340476e-04 4.536698e-04 1.929888e-02
6.743761e-04 -9.211784e-04 1.791567e-02
-1.777514e-02 1.042349e-02 -2.122433e-02
1.377568e-02 1.759143e-02 -1.717025e-02
1.425810e-02 -9.762565e-03 -2.597937e-02
2.431898e-03 2.077269e-02 6.822715e-03
-1.281981e-02 -1.776914e-02 7.875679e-03
-5.658093e-03 1.794235e-02 -2.224106e-02
1.358394e-03 1.003916e-02 1.672617e-02
-1.925520e-02 1.822121e-02 -9.623989e-03
-9.423823e-03 -2.062768e-03 1.674707e-02
8.187059e-03 1.987407e-03 1.787761e-02
-5.012223e-05 2.802815e-04 1.901895e-02
-1.169385e-03 -3.332217e-04 -3.393741e-02
7.634765e-03 2.043739e-02 6.578087e-03
-1.733828e-02 -1.687218e-02 -1.659151e-02
3.870407e-04 -1.922842e-02 6.031221e-03
-5.744341e-03 6.601734e-03 1.753257e-02
-1.229423e-02 -6.397077e-03 -3.009566e-02
1.603954e-02 1.937780e-02 -1.286334e-02
-3.102188e-03 -2.401666e-02 -1.390958e-02
-2.337477e-02 1.182837e-03 -1.481959e-02
-7.893661e-03 1.406638e-02 1.056195e-02
5.942742e-05 -8.333241e-05 1.917657e-02
-2.886707e-03 -8.900546e-03 -2.804304e-02
2.551059e-02 -9.095420e-04 -1.036972e-02
1.828217e-02 -6.423894e-03 -1.901100e-02
8.817199e-03 -2.107770e-03 1.771934e-02
-1.849044e-02 -8.746083e-03 9.282083e-03
-2.828253e-03 -8.090968e-03 1.588430e-02
-2.069949e-02 -2.137713e-03 4.221222e-03
-2.338931e-02 7.820400e-03 -7.988394e-03
2.097616e-02 -4.752794e-03 -2.186136e-02
1.992006e-02 1.420766e-02 -7.151056e-03
-1.006093e-04 5.308094e-04 1.809585e-02
-1.684180e-02 -1.110016e-02 -2.024588e-02
-1.127121e-02 -4.870937e-03 -3.135042e-02
1.502043e-02 1.434769e-02 7.165228e-03
2.191830e-02 1.039352e-02 -1.748333e-03
-3.476919e-05 7.025643e-03 -3.003259e-02
-8.210901e-03 -4.181141e-03 1.641120e-02
-1.427061e-02 -8.315878e-04 -2.788489e-02
1.391495e-03 -7.571073e-03 1.555229e-02
-1.922857e-02 8.316611e-03 7.741798e-03
1.007949e-02 2.004912e-02 -1.905299e-02
8.890259e-05 -3.355705e-04 1.864919e-02
7.195874e-03 -6.710392e-03 1.770321e-02