# vtk DataFile Version 2.0
Electric current density generated by TTH
ASCII
DATASET UNSTRUCTURED_GRID
POINTS 2105 double
-9.916472e-06 -1.584880e-05 -4.792738e-22
1.575216e-05 -9.721695e-06 8.303007e-07
1.633707e-05 6.083599e-06 1.829461e-06
6.542388e-06 1.352128e-05 -9.371400e-07
-8.545510e-06 1.644546e-05 7.802712e-07
1.367020e-05 -8.134775e-06 1.771481e-06
1.480887e-05 9.174040e-06 -1.834246e-06
-1.557428e-07 -1.850667e-05 -8.372347e-07
-1.534649e-05 9.458223e-07 1.403928e-06
-1.369455e-05 5.871506e-06 6.699658e-07
-9.426895e-06 -1.199414e-05 1.276202e-06
-9.058910e-06 -1.635411e-05 -4.792738e-22
-1.736345e-05 -2.495527e-06 -1.784355e-06
1.126469e-05 9.709624e-06 -5.862342e-07
-5.547368e-06 1.413444e-05 -1.188326e-06
-1.774535e-05 5.350764e-06 7.771985e-07
-1.360801e-05 -7.093614e-06 1.374481e-06
-1.542513e-05 2.868043e-06 -1.651724e-06
5.790760e-06 1.760231e-05 -7.867305e-07
1.002652e-05 1.554809e-05 8.511700e-07
-8.356684e-06 1.262044e-05 1.123188e-06
-1.774584e-05 -5.350913e-06 7.760106e-07
-8.175669e-06 -1.681307e-05 -4.792738e-22
1.618642e-05 -4.027757e-06 1.955904e-06
1.744552e-05 -7.987595e-07 -1.817478e-06
2.188045e-06 -1.747979e-05 -1.748996e-06
-1.484491e-05 -2.361179e-06 -9.563170e-07
-1.218440e-05 1.060515e-05 1.867164e-06
-2.977813e-06 1.827661e-05 -8.151377e-07
1.769841e-05 5.447650e-06 8.146265e-07
1.398740e-05 1.221578e-05 -6.874422e-07
1.237922e-05 1.001775e-05 -1.779505e-06
5.742302e-07 1.589746e-05 1.771629e-06
-7.269254e-06 -1.722437e-05 -4.792738e-22
4.614855e-06 1.423189e-05 8.186879e-07
1.423812e-05 4.094568e-06 -3.592916e-07
-1.667298e-05 -8.107549e-06 7.650879e-07
1.625901e-05 8.905466e-06 7.687470e-07
1.085457e-05 -1.035955e-05 -9.068491e-07
-4.332586e-06 -1.707898e-05 1.747106e-06
-7.599722e-06 1.284016e-05 7.236578e-07
4.337070e-06 -1.795975e-05 9.004101e-07
-4.669054e-06 1.402820e-05 1.063379e-07
-2.759635e-06 -1.725027e-05 1.815146e-06
-6.342233e-06 -1.758684e-05 -4.792738e-22
9.888700e-06 1.288618e-05 -1.892998e-06
1.885685e-07 1.581803e-05 -1.727269e-06
-1.331453e-05 6.793502e-06 -7.878511e-07
6.832946e-06 1.721471e-05 8.072247e-07
1.754587e-05 2.147965e-06 -1.717224e-06
-7.331251e-06 1.576667e-05 1.845992e-06
-1.108051e-05 1.484651e-05 -7.975575e-07
1.614017e-05 -9.075519e-06 -8.170205e-07
-1.257818e-05 8.570906e-06 1.234838e-06
1.738214e-05 6.386520e-06 8.136896e-07
-5.397234e-06 -1.789946e-05 -4.792738e-22
4.722827e-07 1.485152e-05 5.439232e-07
9.369708e-06 1.597317e-05 8.132745e-07
-1.138603e-06 1.743227e-05 -1.815227e-06
-1.703565e-05 -7.280692e-06 -7.960260e-07
-1.290141e-05 -1.057323e-05 -1.955919e-06
9.414090e-06 1.597655e-05 -7.552020e-07
-1.766281e-05 -1.023668e-06 1.708612e-06
9.616338e-06 1.463031e-05 -1.799339e-06
9.869908e-07 1.851844e-05 7.531548e-07
1.372004e-05 5.767996e-06 -6.213752e-07
-4.436936e-06 -1.816135e-05 -4.792738e-22
1.609164e-05 9.129719e-06 -8.501394e-07
-1.612782e-05 4.068734e-06 -1.953935e-06
1.197610e-05 1.413290e-05 7.994176e-07
-1.592549e-05 -5.009443e-06 -1.956291e-06
-7.595491e-06 1.271859e-05 -3.528386e-07
4.984082e-09 -1.666456e-05 1.955379e-06
-1.572818e-05 -9.762527e-06 8.279413e-07
1.511194e-05 -8.285269e-06 -1.893016e-06
1.226826e-05 -8.479242e-06 7.050383e-07
-1.012759e-06 1.851272e-05 -7.634411e-07
-3.464061e-06 -1.837175e-05 -4.792738e-22
1.679093e-05 -6.115289e-06 -1.596698e-06
-7.009315e-06 -1.449492e-05 1.849864e-06
-6.513596e-06 -1.731761e-05 8.482472e-07
-1.556910e-05 2.890539e-06 1.735689e-06
-1.147067e-05 -1.167952e-05 -1.921797e-06
-1.682251e-05 4.590755e-07 1.954709e-06
-1.326943e-05 -8.871765e-06 1.796043e-06
1.253401e-05 -1.215484e-05 -1.819103e-06
1.838653e-05 -2.067767e-06 8.474664e-07
-4.391395e-06 1.621705e-05 1.955788e-06
-2.481367e-06 -1.853008e-05 -4.792738e-22
1.604137e-05 -6.822517e-06 -1.829870e-06
5.313890e-06 -1.381912e-05 -3.035030e-07
-1.659043e-05 -6.773083e-06 1.560175e-06
-1.105687e-06 1.548091e-05 1.531222e-06
-1.359531e-05 -7.805509e-06 -1.643512e-06
1.262200e-05 -1.357389e-05 -7.748784e-07
3.801785e-06 1.446616e-05 -8.099051e-07
-3.293419e-07 -1.487187e-05 -5.979707e-07
1.286823e-05 -1.218517e-05 1.691770e-06
1.335165e-05 -6.361450e-06 1.741599e-07
-1.491639e-06 -1.863588e-05 -4.792738e-22
3.349391e-06 1.517024e-05 -1.543224e-06
7.876587e-06 -1.349357e-05 -1.608421e-06
1.243005e-06 1.480701e-05 5.441414e-07
1.329083e-05 1.292441e-05 7.672583e-07
1.485027e-05 -9.674874e-06 -1.690721e-06
1.622516e-05 -6.620747e-06 1.792295e-06
1.815152e-05 -3.704824e-06 7.971381e-07
8.369499e-06 1.218707e-05 -9.506994e-08
1.638451e-05 -2.356521e-06 1.947963e-06
1.577059e-05 3.143749e-06 1.842902e-06
-4.976834e-07 -1.868885e-05 -4.792738e-22
8.096506e-06 1.477835e-05 1.953564e-06
-9.370589e-06 1.488836e-05 -1.761028e-06
1.454779e-05 -1.146802e-05 -8.001502e-07
-6.542671e-06 -1.410887e-05 -1.555931e-06
1.322824e-05 -7.508534e-06 1.222355e-06
-1.088153e-05 1.009489e-05 -4.850982e-07
-1.498334e-05 8.194114e-06 -1.927214e-06
-1.361223e-05 -6.975715e-06 -1.321475e-06
-1.436575e-05 5.539067e-06 -1.424031e-06
1.523673e-05 9.083031e-06 1.681996e-06
4.976834e-07 -1.868885e-05 -4.792738e-22
-1.736921e-05 2.373184e-06 1.789389e-06
-8.866120e-06 1.191442e-05 5.165327e-07
4.873718e-06 1.531297e-05 -1.838927e-06
1.292189e-05 1.178101e-05 1.808377e-06
1.435307e-05 6.868385e-06 -1.773485e-06
-1.016277e-05 1.551773e-05 7.417453e-07
-1.476355e-05 -1.048513e-06 2.707547e-07
5.159276e-06 1.538707e-05 1.889233e-06
5.885757e-06 -1.757857e-05 -7.696768e-07
-1.440874e-05 -1.163167e-05 8.148026e-07
1.491639e-06 -1.863588e-05 -4.792738e-22
2.769678e-06 1.601439e-05 1.895327e-06
9.651087e-06 -1.581264e-05 -7.983715e-07
6.349078e-06 -1.737178e-05 8.614359e-07
6.474701e-06 -1.636515e-05 1.757309e-06
-7.504273e-06 -1.605702e-05 1.690583e-06
-1.125491e-05 -1.385192e-05 1.612013e-06
-5.312271e-06 -1.381828e-05 -2.946889e-07
1.708645e-05 -4.024159e-06 1.778870e-06
6.232234e-06 -1.406779e-05 -1.414388e-06
-1.319947e-05 1.300824e-05 -7.826518e-07
2.481367e-06 -1.853008e-05 -4.792738e-22
-1.400584e-05 1.066510e-05 1.754962e-06
-7.741127e-06 -1.408715e-05 -1.840423e-06
1.266519e-05 8.322029e-06 1.148822e-06
1.508189e-05 6.849205e-06 1.948995e-06
-1.614862e-05 9.041325e-06 -8.370856e-07
-3.435368e-08 -1.699918e-05 -1.939364e-06
-7.970429e-06 1.539599e-05 1.863137e-06
-1.025828e-05 -1.546377e-05 -7.231486e-07
1.619460e-05 7.762463e-06 1.529763e-06
1.411839e-05 6.999799e-06 1.693506e-06
3.464061e-06 -1.837175e-05 -4.792738e-22
2.423197e-06 -1.504564e-05 1.257577e-06
-1.275990e-05 7.477215e-06 -1.700558e-07
8.487077e-06 -1.296827e-05 1.513660e-06
-2.739854e-06 1.561166e-05 1.743470e-06
-1.524576e-07 1.748256e-05 -1.809607e-06
-1.367217e-05 7.188980e-06 -1.469871e-06
1.073544e-05 -1.023946e-05 4.553902e-07
1.119009e-05 1.013254e-05 1.063141e-06
-4.054682e-06 -1.811374e-05 -7.102990e-07
-9.202827e-06 -1.535384e-05 -1.574456e-06
4.436936e-06 -1.816135e-05 -4.792738e-22
1.468277e-05 3.692494e-06 1.128292e-06
-1.011984e-05 1.088499e-05 5.558321e-07
1.199100e-05 9.401905e-06 -1.255103e-06
-1.268732e-05 -7.624415e-06 -2.798140e-07
-1.711969e-05 4.101535e-06 1.754987e-06
2.137560e-06 -1.598003e-05 -1.857185e-06
-1.073858e-05 1.433752e-05 1.565124e-06
1.100726e-05 -1.490250e-05 7.946481e-07
1.093352e-05 1.359831e-05 1.823444e-06
-3.907138e-06 -1.439113e-05 -7.017868e-07
5.397234e-06 -1.789946e-05 -4.792738e-22
7.520244e-06 1.431444e-05 -1.872213e-06
8.662847e-06 -1.532127e-05 -1.756662e-06
-4.038473e-06 1.809126e-05 -7.725115e-07
-1.454728e-05 1.150766e-05 -7.438732e-07
-1.173659e-05 1.075478e-05 -1.776801e-06
2.001509e-06 -1.737202e-05 1.808073e-06
-1.444252e-05 -4.249378e-06 -9.965638e-07
-5.763768e-06 1.761779e-05 -7.722305e-07
9.776230e-06 -1.188493e-05 1.416953e-06
-1.714310e-05 -4.170427e-06 1.735248e-06
6.342233e-06 -1.758684e-05 -4.792738e-22
-8.156886e-06 -1.660456e-05 8.527481e-07
-1.818473e-05 -3.641858e-06 -7.505361e-07
6.872885e-06 1.721500e-05 -7.731481e-07
-3.374610e-06 -1.819987e-05 8.313598e-07
-1.444073e-05 3.344555e-06 3.988023e-07
2.942559e-06 1.449198e-05 -1.504751e-07
-3.418648e-06 1.455420e-05 7.941607e-07
-1.647173e-05 -5.773119e-07 1.939854e-06
-1.283439e-06 -1.476197e-05 -3.723252e-07
1.841908e-05 -1.835285e-06 -8.309364e-07
7.269254e-06 -1.722437e-05 -4.792738e-22
1.259291e-05 -1.364114e-05 7.023612e-07
1.740837e-05 -6.368988e-06 7.717404e-07
1.752416e-05 -3.009194e-06 -1.656304e-06
1.120089e-05 1.358756e-05 -1.752519e-06
1.490144e-05 -5.020154e-06 1.673348e-06
3.399189e-06 -1.819524e-05 -8.314926e-07
-1.666684e-05 -5.260511e-06 1.812026e-06
1.395827e-05 1.066026e-05 -1.774483e-06
-1.748482e-05 -6.164474e-06 -7.651526e-07
-1.405647e-05 -1.207921e-05 -7.794621e-07
8.175669e-06 -1.681307e-05 -4.792738e-22
1.053750e-05 -1.086232e-05 1.119377e-06
1.831728e-06 1.576000e-05 -1.751449e-06
8.654492e-07 -1.516562e-05 1.196434e-06
-1.339774e-05 -9.212453e-06 -1.897183e-06
-1.080627e-05 -1.015580e-05 -4.291738e-07
9.031473e-06 1.215998e-05 1.138259e-06
-1.167671e-05 -1.271383e-05 1.885428e-06
-1.562322e-05 -5.394318e-06 1.945437e-06
9.944669e-06 1.109457e-05 6.672715e-07
-3.531396e-06 1.519920e-05 1.594240e-06
9.058910e-06 -1.635411e-05 -4.792738e-22
-1.578338e-05 -8.174991e-06 1.659928e-06
7.628077e-06 -1.462918e-05 -1.941986e-06
-1.463449e-05 -2.624821e-06 5.740829e-07
1.536695e-05 3.622266e-06 -1.710371e-06
-1.125701e-05 -1.086678e-05 -1.623488e-06
8.213349e-06 -1.660271e-05 -8.028242e-07
8.234484e-06 1.363253e-05 -1.780254e-06
1.337295e-05 -8.801490e-06 1.815817e-06
-9.374072e-06 1.511009e-05 1.655653e-06
2.641442e-06 -1.670914e-05 -1.948676e-06
9.916472e-06 -1.584880e-05 -4.792738e-22
2.649960e-06 -1.464558e-05 -6.219677e-07
-1.517036e-05 -1.068834e-05 -7.218046e-07
1.060246e-05 -1.161432e-05 -1.674304e-06
1.850871e-05 -8.233336e-07 7.942955e-07
-1.722565e-05 -4.280785e-06 -1.675433e-06
8.849521e-06 1.519787e-05 1.763527e-06
3.600326e-06 -1.701807e-05 1.843531e-06
-5.110034e-06 1.478945e-05 1.624198e-06
-1.532539e-05 -9.025645e-06 1.653134e-06
1.591078e-05 2.103381e-06 -1.831288e-06
1.074593e-05 -1.529856e-05 -4.792738e-22
[...]
POINT_DATA 2105
VECTORS 10.000GHz_fone_imag double
-2.729873e+10 1.721274e+10 7.615301e+08
-1.873930e+10 -2.990499e+10 4.625682e+08
1.149689e+10 -3.905060e+10 2.085509e+09
6.151540e+10 -3.018042e+10 3.011520e+09
2.710399e+10 1.400596e+10 3.174255e+08
-2.886366e+10 -4.190445e+10 -6.309192e+08
2.756519e+10 -3.881520e+10 1.287536e+09
-3.116585e+10 -1.118488e+09 1.217351e+09
4.619032e+09 4.988082e+10 5.876885e+07
2.126840e+10 4.858852e+10 3.516006e+08
-3.860727e+10 3.343914e+10 -2.673014e+09
-2.925380e+10 1.668942e+10 2.170376e+08
-8.216423e+09 3.731463e+10 1.290932e+09
3.884546e+10 -4.232277e+10 2.646235e+09
5.587929e+10 2.337199e+10 -6.061913e+09
8.015429e+09 2.753478e+10 1.201799e+09
-3.447670e+10 6.289258e+10 5.919060e+08
9.869943e+09 4.395189e+10 3.825905e+08
3.537014e+10 -1.212376e+10 -6.863172e+08
2.859776e+10 -1.795702e+10 -4.183935e+08
4.489964e+10 2.805367e+10 -3.114168e+08
-5.847528e+09 2.406241e+10 -1.220301e+09
-2.502546e+10 1.092724e+10 -8.490836e+08
-7.296298e+09 -3.669122e+10 -8.464427e+08
-3.463067e+09 -3.935283e+10 -1.455844e+09
-4.308929e+10 -4.224194e+09 -1.169014e+09
-8.460115e+09 6.447791e+10 5.244524e+09
4.094495e+10 4.757999e+10 -2.921390e+08
3.777082e+10 5.730583e+09 -7.521628e+07
1.053487e+10 -3.703655e+10 1.950512e+08
2.077766e+10 -2.342537e+10 -5.955821e+08
2.638670e+10 -3.586604e+10 2.498873e+09
4.861193e+10 -2.011021e+09 3.447399e+08
-2.351156e+10 1.048193e+10 -4.219369e+08
5.520378e+10 -1.424485e+10 6.680952e+09
2.093554e+10 -7.426194e+10 -1.439909e+09
-1.186632e+10 2.363992e+10 -2.595833e+08
1.298460e+10 -2.512290e+10 1.431417e+09
-3.727250e+10 -4.090605e+10 -2.904255e+09
-3.047211e+10 6.349044e+09 -2.064734e+09
6.502292e+10 4.141645e+10 3.564112e+09
-2.544941e+10 -5.743048e+09 -5.941787e+08
7.561506e+10 2.533165e+10 1.077143e+09
-4.192330e+10 5.158951e+09 1.876988e+09
-2.571590e+10 9.353625e+09 -1.346085e+09
4.005903e+10 -2.928810e+10 1.194926e+09
5.611752e+10 6.422911e+08 -1.203806e+09
3.019018e+10 5.672035e+10 3.321748e+09
3.166946e+10 -1.199576e+10 -1.056689e+09
4.348720e+09 -3.013525e+10 -1.787142e+08
4.310912e+10 1.946697e+10 6.991317e+08
3.286849e+10 2.450395e+10 1.127727e+09
-1.763001e+10 -3.366076e+10 1.503197e+09
3.275076e+10 5.591893e+10 3.799485e+09
1.324549e+10 -3.137966e+10 -1.258488e+09
-3.081908e+10 9.611333e+09 1.737327e+08
6.619868e+10 -4.312498e+09 -3.292152e+09
2.429538e+10 -1.471330e+10 1.107906e+09
4.229122e+10 2.072447e+09 1.088673e+08
-1.370910e+10 2.951398e+10 2.206104e+09
-3.050773e+10 2.798272e+10 7.593004e+07
2.864279e+10 -1.671419e+10 -2.690262e+09
-2.688671e+09 2.947692e+10 1.236364e+09
2.889276e+10 -1.899892e+10 9.185189e+08
2.835186e+10 -1.440877e+09 1.538236e+08
1.843707e+10 -4.657561e+10 3.835138e+09
-3.532186e+10 8.259029e+09 4.799237e+08
1.383321e+10 -2.395357e+10 1.298618e+09
8.499900e+09 4.484795e+10 4.102761e+08
2.092221e+10 -1.673377e+10 4.497378e+08
-1.280466e+10 4.670655e+10 -3.184674e+08
4.802959e+10 3.232641e+10 2.401406e+09
-4.304523e+10 -1.734136e+09 2.695516e+09
-1.785784e+10 2.981793e+10 3.169370e+09
-2.049124e+10 -4.261359e+10 8.229081e+08
-3.945834e+10 -5.495238e+10 -1.120406e+09
3.171420e+10 1.612431e+09 -2.075902e+09
-2.808052e+10 4.850421e+09 1.672307e+09
-9.055226e+09 -3.037615e+10 1.078749e+09
-5.463176e+10 2.255661e+10 6.390476e+08
-3.588765e+10 1.373451e+10 -4.370735e+08
8.646738e+09 4.118132e+10 8.168539e+08
-3.731868e+10 3.179349e+10 -2.209816e+09
5.501848e+09 4.392205e+10 -1.248941e+09
-2.672885e+10 4.177135e+10 2.531166e+08
-2.248765e+10 -2.308935e+10 -8.375520e+08
-4.566686e+09 -2.849085e+10 -1.735497e+09
3.622892e+10 1.324825e+10 -7.596122e+08
-2.885504e+10 3.803785e+09 -1.567704e+09
-1.275481e+10 -3.033265e+10 -2.027756e+08
-6.399865e+10 -2.092885e+10 -2.049120e+09
-9.679408e+09 2.350448e+10 3.454264e+08
5.074866e+10 4.427336e+09 -1.477002e+09
-3.257690e+10 5.678831e+10 6.737191e+08
-2.400010e+10 -2.167255e+10 -9.406531e+07
6.339863e+10 -1.580177e+10 3.534797e+09
-5.632863e+10 4.045219e+09 -5.065376e+07
-2.344884e+10 -2.389697e+10 7.979894e+08
-2.685591e+10 -6.001998e+10 -3.847515e+09
-2.956724e+10 3.677767e+09 1.738453e+08
4.749331e+10 -7.414637e+09 -4.987137e+08
-4.398147e+10 -2.477962e+10 -1.791296e+08
6.543634e+10 -4.744267e+09 1.124871e+09
2.054795e+10 -2.311379e+10 3.412795e+09
-2.237644e+10 -3.486818e+10 5.784518e+08
-1.566451e+10 -3.515750e+10 -1.405792e+09
-4.498420e+09 -2.798542e+10 1.715085e+08
5.872401e+10 -3.907347e+10 4.532182e+09
-4.785475e+09 -5.369407e+10 -1.027205e+09
9.092147e+09 -4.543024e+10 -1.651342e+08
-3.224821e+10 4.868448e+08 -1.668654e+09
4.822519e+10 -2.741682e+10 -3.864741e+08
3.214014e+10 1.897705e+10 -2.431746e+09
-2.014186e+10 -2.489625e+10 -3.876170e+07
-5.248638e+10 2.182285e+10 -1.561848e+09
-3.077787e+10 -5.605674e+10 1.698610e+09
4.210907e+10 5.417235e+10 -1.321717e+09
2.367298e+10 3.486619e+10 4.988703e+08
-2.982679e+10 5.209898e+10 1.645275e+09
1.712184e+10 4.541231e+10 -1.094021e+09
2.087574e+10 -3.420565e+10 -1.909437e+08
-3.105246e+10 -5.937565e+08 -1.539433e+09
3.814087e+09 3.624277e+10 -1.078143e+09
5.513896e+10 3.672598e+10 -7.769376e+09
4.892330e+10 -1.697315e+10 -2.216456e+09
2.846460e+10 -2.494915e+10 -3.051589e+09
2.782638e+10 -5.607893e+10 -1.465850e+09
3.148384e+10 2.168696e+10 -9.594433e+08
-4.062320e+09 5.871884e+10 9.117421e+08
5.523230e+10 -1.701120e+10 -2.831690e+08
-2.997930e+10 -1.094674e+10 1.732599e+09
-2.257578e+10 2.617143e+10 -3.007255e+09
-3.557219e+10 -1.853745e+09 3.860365e+08
5.028537e+10 -1.072534e+10 2.661903e+09
-2.938396e+10 -1.553596e+10 -2.761110e+09
-2.556414e+10 -1.101894e+10 -1.229410e+09
-3.430464e+10 -1.369518e+10 5.531121e+08
-3.712338e+10 1.633123e+10 -9.211357e+07
-2.574709e+10 1.989898e+10 -1.488894e+09
-4.661532e+10 1.957820e+10 -2.693821e+09
-1.023225e+10 -4.157052e+10 -6.103003e+08
-4.630012e+10 -1.961915e+10 1.467323e+08
1.758774e+10 1.736988e+10 6.158405e+07
-2.515334e+10 -4.307535e+09 8.211190e+08
2.695977e+10 3.344419e+10 -1.022980e+09
-5.432569e+10 2.591311e+10 -1.064780e+09
3.196353e+10 -5.460583e+10 -3.878404e+09
1.355975e+10 -4.533945e+10 -7.109005e+08
1.375205e+10 2.459648e+10 7.918951e+08
-4.274635e+10 4.128922e+09 -5.043525e+08
3.149439e+10 1.639401e+10 1.197735e+09
-2.293000e+10 1.515733e+10 -7.707261e+08
1.890928e+10 -3.714005e+10 -1.613701e+09
2.524091e+10 -5.180073e+10 2.389070e+09
-2.758102e+10 -4.839699e+09 1.056065e+09
-6.287977e+10 -8.942575e+09 -5.567352e+07
3.069953e+10 5.290713e+10 -1.802935e+09
-4.159571e+10 -2.962087e+10 8.674796e+08
5.491491e+10 1.028295e+10 2.409604e+08
3.337620e+10 3.088821e+08 1.924717e+09
2.122817e+10 4.700798e+10 -3.037540e+08
-5.116078e+10 -5.337083e+10 5.545796e+09
4.573250e+10 -4.951618e+10 2.762926e+08
-2.459314e+10 3.282594e+09 8.264191e+08
-2.780422e+10 1.641661e+10 -7.846192e+08
-3.210648e+10 -7.618122e+09 -4.472531e+07
1.355265e+10 -5.247121e+10 1.609323e+07
5.377841e+10 4.956547e+10 2.603565e+09
3.585398e+10 -4.254335e+10 -5.613081e+08
-2.755301e+10 4.490406e+10 3.617816e+08
7.163869e+09 3.099375e+10 -3.720012e+08
-5.817417e+10 -7.190662e+09 -6.534550e+08
2.544783e+10 1.938956e+10 8.090125e+08
-2.174333e+10 -1.730791e+10 2.848969e+08
3.289476e+10 -2.429311e+10 -6.156989e+08
-6.055908e+10 1.553155e+10 -5.008677e+09
-3.227611e+10 -9.281610e+09 -5.855938e+08
4.164142e+10 -2.054699e+10 -1.074378e+08
-3.055309e+10 -1.907212e+10 1.298331e+08
3.228431e+10 8.144965e+09 -1.515270e+09
1.862690e+10 2.382037e+10 -2.842683e+09
2.781718e+10 3.159923e+10 -1.170952e+09
-3.815593e+10 -2.932767e+09 3.966542e+08
-2.071511e+10 6.318697e+10 -4.350080e+09
3.046209e+10 1.101219e+10 3.587672e+09
-5.304333e+10 -4.100689e+10 -2.656405e+09
-1.019344e+10 3.952864e+10 -1.833254e+09
-2.849284e+10 -1.106435e+10 3.149280e+09
-2.654626e+10 1.185527e+10 -9.427915e+08
-7.546684e+09 3.639782e+10 2.601004e+09
2.371344e+10 -9.700244e+09 4.164447e+08
-2.144912e+10 4.468608e+09 -1.276886e+09
1.346087e+10 5.503139e+10 -2.797754e+08
6.871897e+10 -1.438242e+10 2.347630e+09
5.122793e+10 1.250776e+10 3.005149e+09
-7.510893e+09 4.806230e+10 2.624604e+08
-8.384983e+10 7.097829e+09 -1.986077e+08
-2.890438e+09 -3.078455e+10 1.471712e+09
-2.320613e+10 -9.525820e+09 -5.111848e+08
-2.103915e+10 -1.774342e+10 -7.228576e+08
-1.228753e+10 -3.392712e+10 -4.060627e+08
-5.175309e+09 -3.068189e+10 8.283979e+08
2.414641e+10 -2.296173e+10 -2.827599e+09
-2.139147e+10 -4.555318e+10 -2.080467e+09
-3.370689e+10 -6.521513e+09 -1.197562e+09
-1.545140e+10 4.635671e+10 5.622588e+08
2.252649e+10 -2.797309e+10 1.218602e+09
-1.294209e+10 3.458831e+10 8.512770e+08
-2.173293e+10 2.641850e+10 -1.891680e+09
-3.141922e+10 -1.499029e+10 -3.246804e+09
-3.344027e+10 -3.452979e+10 2.410281e+09
4.369816e+10 -1.002468e+10 1.459016e+09
-4.487975e+10 -5.858042e+09 -9.373334e+08
-1.935363e+10 4.246677e+10 1.271343e+09
-5.403195e+10 5.669697e+10 -4.874809e+08
4.999203e+10 -3.864503e+10 -5.726856e+09
-2.759426e+10 2.616521e+10 -4.135170e+08
-1.674209e+10 3.994581e+10 -8.917873e+08
3.945602e+10 -3.859449e+10 -1.101631e+09
5.672852e+10 1.220926e+10 -1.314564e+09
-2.636629e+10 -1.466677e+10 5.249858e+08
-1.291388e+10 3.303217e+10 5.621429e+08
-3.439982e+10 -1.710042e+10 -1.309298e+09
-1.019595e+10 5.743067e+10 -1.195999e+09
1.167747e+10 -5.817004e+10 -1.025485e+08
-3.186161e+10 3.387913e+10 -8.204554e+08
-2.290921e+10 -1.176651e+10 9.308894e+07
4.053211e+10 -2.526842e+10 -3.285835e+07
-2.058568e+10 -4.495527e+10 2.087612e+09
2.856111e+10 1.720224e+10 -1.222955e+08
-3.630661e+10 -5.626003e+09 -1.763626e+09
-3.104506e+10 -1.913333e+10 -5.265811e+08
-5.310775e+10 -7.951578e+09 -1.608340e+09
-1.758634e+10 2.441625e+10 2.062997e+09
-4.048931e+10 -4.172453e+10 1.413538e+08
2.887302e+08 -3.235022e+10 -4.840382e+08
-7.900587e+09 3.886047e+10 -1.138170e+09
3.549635e+10 -1.737393e+10 -1.640095e+09
-4.012185e+10 -6.618500e+09 1.150557e+09
4.672533e+10 1.272671e+10 -2.985889e+09
-1.593745e+10 2.440004e+10 1.561158e+09
5.861085e+09 -5.282271e+10 -7.035511e+08
-2.950186e+10 -2.095654e+10 6.424586e+08
-2.477507e+10 -2.151391e+10 -2.508529e+09
1.234159e+10 4.483416e+10 -2.705035e+08
-4.268333e+10 3.162399e+09 1.265483e+09
3.656702e+10 -2.737283e+10 1.201018e+09
-9.115796e+08 -5.064459e+10 1.696126e+09
2.855036e+10 1.026076e+10 -4.111949e+09
1.281015e+10 4.859897e+10 9.324923e+08
-2.843994e+10 -2.364903e+10 8.960977e+07
-3.177622e+10 -2.275333e+10 6.731669e+07
-4.157358e+10 4.250158e+10 -1.435604e+09
-2.359565e+10 -2.022937e+10 -1.575701e+09
2.451575e+10 6.592590e+10 1.292739e+09
-5.010138e+09 4.810357e+10 -1.214325e+09
-1.697486e+10 -3.451618e+10 -3.363455e+08
-2.051554e+10 4.219328e+10 -1.517129e+09
1.965791e+10 -2.451516e+10 -3.566944e+09
-6.610313e+10 -1.249250e+10 -1.046587e+09
2.761634e+10 -2.056797e+10 -4.412039e+08
-4.841494e+09 -4.364139e+10 4.135098e+08
-3.860042e+10 1.779474e+10 2.014211e+09
1.362916e+10 -4.069713e+10 -9.341138e+08
-2.172007e+10 -1.757020e+10 2.051131e+09
4.785078e+10 -3.198439e+10 1.384799e+09
-2.342305e+10 1.603207e+10 2.309277e+09
7.339767e+09 -2.900877e+10 2.006967e+09
3.079724e+10 -2.446162e+10 1.010280e+09
-2.747010e+10 -4.316912e+08 -7.622787e+08
-3.398671e+10 1.983721e+10 -3.267102e+08
2.977267e+10 -9.169802e+09 -1.182818e+09
4.053367e+10 2.170795e+10 -9.918065e+08
2.680889e+10 -8.837868e+09 1.041690e+09
-4.779957e+10 -2.763134e+10 -1.934500e+09
-2.100711e+10 -2.061659e+10 -3.116979e+09
-4.525458e+10 -2.783732e+10 1.662730e+09
-4.118733e+10 -1.163619e+10 -7.803823e+07
1.519273e+10 -4.839711e+10 5.870862e+08
-2.113965e+10 4.506355e+10 9.820399e+08
-2.460136e+10 1.319356e+10 -8.227656e+08
-3.380888e+10 3.642925e+10 1.870602e+09
-3.200633e+10 1.013667e+10 -1.484264e+08
2.212292e+09 -5.380049e+10 1.486228e+08
-5.593224e+09 2.655378e+10 5.138409e+08
1.536907e+10 2.079477e+10 1.085259e+09
-1.883345e+10 -2.036824e+10 1.403258e+09
2.288769e+10 6.517938e+10 4.154576e+09
-2.466294e+10 -4.472751e+10 4.356674e+08
2.028480e+10 -3.212286e+10 1.176546e+08
-3.851118e+10 -5.177314e+10 1.937599e+09
-2.042787e+10 1.755763e+10 7.766554e+08
-2.737948e+10 2.060362e+10 1.349849e+08
2.548744e+10 -5.294991e+10 2.867903e+08
2.704869e+10 -6.067565e+09 9.656515e+08
-2.344876e+10 3.226171e+10 -1.008723e+09
-2.242037e+10 -1.414434e+10 -6.959536e+08
-2.071130e+10 -2.526264e+10 4.612237e+08
-1.545068e+10 -1.843455e+10 1.000011e+09
4.937096e+10 -9.940550e+09 6.328714e+08
2.706608e+10 -2.992701e+10 -2.751181e+07
4.571351e+10 -2.269339e+10 1.115120e+09
-3.200908e+10 -8.415167e+09 -7.602641e+08
-6.888321e+09 5.773397e+10 1.547469e+09
-1.261475e+10 -2.361241e+10 -4.885177e+07
2.689112e+10 -9.242699e+09 1.896790e+09
4.580516e+10 -1.301150e+10 -1.534314e+09
-5.148790e+10 -4.433104e+10 -6.079180e+09
-1.896778e+10 -2.448341e+10 -2.433813e+09
3.842558e+10 9.137852e+09 3.968624e+09
-2.847804e+10 -7.541769e+09 -2.408136e+08
4.876828e+10 4.436794e+10 -1.548262e+09
-3.717412e+10 -9.252065e+08 1.212653e+09
-1.101552e+10 -5.464001e+10 -2.194618e+09
-2.260246e+10 5.803187e+10 9.290666e+08
6.479607e+10 -6.106255e+09 -2.331622e+09
-2.397923e+10 2.820500e+10 -2.384323e+09
5.402680e+10 1.616717e+10 -2.080255e+09
-9.167321e+09 -5.356539e+10 -1.230940e+09
-1.727847e+10 -2.574779e+10 1.452746e+09
2.156049e+10 -2.932685e+10 -2.651101e+09
3.957178e+10 -3.480803e+10 2.856521e+09
-3.170075e+10 1.286758e+10 9.056614e+08
4.151224e+10 -1.430709e+10 8.105970e+08
-5.330002e+10 -1.431254e+10 1.537723e+08
3.799873e+09 2.865387e+10 1.492266e+09
-1.540001e+10 -2.113649e+10 -7.538849e+08
-4.201976e+10 3.084650e+10 1.571013e+09
-3.217389e+09 7.018143e+10 4.832714e+09
2.647640e+10 -3.118280e+10 -1.129455e+09
-1.809392e+10 -2.839242e+10 1.855553e+09
-2.120119e+10 -5.744849e+10 2.085144e+09
3.126410e+10 1.019391e+10 -2.169147e+09
-2.441709e+10 -2.747310e+10 -7.371765e+08
3.002787e+10 5.492879e+10 -5.636488e+09
-9.777250e+09 -3.384844e+10 -5.267005e+08
-9.752655e+08 -3.589933e+10 9.264633e+08
1.084114e+10 -2.804513e+10 7.633865e+08
-3.519564e+10 -3.586390e+10 1.758379e+09
-2.624284e+10 -1.489271e+10 -2.825749e+09
-1.446853e+10 -2.904226e+10 1.198435e+09
-1.338649e+10 -2.971037e+10 3.504109e+08
3.174916e+10 3.232781e+10 2.105043e+09
9.189065e+09 6.579467e+10 6.305202e+09
4.558801e+10 -5.069699e+10 8.955603e+08
3.313430e+10 1.251243e+10 3.409712e+09
-3.774743e+10 -2.194250e+10 -8.079350e+08
-1.087573e+10 6.383080e+10 -4.249840e+08
3.760404e+10 -2.237021e+10 -3.434982e+08
-3.764429e+09 -4.098181e+10 2.721674e+08
5.467207e+10 -2.751254e+10 -2.399281e+08
-5.249339e+10 7.623558e+09 -3.529898e+08
-1.153103e+10 -2.361276e+10 2.752528e+08
2.922814e+10 -1.173122e+10 -6.533949e+08
-2.648438e+10 2.973981e+10 1.028556e+09
-2.080354e+10 -2.783391e+10 4.719451e+08
4.464710e+10 3.046477e+10 -3.142094e+08
2.230257e+09 -2.945471e+10 1.879271e+08
-1.105566e+10 2.802395e+10 4.835073e+08
1.322953e+09 2.727076e+10 -2.918960e+09
3.585633e+10 9.723043e+08 2.141718e+09
-8.562515e+09 -3.084907e+10 1.112589e+09
-4.934855e+10 1.504299e+10 -1.588022e+09
-1.030378e+10 -2.516330e+10 -7.365791e+08
6.865275e+10 7.954274e+09 1.165194e+09
2.541568e+10 1.159461e+10 7.807951e+08
-2.500205e+10 -3.956588e+10 -1.028380e+09
1.895247e+10 3.495970e+10 -1.035154e+09
-1.580062e+10 -3.378300e+10 2.976408e+08
1.412937e+10 3.193894e+10 -1.501713e+09
2.170307e+10 2.476665e+10 -2.163742e+09
2.608863e+10 -1.445653e+10 -4.292714e+08
6.186278e+10 -4.081234e+10 -6.925077e+08
-1.351097e+10 -4.662534e+10 5.232407e+08
-7.441522e+09 -2.551292e+10 9.407137e+08
1.331871e+10 -3.401925e+10 2.553075e+09
-5.090364e+10 3.440346e+10 8.811209e+07
-1.951283e+10 4.037261e+10 -6.840751e+07
-8.970543e+09 -3.034168e+10 -6.972036e+07
-1.713460e+08 5.809491e+10 -1.909825e+09
-3.173632e+10 -2.445553e+10 1.168896e+09
-2.367289e+10 -1.945004e+09 4.763088e+08
3.748935e+09 3.561510e+10 -1.599397e+09
-8.443864e+09 -3.601913e+10 2.456597e+09
-3.099541e+10 -2.718410e+10 5.741625e+08
-7.126019e+09 -2.479359e+10 -9.185796e+08
2.691416e+10 -7.430496e+08 1.992251e+09
-6.156740e+10 3.011315e+08 5.918427e+09
2.832041e+10 -4.804316e+10 -6.927824e+08
3.538661e+09 -3.233058e+10 1.009709e+09
-2.245427e+10 -2.644003e+10 7.524230e+08
-4.450946e+10 -2.380555e+10 -1.466421e+09
3.238579e+10 -1.509650e+09 -2.129659e+09
-7.573741e+09 -4.334913e+10 -5.659400e+08
-2.550669e+10 -1.541471e+10 8.573068e+08
1.393447e+10 6.526367e+10 -4.192927e+09
-7.465784e+09 -3.299806e+10 -5.190834e+08
5.169904e+10 1.178720e+10 -7.686044e+08
-1.533252e+10 -2.449093e+10 -2.435386e+08
-2.090529e+10 -5.301496e+10 -1.257462e+09
-4.275941e+10 1.699506e+09 -1.472816e+09
-3.925492e+10 -5.583674e+08 2.348050e+09
6.333455e+10 6.736517e+09 2.462252e+08
3.070546e+10 1.462039e+09 1.485506e+09
-3.907135e+10 -5.989840e+10 3.816682e+08
5.649838e+10 -5.346502e+09 2.448059e+09
3.045818e+10 -2.042786e+10 -6.752859e+07
-4.432050e+09 -3.041410e+10 4.384339e+07
1.429697e+10 3.541623e+10 -3.467026e+08
-4.867511e+10 4.291187e+10 2.356759e+08
-2.655956e+09 3.359226e+10 -1.934437e+09
-5.957375e+10 2.069581e+10 5.597694e+08
-3.302075e+10 2.426423e+10 6.085511e+08
-8.801262e+08 -3.708476e+10 -1.577402e+09
3.141472e+10 3.782760e+10 -3.928234e+07
-1.861371e+10 -3.412781e+10 1.119095e+09
1.694195e+10 4.754406e+10 1.800088e+09
5.036481e+10 -2.442422e+10 1.644398e+09
-2.918642e+09 -2.512408e+10 2.681475e+08
3.815724e+10 4.144224e+09 -1.106666e+09
3.064798e+10 -3.072284e+10 2.087203e+08
-2.186673e+10 2.961483e+10 -2.180654e+09
-3.485003e+09 -7.101296e+10 1.478921e+09
1.088729e+10 3.631472e+10 -1.434137e+08
6.083373e+10 2.866242e+10 -5.078479e+09
3.716677e+10 -3.671027e+10 -5.350260e+08
1.282470e+10 -3.382852e+10 1.089194e+09
4.075865e+07 3.874963e+10 4.207075e+08
4.014030e+10 4.526801e+10 -5.985387e+09
-8.114815e+08 -2.600801e+10 6.593777e+08
-3.682955e+10 -1.891250e+10 6.800984e+08
-3.993327e+10 -5.057049e+09 2.335763e+09
4.386161e+10 -1.987575e+10 -1.318123e+09
-3.087166e+10 -3.155379e+10 4.562886e+08
9.456476e+09 -4.404013e+10 2.205587e+08
9.602612e+09 -4.898500e+10 3.072665e+09
-6.787364e+09 3.592970e+10 -9.982766e+07
-2.107296e+10 3.050026e+10 -3.059996e+08
-1.474097e+10 5.994241e+10 1.529747e+09
-1.900447e+10 -1.718009e+10 -1.145768e+09
-1.047293e+09 -3.169576e+10 1.269090e+09
-4.208138e+10 -9.202777e+09 2.003404e+09
6.109304e+09 2.855212e+10 1.383998e+09
2.395223e+10 -3.611964e+10 1.254454e+09
1.989293e+09 -5.876166e+10 3.452819e+09
3.555346e+10 1.878797e+10 1.161534e+09
6.064076e+10 1.997461e+10 6.654996e+08
-1.706810e+10 -7.530226e+10 1.132983e+09
-3.809376e+10 1.622849e+10 1.670856e+08
-2.572474e+10 2.120274e+10 8.391559e+08
5.248287e+10 1.396159e+10 2.885330e+09
2.281157e+08 -3.590339e+10 5.337657e+08
2.896845e+10 1.226510e+10 -7.693077e+07
2.191560e+10 1.276458e+10 -3.416617e+08
9.970430e+09 6.271212e+10 -5.100037e+09
2.797709e+10 5.923789e+10 2.192361e+09
1.798082e+10 2.468124e+10 1.677219e+09
-4.442755e+10 -1.019517e+10 1.882870e+09
-9.187405e+08 5.496673e+10 -1.355104e+09
-1.595297e+10 3.074194e+10 3.209134e+08
1.667656e+10 1.718650e+10 3.162595e+08
1.177899e+10 3.186781e+10 -3.416473e+08
1.922924e+09 -4.263087e+10 -1.458956e+09
4.377437e+10 -6.759159e+09 2.823647e+09
-3.815713e+10 -4.175969e+10 4.065175e+09
-3.059799e+10 4.031592e+10 -2.266349e+09
-4.955292e+10 -2.723043e+10 1.123749e+09
-3.419982e+10 -4.698631e+10 9.404110e+08
-4.122704e+10 1.969054e+10 1.762875e+08
6.561076e+10 6.670413e+09 -6.279383e+08
7.282792e+09 -2.700696e+10 9.732769e+08
-1.942527e+10 3.333558e+10 2.077003e+09
4.909829e+10 5.821676e+09 -3.844017e+09
-3.229770e+09 -5.193607e+10 8.812442e+08
3.278839e+10 2.911475e+10 3.288716e+08
2.465516e+10 2.403877e+10 -9.368097e+07
1.716029e+10 -6.935080e+10 -2.722727e+09
-5.400425e+10 3.779342e+10 -2.236775e+08
2.455940e+10 3.635812e+10 8.817704e+08
-4.125492e+10 -2.062087e+10 2.759787e+09
2.509728e+10 -3.165392e+10 -2.755475e+08
-4.236601e+10 -5.409923e+09 -8.981261e+08
-5.394813e+09 7.331318e+10 2.047709e+09
-5.303647e+10 1.215483e+10 9.064210e+08
-5.324903e+09 -5.960830e+10 -2.980037e+09
-1.300899e+10 4.981495e+10 2.976979e+09
-4.447381e+10 3.210068e+09 -6.869850e+08
6.235937e+09 3.616251e+10 1.978140e+06
6.640378e+09 6.806627e+10 -6.384347e+08
2.125082e+10 -4.894164e+10 -1.694930e+08
3.465098e+10 -9.391135e+09 -1.596642e+09