# vtk DataFile Version 2.0
Electric current density generated by TTH
ASCII
DATASET UNSTRUCTURED_GRID
POINTS 2568 double
-2.133647e-05 1.721297e-05 -3.377317e-22
2.276434e-05 1.461354e-05 -9.321566e-07
1.764876e-05 -1.928880e-05 1.374551e-06
1.753390e-05 1.933220e-05 -1.377404e-06
-1.306961e-05 -2.095559e-05 -3.334025e-07
-2.460642e-05 -7.166688e-06 -1.317663e-06
2.112440e-05 -1.704188e-05 8.229157e-07
2.112440e-05 1.704188e-05 -8.229157e-07
-2.272059e-05 -9.683461e-06 3.369096e-07
2.130596e-05 -1.323652e-05 -9.972117e-07
2.130596e-05 1.323652e-05 9.972117e-07
-2.186923e-05 1.653082e-05 -3.377317e-22
1.561642e-05 1.908823e-05 -1.295861e-07
2.490618e-05 1.065019e-05 8.907884e-07
2.490618e-05 -1.065019e-05 -8.907884e-07
1.143923e-05 -2.329336e-05 1.376302e-06
-8.417693e-06 -2.372462e-05 -1.076668e-06
1.617652e-05 -2.012044e-05 1.361506e-06
-5.739537e-06 -2.652163e-05 8.309476e-07
8.482630e-06 -2.336999e-05 7.243321e-07
-1.590218e-05 -2.022913e-05 1.344982e-06
-2.868544e-06 2.542086e-05 -1.302366e-06
-2.238018e-05 1.583221e-05 -3.377317e-22
2.018426e-05 1.468782e-05 8.666872e-07
2.018426e-05 -1.468782e-05 -8.666872e-07
2.446936e-05 5.203005e-06 9.292318e-07
2.446936e-05 -5.203005e-06 -9.292318e-07
-9.517539e-06 -2.430045e-05 -1.377471e-06
2.104134e-05 1.552917e-05 -1.373992e-06
2.104134e-05 -1.552917e-05 1.373992e-06
1.152365e-05 2.357011e-05 1.364144e-06
1.018266e-05 -2.250286e-05 -3.425278e-07
-2.183882e-05 1.321851e-05 -1.282113e-06
-2.286883e-05 1.511780e-05 -3.377317e-22
-1.850934e-05 1.774511e-05 1.321492e-06
3.139137e-06 2.493795e-05 -1.044310e-06
-2.435155e-05 3.870894e-06 5.258317e-08
5.464166e-06 -2.654526e-05 -8.738685e-07
-1.208807e-05 2.261874e-05 1.322900e-06
2.156759e-05 -1.433647e-05 1.372033e-06
2.156759e-05 1.433647e-05 -1.372033e-06
1.741403e-05 1.770512e-05 -6.768608e-07
2.271889e-05 -1.478342e-05 -8.695878e-07
2.273065e-05 1.475371e-05 8.773171e-07
-2.333468e-05 1.438833e-05 -3.377317e-22
-3.195512e-06 -2.694191e-05 -8.372891e-07
-1.101206e-06 -2.699243e-05 -9.703212e-07
3.192757e-06 -2.690190e-05 -8.872511e-07
1.474350e-05 -2.140143e-05 1.378098e-06
-1.977887e-06 2.507780e-05 1.061994e-06
-2.569714e-05 2.254115e-06 -1.357960e-06
2.971226e-06 -2.529801e-05 -1.258595e-06
-2.521169e-05 4.702898e-06 -1.323002e-06
-1.440905e-05 2.073473e-05 -1.133336e-06
2.595337e-05 -8.075411e-06 -7.675646e-07
-2.377726e-05 1.364452e-05 -3.377317e-22
2.589708e-05 8.089412e-06 8.368234e-07
-6.828464e-06 -2.419310e-05 -1.047362e-06
-2.605891e-05 -7.325192e-06 -9.125622e-07
-1.126083e-05 -2.320761e-05 -1.357876e-06
-2.307590e-05 -1.101932e-05 1.298742e-06
-2.466118e-05 2.830901e-07 -1.339930e-07
1.753875e-05 -1.754994e-05 6.354905e-07
1.747258e-06 -2.579479e-05 -1.366927e-06
-2.155484e-05 1.203031e-05 -2.789887e-07
1.704052e-05 -1.811245e-05 -7.349310e-07
-2.419615e-05 1.288711e-05 -3.377317e-22
2.601254e-05 8.564742e-07 1.378868e-06
2.601254e-05 -8.564742e-07 -1.378868e-06
-2.007458e-05 1.531893e-05 -1.134822e-06
-2.412519e-05 -1.245870e-05 -8.084067e-07
-1.929005e-05 -1.552033e-05 5.211697e-07
-2.083885e-05 -1.736166e-05 -8.466854e-07
1.456705e-05 -2.120529e-05 -1.343947e-06
2.483631e-05 -6.231449e-06 1.310442e-06
2.483631e-05 6.231449e-06 -1.310442e-06
-2.668434e-05 7.946172e-07 1.210141e-06
-2.459092e-05 1.211685e-05 -3.377317e-22
2.582870e-05 -2.487450e-06 -1.376149e-06
2.582870e-05 2.487450e-06 1.376149e-06
2.427263e-05 8.843659e-06 1.364069e-06
2.427263e-05 -8.843659e-06 -1.364069e-06
1.929531e-05 1.552013e-05 5.308034e-07
1.929531e-05 -1.552013e-05 -5.308034e-07
-9.734051e-06 2.532332e-05 -8.386326e-07
-2.421699e-05 9.610644e-06 -1.378762e-06
-2.412670e-05 -9.870736e-06 1.378509e-06
5.870886e-06 -2.644797e-05 8.860110e-07
-2.496117e-05 1.133451e-05 -3.377317e-22
1.881216e-05 1.633283e-05 -8.013270e-07
1.881216e-05 -1.633283e-05 8.013270e-07
7.608826e-07 2.663748e-05 1.235061e-06
-7.876666e-06 2.484713e-05 -1.378556e-06
-1.585266e-05 -1.915423e-05 -7.269285e-07
6.913178e-06 2.535790e-05 -1.356376e-06
2.296103e-05 -1.020071e-05 1.035786e-06
2.296103e-05 1.020071e-05 -1.035786e-06
7.402917e-06 2.377406e-05 -7.827361e-07
-2.457311e-05 2.034431e-06 -4.972416e-08
-2.530655e-05 1.054087e-05 -3.377317e-22
-2.043036e-05 1.501208e-05 1.198186e-06
6.866485e-06 -2.380038e-05 5.508336e-07
2.109308e-05 1.709006e-05 8.148837e-07
2.109308e-05 -1.709006e-05 -8.148837e-07
-1.476168e-05 2.061456e-05 1.199368e-06
-7.743760e-06 2.418164e-05 1.219325e-06
-1.842405e-05 -1.991222e-05 -8.405486e-07
1.239949e-05 -2.142501e-05 -5.107521e-07
-2.324127e-05 9.389205e-06 9.810223e-07
1.596145e-05 -2.188450e-05 8.917690e-07
-2.562669e-05 9.736725e-06 -3.377317e-22
1.596145e-05 2.188450e-05 -8.917690e-07
-2.258624e-05 -1.112710e-05 -1.080393e-06
1.102566e-05 -2.479916e-05 8.254511e-07
-2.032923e-05 -1.799455e-05 8.125247e-07
2.554382e-05 2.817026e-06 -1.337207e-06
2.554382e-05 -2.817026e-06 1.337207e-06
9.818881e-06 2.262808e-05 1.682673e-07
-2.330588e-05 -1.392895e-05 8.100457e-07
2.862237e-06 2.699327e-05 8.188596e-07
-2.714573e-05 7.982015e-07 -8.011421e-07
-2.592130e-05 8.922875e-06 -3.377317e-22
8.383144e-06 2.319466e-05 -1.370941e-07
-1.685249e-05 -1.803984e-05 2.888776e-07
-2.257391e-05 -1.283028e-05 -1.377123e-06
9.744588e-06 2.529038e-05 -8.726938e-07
1.803033e-05 -1.764938e-05 -1.119970e-06
-5.317431e-06 2.656502e-05 -8.857288e-07
-2.587167e-05 2.956270e-07 -1.369367e-06
-2.017953e-05 -1.433219e-05 -5.029178e-07
2.238344e-05 -1.046888e-05 -3.833332e-07
2.238344e-05 1.046888e-05 3.833332e-07
-2.619006e-05 8.100130e-06 -3.377317e-22
1.197929e-05 2.323930e-05 -1.374502e-06
2.243297e-05 -1.286582e-05 -1.367791e-06
2.243297e-05 1.286582e-05 1.367791e-06
6.903055e-06 2.625478e-05 8.154404e-07
-1.915866e-05 1.922829e-05 8.200545e-07
-2.428224e-06 -2.454517e-05 -1.547482e-07
-1.723698e-05 -2.099583e-05 7.904426e-07
-1.219744e-05 2.424465e-05 8.250304e-07
-2.329269e-05 1.400364e-05 7.713412e-07
2.812265e-06 -2.458792e-05 -4.950862e-07
-2.643271e-05 7.269311e-06 -3.377317e-22
-2.495372e-05 6.419576e-06 -1.352414e-06
1.032638e-05 -2.246020e-05 4.153746e-07
-4.737026e-06 2.574825e-05 1.371229e-06
5.868783e-06 2.644298e-05 -8.923242e-07
1.797285e-05 1.767152e-05 1.101189e-06
9.780813e-08 2.581149e-05 -1.360660e-06
5.763156e-06 2.397846e-05 1.177203e-07
1.937436e-05 -1.708432e-05 -1.363692e-06
1.937436e-05 1.708432e-05 1.363692e-06
-1.927128e-05 -1.739200e-05 -1.376783e-06
-2.664902e-05 6.431245e-06 -3.377317e-22
-4.763597e-06 2.552361e-05 -1.377073e-06
4.326368e-06 -2.428414e-05 -1.676517e-07
-1.439597e-05 -2.009535e-05 -4.135883e-07
3.050273e-07 2.576203e-05 1.351934e-06
-2.643262e-05 6.150245e-06 8.267978e-07
-4.056949e-06 2.684762e-05 8.081645e-07
9.173498e-07 2.478675e-05 6.203722e-07
1.183443e-05 2.176633e-05 -5.609332e-07
-2.525922e-05 6.558631e-06 1.377516e-06
-2.911568e-06 -2.694732e-05 8.709976e-07
-2.683876e-05 5.586769e-06 -3.377317e-22
1.262336e-05 -2.239653e-05 -1.339766e-06
2.593368e-05 4.180118e-06 1.359028e-06
2.593368e-05 -4.180118e-06 -1.359028e-06
4.987003e-06 -2.666260e-05 8.448011e-07
1.089996e-05 -2.273760e-05 -1.108617e-06
-2.197489e-05 1.390944e-05 1.378608e-06
2.088431e-07 -2.483522e-05 -6.808482e-07
-1.452737e-05 -2.292788e-05 8.212738e-07
-1.513818e-05 -2.255017e-05 -7.973405e-07
-1.742451e-05 2.077107e-05 8.615023e-07
-2.700175e-05 4.736723e-06 -3.377317e-22
7.504436e-06 -2.480482e-05 -1.373662e-06
-2.198684e-05 -1.240117e-05 1.128647e-06
-1.706439e-05 -1.973848e-05 1.377716e-06
-2.468227e-05 2.768440e-06 -6.825201e-07
-1.011795e-05 2.515376e-05 8.607207e-07
-2.437344e-05 1.187607e-05 8.602431e-07
-9.665085e-07 -2.467123e-05 -3.037371e-07
-1.596803e-05 -1.887439e-05 4.233249e-07
2.414309e-05 5.440313e-06 -4.956577e-07
2.414309e-05 -5.440313e-06 4.956577e-07
-2.713783e-05 3.881956e-06 -3.377317e-22
-2.703288e-05 -2.227193e-06 8.454498e-07
-4.751790e-06 -2.571441e-05 -1.374125e-06
1.056425e-05 2.350330e-05 -1.352834e-06
-2.566208e-05 -1.619505e-06 -1.340759e-06
-2.470628e-05 -1.449628e-06 4.965078e-07
-2.612606e-05 7.188013e-06 -8.798990e-07
1.623639e-05 2.040912e-05 -1.378174e-06
2.486694e-05 -7.686880e-06 1.378875e-06
2.486694e-05 7.686880e-06 -1.378875e-06
-2.289171e-05 1.461893e-05 -7.955503e-07
-2.724685e-05 3.023320e-06 -3.377317e-22
7.513726e-06 -2.605478e-05 8.555489e-07
-5.413981e-06 -2.510077e-05 1.331833e-06
1.370897e-05 -2.237167e-05 -1.363911e-06
2.601780e-05 -7.584391e-06 8.751996e-07
2.602420e-05 7.569288e-06 -8.728514e-07
2.608586e-05 9.403173e-07 -1.377235e-06
2.608136e-05 -9.075427e-07 1.377501e-06
-4.069381e-06 -2.584208e-05 1.373185e-06
-2.599799e-05 1.679142e-07 1.378408e-06
-1.903655e-05 -1.584130e-05 -5.381780e-07
-2.732871e-05 2.161669e-06 -3.377317e-22
1.070097e-05 2.490765e-05 8.649295e-07
1.416165e-06 -2.470521e-05 -4.886313e-07
-2.323038e-05 -9.709245e-06 -1.079911e-06
-1.911278e-05 -1.743399e-05 1.368932e-06
-2.567316e-05 -2.585724e-06 -1.359214e-06
2.576308e-05 -4.439755e-06 1.374686e-06
2.576308e-05 4.439755e-06 -1.374686e-06
-2.461019e-05 -1.142893e-05 8.323530e-07
-2.408894e-05 5.358275e-06 2.420202e-07
-1.123644e-05 2.256052e-05 1.100118e-06
-2.738333e-05 1.297864e-06 -3.377317e-22
1.993174e-05 -1.496726e-05 8.188510e-07
1.993174e-05 1.496726e-05 -8.188510e-07
-2.349139e-05 -1.146671e-05 -1.374858e-06
-1.809854e-05 -1.874176e-05 -1.378766e-06
-2.368008e-06 2.705640e-05 -7.978076e-07
-2.451550e-05 -6.291417e-06 -1.172750e-06
1.723935e-05 -1.949760e-05 -1.378864e-06
-2.454011e-05 -3.123578e-06 4.679269e-07
-2.132969e-05 -1.450048e-05 -1.357255e-06
-2.480431e-05 -8.696276e-06 -1.356152e-06
-2.741065e-05 4.327651e-07 -3.377317e-22
1.903929e-07 2.718277e-05 7.634507e-07
-1.768024e-05 1.796220e-05 1.100073e-06
-2.557607e-05 9.258156e-06 -7.376646e-07
-7.419420e-06 2.616886e-05 -7.374357e-07
-2.549667e-05 -4.331537e-06 -1.367975e-06
-2.169393e-05 -1.629465e-05 8.357288e-07
-2.062087e-06 2.706243e-05 8.238776e-07
1.619232e-05 1.869602e-05 -4.541747e-07
-1.647352e-05 2.019165e-05 1.378686e-06
-9.386165e-06 2.434632e-05 1.377682e-06
-2.741065e-05 -4.327651e-07 -3.377317e-22
[...]
POINT_DATA 2568
VECTORS 10.000GHz_fone_imag double
1.317230e+10 1.664318e+10 -7.045740e+08
1.372968e+10 -2.030982e+10 6.949470e+08
-1.848787e+10 -1.650026e+10 -1.025882e+09
1.916372e+10 -1.710211e+10 -2.819079e+08
-2.534171e+10 1.447047e+10 -7.023738e+08
-6.805249e+09 2.727654e+10 3.693970e+08
-1.450178e+10 -1.631494e+10 -1.975641e+08
1.601539e+10 -1.945099e+10 5.262429e+08
-1.315607e+10 2.929038e+10 -1.039507e+09
-1.826613e+10 -2.479743e+10 -1.114615e+09
1.626652e+10 -2.347586e+10 -1.282695e+09
1.403826e+10 1.771766e+10 -1.205771e+08
2.442093e+10 -2.040494e+10 1.425577e+08
9.540349e+09 -1.948680e+10 7.969911e+08
-8.041834e+09 -1.995465e+10 -9.181019e+08
-2.346741e+10 -9.384432e+09 1.551173e+09
-3.375711e+10 1.063028e+10 2.569061e+09
-2.153579e+10 -1.605586e+10 -3.570875e+07
-2.087394e+10 4.239026e+09 -4.931443e+08
-2.858230e+10 -9.275875e+09 1.607860e+07
-2.002722e+10 1.687156e+10 1.873353e+08
2.745794e+10 2.253375e+09 -2.027962e+08
1.149828e+10 1.735712e+10 1.769287e+08
1.649221e+10 -2.472669e+10 1.428133e+08
-1.762317e+10 -2.443130e+10 -2.049856e+08
8.230798e+09 -2.770293e+10 -1.990444e+08
-6.413602e+09 -2.969186e+10 -4.037913e+08
-2.280614e+10 8.784119e+09 -4.402496e+08
1.732284e+10 -2.160769e+10 1.136299e+08
-1.674317e+10 -2.214663e+10 1.153596e+08
2.455609e+10 -1.130281e+10 -4.490469e+08
-2.632186e+10 -1.349215e+10 -3.367454e+08
1.389206e+10 2.389757e+10 1.507978e+08
1.110546e+10 1.737441e+10 6.136218e+07
1.949695e+10 2.038773e+10 4.056863e+08
3.103980e+10 -3.209221e+09 -9.725919e+07
4.984181e+09 3.013478e+10 1.179834e+09
-2.160472e+10 -4.310539e+09 1.903501e+08
2.517740e+10 1.319162e+10 1.002785e+08
-1.414559e+10 -2.086359e+10 -7.197462e+08
1.550674e+10 -2.004956e+10 -6.545319e+08
1.921111e+10 -2.164898e+10 -6.356257e+08
-1.198437e+10 -1.756372e+10 -3.160900e+08
1.218092e+10 -1.808108e+10 3.965223e+08
1.142818e+10 1.820817e+10 4.706196e+08
-2.223123e+10 2.245874e+09 -4.184276e+08
-2.190742e+10 7.988374e+08 4.875066e+08
-2.188368e+10 -1.394194e+09 -7.373514e+08
-2.129811e+10 -1.359436e+10 1.197085e+09
2.968519e+10 1.497860e+09 -9.881283e+08
1.671360e+09 2.669737e+10 8.705187e+07
-2.812124e+10 -2.749958e+09 2.326376e+08
4.397338e+09 2.756379e+10 -1.125274e+09
2.317123e+10 1.659569e+10 1.048024e+09
-8.812929e+09 -2.006207e+10 -1.199813e+09
9.011261e+09 1.801028e+10 -5.139284e+08
5.848891e+09 -2.019323e+10 -1.107360e+09
-2.716720e+10 1.008437e+10 -2.036515e+09
-5.865443e+09 2.065063e+10 1.287429e+09
-3.024251e+10 1.394893e+10 -5.243184e+08
-1.263131e+10 2.433169e+10 1.957054e+08
8.250005e+08 3.089157e+10 5.592379e+08
-1.890314e+10 -2.137138e+10 -8.097596e+08
-2.495390e+10 -1.835759e+09 1.278304e+09
1.571090e+10 2.818189e+10 -1.989867e+08
-2.298964e+10 -1.970517e+10 -5.622449e+08
1.041369e+10 1.810481e+10 -5.568475e+08
5.798826e+08 -2.481492e+10 7.113046e+08
-7.765602e+08 -2.482042e+10 7.296986e+08
1.658806e+10 2.308791e+10 3.937542e+08
-9.658775e+09 1.918374e+10 1.220768e+08
-1.861515e+10 2.392063e+10 4.758311e+08
-1.388484e+10 1.680713e+10 -3.834803e+08
-2.154285e+10 -1.414456e+10 -8.595037e+08
-6.790801e+09 -2.612950e+10 -1.301828e+09
7.580786e+09 -2.643764e+10 -8.955721e+08
2.071914e+09 2.315876e+10 -5.399038e+08
9.706032e+09 2.009423e+10 -2.016535e+09
-3.924405e+09 -2.677612e+10 2.370743e+06
2.884438e+09 -2.646912e+10 1.108392e+08
9.006676e+09 -2.472608e+10 3.226869e+08
-1.007117e+10 -2.441773e+10 -5.131194e+07
1.964601e+10 -2.263051e+10 -1.521485e+09
-2.005000e+10 -2.454614e+10 2.236427e+08
1.996663e+10 7.670560e+09 -3.023004e+07
9.317559e+09 2.329197e+10 4.575863e+08
-1.017216e+10 2.219526e+10 -7.035542e+08
-2.055020e+10 -5.268893e+09 -5.173816e+08
8.192541e+09 1.912599e+10 -3.629054e+08
1.834719e+10 -2.352389e+10 -7.244961e+08
-1.969067e+10 -2.299731e+10 2.253076e+08
2.728649e+10 -4.249858e+08 2.361803e+09
2.391914e+10 8.167285e+09 7.298071e+08
-2.687588e+10 2.189336e+10 -1.298451e+09
2.441544e+10 -6.328082e+09 2.882885e+07
-1.085975e+10 -2.762444e+10 3.105625e+07
1.221808e+10 -2.817673e+10 1.794902e+08
2.857117e+10 -9.254916e+09 8.184453e+08
2.583958e+09 3.299367e+10 7.072599e+08
7.412007e+09 1.876068e+10 -1.072380e+09
1.700665e+10 2.225191e+10 -1.066105e+08
-2.870835e+10 -1.006996e+10 -8.212435e+08
1.410963e+10 -1.621856e+10 4.176779e+08
-1.444528e+10 -1.747858e+10 9.085857e+08
2.217629e+10 1.590920e+10 1.961093e+09
2.736420e+10 8.973267e+09 -1.896591e+07
-1.647285e+10 1.491949e+10 -1.028698e+08
-2.590132e+10 -1.506292e+10 8.340965e+08
1.207629e+10 3.331175e+10 8.572511e+08
-1.915243e+10 -1.473982e+10 -3.018374e+08
7.456045e+09 1.917053e+10 3.596384e+08
1.805504e+10 -1.311871e+10 -3.671344e+08
-1.218837e+10 2.580599e+10 1.079410e+08
-2.088817e+10 -9.911710e+09 -7.789743e+08
-1.441107e+10 1.623592e+10 3.870359e+07
3.750972e+09 -2.758413e+10 -6.165364e+08
-4.444587e+09 -2.793788e+10 -9.855793e+08
2.938228e+10 -1.284303e+10 -1.300577e+08
-1.083422e+10 1.830173e+10 -1.476300e+08
2.080181e+10 -2.418241e+09 7.585553e+07
1.466855e+09 2.085856e+10 5.859172e+08
7.232586e+09 2.122188e+10 -1.079689e+09
2.940040e+10 -1.042139e+10 -3.488827e+08
-2.123886e+10 1.954607e+10 -1.151271e+09
-1.417357e+10 2.360992e+10 1.660520e+07
2.015788e+10 -7.268307e+09 -1.238400e+09
-1.980087e+10 -1.959159e+10 2.588888e+08
2.226397e+10 5.132697e+09 -3.244717e+08
1.734135e+08 2.506143e+10 -7.816501e+07
-1.823722e+10 2.494208e+10 1.201747e+09
-1.334055e+10 -2.822912e+10 6.248212e+08
1.296033e+10 -2.806434e+10 -4.861656e+07
4.815956e+09 1.976793e+10 -3.112076e+08
2.172031e+10 -1.163689e+10 -1.020433e+09
-1.338268e+10 -2.572681e+10 -3.003044e+09
1.309077e+10 -2.303786e+10 1.467821e+09
2.070642e+10 -5.695744e+09 6.530293e+07
1.533441e+10 1.505500e+10 1.295987e+08
-3.139076e+10 1.901052e+09 -3.789918e+08
-1.625347e+10 1.377325e+10 4.465128e+08
1.952072e+10 1.004669e+10 -5.316361e+08
1.039317e+10 1.821704e+10 -2.267901e+08
-3.031366e+10 -2.791866e+09 -1.135832e+09
6.140478e+09 1.946386e+10 4.202618e+08
6.781863e+09 2.525569e+10 4.856397e+06
-2.721207e+10 -1.275178e+10 7.584182e+07
2.781978e+10 5.425038e+09 2.731102e+09
2.135731e+10 -4.604128e+09 -1.318001e+08
2.105443e+10 -2.060942e+10 3.845391e+07
3.691836e+10 -3.418024e+09 2.570549e+08
3.227612e+10 -6.671140e+09 1.054221e+09
-1.667749e+10 -1.908875e+10 -2.396856e+09
1.777428e+10 -1.950104e+10 -1.191254e+09
-1.773379e+10 1.831459e+10 -2.129125e+08
4.505890e+09 2.073044e+10 -1.015320e+09
2.819294e+10 3.141009e+09 3.424194e+08
-3.208370e+10 -5.840912e+09 -2.681906e+07
-2.659080e+10 1.980886e+10 7.483010e+08
2.871757e+10 2.235535e+08 7.513075e+08
4.410516e+09 2.159678e+10 -2.784954e+08
2.831675e+10 4.749684e+09 -5.657045e+08
3.193681e+10 -1.144768e+09 3.642186e+09
2.742860e+10 -1.331915e+10 3.543107e+08
6.554055e+09 2.378533e+10 8.336963e+08
-2.451857e+10 2.241159e+09 -2.664911e+08
3.879142e+09 2.034801e+10 -7.210071e+08
-2.405033e+10 -1.285635e+10 2.068271e+08
3.085893e+09 -2.515234e+10 -1.453909e+08
-4.883059e+09 -2.516650e+10 -9.474836e+07
-2.223731e+10 -4.702219e+09 -7.027595e+07
-2.758449e+10 -1.199633e+10 -2.973029e+08
1.332118e+10 2.179589e+10 5.850335e+08
-3.028438e+10 2.412709e+09 -1.608495e+07
-1.808113e+10 1.161393e+10 -1.909634e+09
-1.775703e+10 1.273170e+10 7.569700e+08
1.726867e+10 1.381180e+10 1.064548e+09
4.050702e+09 1.989949e+10 -1.317197e+09
-2.599528e+10 -8.611983e+09 4.052003e+08
-1.429882e+10 2.457694e+10 -2.426665e+08
-1.911168e+10 1.570337e+10 -7.968684e+08
3.522385e+09 2.989285e+10 7.303642e+08
2.164599e+10 1.006280e+10 -6.629059e+08
1.027507e+10 2.008320e+10 -5.211618e+08
-3.219340e+10 8.526149e+08 6.018141e+08
-2.401528e+10 1.933924e+10 8.095882e+07
6.878041e+09 -2.880139e+10 6.200458e+08
-9.211741e+09 -2.916648e+10 1.156733e+09
3.328590e+09 2.173496e+10 -4.769667e+08
-2.502231e+09 2.174767e+10 7.920193e+08
-2.468983e+10 4.997448e+09 1.874175e+09
2.385376e+10 -1.031704e+10 -9.048278e+07
-2.645405e+09 2.583896e+10 2.269936e+08
-3.329481e+09 3.028311e+10 4.150896e+08
6.466543e+09 2.025080e+10 1.536420e+09
2.274339e+10 -1.554971e+10 -5.298972e+08
-1.041340e+10 -3.204937e+10 -3.054866e+08
8.153014e+09 -2.744672e+10 -1.413881e+07
1.147739e+10 1.823136e+10 -2.026080e+08
2.213699e+09 2.057728e+10 1.205434e+08
-2.178144e+10 -6.422018e+09 -1.888041e+08
-2.570701e+10 6.157045e+09 5.483901e+07
-2.076181e+10 -1.330168e+10 -9.646212e+08
-8.217588e+09 -2.560209e+10 2.195922e+09
6.872020e+09 -2.158216e+10 1.997225e+09
9.124401e+08 -2.457171e+10 -4.478691e+08
-8.379506e+08 -2.459507e+10 -3.541117e+08
-2.471373e+10 3.301813e+09 2.563931e+08
7.635834e+08 2.650051e+10 1.123603e+09
-1.771722e+10 2.304764e+10 2.866502e+07
1.320680e+09 2.102131e+10 -7.028507e+08
2.036343e+10 -8.125874e+09 -5.029646e+08
-2.936942e+10 -2.978174e+09 1.781736e+08
-1.166303e+10 2.687648e+10 -6.838062e+08
-1.787134e+10 1.918586e+10 2.289962e+09
-3.444793e+09 2.635572e+10 1.699687e+09
-4.435007e+09 -2.569430e+10 -4.628815e+08
4.039509e+09 -2.427085e+10 -8.002526e+08
-8.200281e+09 1.977585e+10 -3.188780e+08
6.085639e+09 2.979366e+10 -5.050257e+08
2.488388e+10 1.330612e+10 -1.166874e+09
1.110020e+09 2.082389e+10 -1.570706e+08
-1.574891e+10 -2.293187e+10 2.633312e+08
1.676824e+10 -2.333060e+10 6.799280e+08
-1.174655e+10 2.213183e+10 1.324891e+08
-1.900063e+10 1.888494e+10 6.106484e+08
2.154103e+10 1.606442e+09 6.982203e+08
-8.813912e+09 2.687233e+10 3.785285e+08
-1.952806e+10 -2.007588e+10 1.743121e+08
-3.612823e+09 3.028644e+10 1.699022e+09
-1.546758e+10 2.152505e+10 -3.482864e+08
-8.141786e+09 2.301250e+10 1.787106e+08
1.331621e+08 2.065406e+10 7.943392e+08
2.234633e+10 -1.255665e+09 2.637487e+09
2.063389e+10 2.075604e+10 -1.379379e+09
8.536859e+09 2.118357e+10 -1.541990e+09
1.998931e+10 6.097771e+09 -8.783301e+08
-4.763714e+09 2.628023e+10 -1.239959e+09
-1.287561e+10 1.775100e+10 8.610268e+07
2.291940e+10 2.521079e+09 -7.306864e+08
2.438125e+10 -2.127299e+10 -9.564542e+08
1.860455e+10 1.866022e+10 -9.541877e+08
2.402075e+10 9.364747e+09 -4.729762e+08
3.012665e+08 2.124648e+10 6.209860e+08
2.654771e+10 1.734517e+10 -6.832942e+08
2.494074e+09 2.827525e+10 -5.644262e+08
1.958831e+10 2.386983e+10 -1.674705e+07
2.986890e+10 3.968246e+09 -7.745953e+08
1.942430e+09 2.567862e+10 -2.578565e+09
1.183888e+10 2.171802e+10 -1.833853e+07
2.620193e+10 -1.002567e+10 9.095379e+07
-2.260782e+10 2.480236e+10 -1.730214e+08
-2.741634e+10 1.265450e+10 -3.162576e+08
1.138912e+10 -2.332276e+10 4.977333e+08
-1.336055e+09 2.220109e+10 -2.104420e+08
-9.981951e+09 -2.720240e+10 2.849595e+08
3.027676e+10 5.863971e+09 6.360914e+08
3.380180e+10 -2.692898e+09 3.729949e+08
-2.367506e+10 -5.072208e+09 1.842898e+09
2.726525e+10 1.589452e+10 1.330446e+09
-2.723523e+10 -6.376695e+08 -1.962287e+08
2.107364e+10 2.291668e+10 3.937724e+08
8.866314e+09 3.070557e+10 -7.403304e+07
-1.725774e+10 -2.077447e+10 -1.549128e+08
1.553648e+10 -1.884164e+10 4.871888e+08
-1.839196e+09 2.042335e+10 -8.249442e+08
-2.786629e+10 1.908030e+10 -1.221940e+09
9.244562e+09 -2.773885e+10 1.171983e+08
-9.578711e+09 -2.801157e+10 1.938813e+08
7.610957e+09 -3.249983e+10 1.364835e+09
-8.290550e+09 -3.055095e+10 -4.495596e+08
2.719256e+10 4.237175e+09 -4.798205e+08
-4.249670e+09 2.551392e+10 -1.509256e+08
-6.058984e+09 3.167745e+10 7.579250e+07
-2.963366e+10 6.062837e+09 -5.452097e+08
-2.076571e+10 1.575365e+10 2.096284e+08
-1.019321e+09 2.021309e+10 -4.002882e+08
-2.433553e+10 -1.426616e+09 2.152680e+08
1.790108e+10 1.335614e+10 1.728151e+09
-2.766487e+10 4.484909e+09 -3.726011e+08
-5.185659e+09 2.787148e+10 1.602245e+08
-1.914179e+10 7.116931e+09 9.751378e+08
-2.290975e+10 -1.958070e+10 1.790658e+08
-8.345953e+09 2.294475e+10 -2.791568e+09
-1.439966e+10 -1.637512e+10 -1.324584e+09
1.472664e+10 -1.785050e+10 3.087622e+08
-1.261213e+10 1.881427e+10 -3.829716e+08
-3.433657e+09 2.252006e+10 -8.837977e+08
-9.927232e+09 1.872228e+10 -7.008948e+08
2.623561e+10 -1.567386e+10 1.281869e+08
1.990686e+10 -8.470329e+09 3.337838e+08
8.462942e+09 2.118481e+10 -9.906278e+08
2.528077e+10 1.579143e+09 -1.184884e+09
-1.626927e+10 2.021115e+10 -3.228027e+08
-2.916586e+09 -2.999811e+10 1.180062e+09
2.523080e+09 -2.954883e+10 8.341497e+08
-2.315599e+10 7.080874e+09 6.539398e+08
-1.879453e+10 -1.136828e+10 1.098017e+09
-4.798338e+09 2.007568e+10 2.292703e+07
-6.672587e+09 -2.283175e+10 3.365196e+08
7.088881e+09 -2.510204e+10 -3.211657e+08
-1.232214e+10 1.700392e+10 5.269525e+08
2.041006e+10 -6.654161e+09 -3.530603e+07
-3.213102e+10 5.826624e+09 -1.412483e+09
1.823665e+10 -1.017061e+10 -1.011221e+09
1.981512e+10 1.534529e+10 -1.188903e+09
2.957811e+10 1.516953e+09 -3.064576e+09
2.076367e+10 -3.348417e+09 -6.213078e+08
-2.152742e+10 1.065550e+09 -2.154719e+09
-2.338073e+09 2.080878e+10 2.414456e+08
-2.192835e+10 -1.697513e+09 5.207639e+08
2.100631e+10 1.407206e+10 4.848700e+08
2.692679e+10 -3.038640e+09 2.076642e+08
-2.295499e+10 4.429780e+09 2.931065e+08
1.446560e+10 1.567840e+10 -2.748848e+08
1.066354e+10 2.238921e+10 -2.337551e+08
1.498389e+10 1.789861e+10 -7.058795e+07
-1.453825e+10 2.272421e+10 -1.423312e+09
2.228042e+10 6.177408e+09 8.246121e+07
-2.234433e+10 1.398658e+10 -7.768328e+08
-6.142174e+09 2.300444e+10 -4.659187e+08
2.335196e+10 7.925476e+09 4.761641e+08
6.925689e+09 2.863140e+10 -9.206776e+08
3.062553e+08 2.993407e+10 -3.386928e+08
2.255241e+10 -1.988891e+10 -1.783568e+08
2.521298e+10 1.096580e+10 -5.136405e+08
-4.600104e+09 2.142645e+10 6.670862e+08
2.482799e+10 -1.649722e+10 -1.900866e+08
2.243232e+10 -1.281091e+10 -3.541102e+08
-1.051404e+09 2.760070e+10 -4.443201e+08
-2.613843e+10 -7.487122e+09 -6.221289e+08
-5.145911e+09 2.029150e+10 1.030990e+08
1.247120e+10 2.487075e+10 3.580081e+08
7.761880e+09 -2.302030e+10 -6.294083e+07
-1.127444e+10 -2.349500e+10 5.543275e+08
-2.134059e+10 -1.725950e+10 1.332960e+09
2.895375e+10 -5.028312e+09 2.974362e+08
2.131791e+10 -2.611890e+09 -1.707534e+08
2.272618e+09 2.541900e+10 1.376163e+08
1.875043e+10 1.051225e+10 -2.481158e+08
-2.421092e+10 1.186571e+10 1.910929e+09
-2.508759e+10 -1.580548e+10 -8.718741e+08
-6.965195e+09 2.087563e+10 5.393705e+08
-1.510843e+10 -1.565207e+10 -1.711032e+08
1.862550e+10 -2.050696e+10 -3.046871e+09
1.464264e+10 -1.399049e+10 -4.974599e+07
-1.636018e+10 -1.373710e+10 3.586107e+07
-1.037178e+10 2.313986e+10 -1.010138e+09
2.364021e+10 -1.333999e+10 1.031236e+08
-2.351143e+10 -1.593234e+10 5.856048e+08
4.539411e+09 2.355702e+10 -4.485673e+08
-2.016122e+10 -1.702614e+10 9.815593e+08
-6.736697e+09 2.316509e+10 -3.619336e+08
-7.352413e+09 1.945303e+10 -1.248429e+09
-2.325784e+10 -8.568829e+09 -9.950946e+08
9.987747e+09 -2.523186e+10 5.677478e+08
-9.452522e+09 -2.454263e+10 8.360959e+08
2.655166e+10 1.279061e+10 5.109495e+08
-2.167194e+10 1.882109e+10 6.559326e+08
9.344012e+09 -2.844413e+10 2.753208e+08
-1.003174e+10 -2.849973e+10 -2.286963e+09
-1.880361e+10 1.112358e+10 6.922009e+08
2.872625e+10 4.767528e+09 3.023843e+09
-2.064095e+10 1.352597e+10 -3.661389e+08
-6.945363e+09 1.894660e+10 7.833649e+08
2.237284e+10 -5.723808e+09 2.048715e+09
-1.482548e+10 -1.494428e+10 -1.537056e+09
1.674593e+10 -1.498992e+10 9.243512e+08
-1.111803e+10 2.547925e+10 1.610451e+09
2.456388e+10 2.263402e+10 -4.981837e+08
-2.216982e+09 2.812066e+10 -6.895186e+07
1.107495e+10 2.932223e+10 -1.427786e+09
-2.001878e+10 -8.910992e+09 -5.992621e+08
-3.169847e+10 8.841599e+09 4.202565e+09
-2.278473e+10 -1.072306e+10 -6.748921e+07
-8.134104e+09 1.900529e+10 -7.153654e+07
-1.574559e+09 2.082567e+10 3.873254e+08
2.320170e+10 -1.287000e+10 -6.501061e+08
8.214195e+09 1.941672e+10 2.170313e+08
2.587903e+10 3.223135e+09 3.729637e+08
2.741891e+10 2.469621e+09 1.806804e+08
-1.488121e+10 1.718789e+10 -9.833313e+07
-1.851140e+10 2.164999e+10 -3.750441e+08
1.975768e+10 -1.076530e+10 4.311806e+07
2.111693e+10 -1.852205e+10 -1.613712e+08
1.848222e+10 -1.054811e+10 2.104942e+08
-8.656625e+09 1.894939e+10 1.071600e+09
-9.917623e+09 -3.205397e+10 -8.881752e+08
7.558045e+09 -2.852560e+10 6.252451e+08
-2.845116e+10 1.296436e+10 -1.320964e+09
2.365319e+10 -1.178638e+10 1.528667e+08
-3.350505e+09 -2.092106e+10 3.651211e+08
2.810597e+09 -2.052780e+10 8.519209e+08
-1.951122e+10 9.514674e+09 -1.514977e+09
-2.479428e+10 -1.413153e+08 9.368664e+08
-1.639679e+09 3.066517e+10 3.676266e+08
1.258961e+10 2.099736e+10 1.744048e+09
-9.492105e+09 1.791962e+10 -4.935330e+08
-2.515479e+10 -2.288982e+09 1.347450e+08
1.217386e+10 3.008889e+10 -1.164428e+09
1.453893e+10 2.076478e+10 8.976057e+08
-2.428593e+09 2.465647e+10 4.714314e+08
1.089813e+10 1.907846e+10 -2.163561e+08
-5.152470e+09 -2.116210e+10 8.895255e+08
4.871574e+09 -2.292130e+10 -2.160573e+08
-1.917246e+10 1.154117e+10 -1.096943e+09
2.856235e+10 -1.880112e+09 3.538393e+08
2.780172e+10 -4.466303e+08 1.003946e+09
-9.630074e+09 1.809006e+10 1.624510e+08
3.046555e+10 1.163160e+10 1.498034e+09
2.980217e+10 9.342381e+09 -2.196590e+08
1.680430e+10 2.703704e+10 -5.597198e+08
-7.140496e+09 2.092467e+10 1.537363e+09
2.090719e+10 -1.398778e+10 4.297425e+08
2.422408e+10 -7.565862e+09 2.437970e+08
-3.101779e+10 -6.873970e+09 -3.756181e+08
-2.166436e+10 -1.281017e+10 -3.074876e+08
2.360779e+10 -1.895591e+10 -2.630418e+08
-2.529800e+10 -1.684619e+10 -2.279262e+08
-1.062915e+10 1.855969e+10 -8.358297e+08
-1.754689e+10 -1.687631e+10 -4.923948e+08
1.473451e+10 2.674789e+10 9.447156e+08
2.881882e+10 -1.504124e+10 5.097864e+08
1.311360e+10 1.771572e+10 -2.907651e+08
-3.210610e+10 -7.366077e+09 1.025123e+09
-1.081395e+10 2.563457e+10 1.255378e+09
-5.671062e+09 -2.054608e+10 -5.330971e+08
6.245884e+09 -2.108830e+10 2.886164e+08
-2.625716e+10 -3.050995e+09 -5.597524e+08
1.254058e+10 -2.218886e+10 -1.693217e+09
-1.160581e+10 1.733232e+10 -9.900701e+08
-1.257748e+10 -2.229275e+10 -2.689654e+08
-1.821622e+10 -1.079489e+10 7.868501e+08
-7.552148e+09 2.030644e+10 -7.434220e+08
2.948775e+10 -7.963895e+09 -3.158401e+08
-2.486300e+10 -6.821183e+09 -8.655055e+08
2.586212e+10 -1.150942e+10 -2.670307e+08
5.300358e+09 2.839651e+10 5.182897e+08
-2.707449e+10 -6.248615e+09 6.658508e+08
2.222016e+10 -9.423027e+09 2.060993e+08
1.080738e+10 -1.863868e+10 -8.280604e+08
-1.156122e+10 1.707148e+10 1.191566e+08
-9.612334e+09 -1.945220e+10 1.281767e+09
1.259700e+09 -3.003896e+10 -8.771416e+06
-1.620784e+09 -3.091276e+10 1.789564e+08
1.298276e+10 -2.258470e+10 -1.124672e+07
-1.322663e+10 -2.296611e+10 3.082254e+08
1.594980e+10 2.083488e+10 9.709165e+08
2.373573e+10 1.896425e+10 -1.496981e+09
1.104952e+10 2.341024e+10 -5.880691e+08
1.106421e+10 -2.139384e+10 1.102826e+09
-1.145191e+10 -2.141139e+10 4.479999e+08
-1.147416e+10 1.725114e+10 -3.278433e+08
1.071632e+09 3.150461e+10 4.551225e+08
-1.690894e+10 1.524227e+10 3.955492e+07
-2.014584e+10 -2.285944e+10 5.229887e+08
2.097871e+10 -2.228603e+10 1.481104e+09
2.469352e+10 -1.477706e+10 6.676107e+08
2.178789e+09 -2.867368e+10 -6.965348e+08
-2.615848e+09 -2.917748e+10 -8.166487e+08
2.304413e+10 -2.583615e+09 -2.050097e+08
9.514907e+09 -2.463243e+10 -1.740119e+08
-1.025014e+10 -2.915949e+10 4.530024e+07
-1.288643e+10 1.726409e+10 8.039761e+08
-2.431522e+10 8.687133e+09 1.008866e+09
1.597031e+10 1.748123e+10 -7.249509e+08
2.292945e+10 1.432952e+10 1.169464e+09
-1.561302e+10 1.936465e+10 8.183439e+08
8.800697e+08 -2.219233e+10 7.492637e+08
-1.012190e+09 -2.172421e+10 7.546296e+08
1.405549e+10 1.636056e+10 -7.818288e+07
-3.012282e+10 8.048166e+09 -1.658840e+08
2.036633e+10 4.395793e+09 -8.091902e+08
1.880514e+10 1.099300e+10 6.293093e+08
-1.364420e+10 1.600216e+10 -1.304661e+08
-1.003358e+09 2.578808e+10 -4.221580e+08
-1.763368e+10 1.233570e+10 1.143687e+09
-9.028965e+09 3.405423e+10 -1.468486e+09
1.737609e+10 2.320223e+10 -5.039855e+08
1.499704e+10 2.247788e+10 4.879461e+08
-1.938285e+10 -1.098549e+10 -1.112213e+09
-1.057559e+10 1.853416e+10 9.342573e+08
-4.416009e+09 2.498644e+10 -6.731108e+08
5.452741e+09 -2.587358e+10 -5.435864e+08
-4.185022e+09 -2.590666e+10 3.042954e+07
-1.409156e+10 1.672186e+10 4.820797e+07
1.133633e+10 -3.035001e+10 9.992214e+08
-1.329264e+10 -3.374834e+10 2.422151e+09
6.838242e+09 2.111927e+10 8.573267e+08
-2.135078e+10 1.664320e+10 9.199620e+08
3.316441e+10 -5.116014e+09 -9.617389e+08
3.573011e+09 -3.033466e+10 3.100496e+08
-4.909169e+09 -2.891935e+10 6.350743e+08