# vtk DataFile Version 2.0
Electric current density generated by TTH
ASCII
DATASET UNSTRUCTURED_GRID
POINTS 21881 double
4.432814e-05 -1.085726e-20 -6.314008e-23
4.430419e-05 1.457120e-06 -6.314008e-23
4.146077e-05 1.568403e-05 -6.314008e-23
-3.873532e-05 -2.155363e-05 -6.314008e-23
2.481780e-06 4.399133e-05 -2.576291e-07
4.110137e-06 4.386916e-05 -2.576291e-07
-2.571238e-05 3.578085e-05 -2.576291e-07
-3.914330e-05 -2.022864e-05 -2.576291e-07
-1.838735e-06 -4.402289e-05 -2.576291e-07
-4.145789e-05 -1.492112e-05 -2.576291e-07
-3.361635e-05 -2.848398e-05 -2.576291e-07
-3.660671e-05 2.452233e-05 -2.576291e-07
-3.979716e-05 1.890983e-05 -2.576291e-07
-1.595438e-05 -4.107133e-05 -2.576291e-07
-3.865633e-05 -2.169498e-05 -6.314008e-23
-4.396149e-05 -2.963725e-06 -2.576291e-07
2.152578e-05 3.868243e-05 1.650364e-07
2.152578e-05 -3.868243e-05 1.650364e-07
-2.008272e-05 -3.922242e-05 2.577309e-07
-4.202877e-05 1.323994e-05 2.577309e-07
-1.013672e-05 -4.288311e-05 2.577309e-07
-4.299458e-05 -9.652994e-06 2.577309e-07
-4.377121e-05 5.065570e-06 2.576938e-07
-2.584100e-05 -3.569253e-05 2.577309e-07
-1.028018e-05 4.284894e-05 2.577309e-07
-3.857682e-05 -2.183605e-05 -6.314008e-23
6.966160e-06 4.350921e-05 2.576938e-07
-1.307344e-05 4.208087e-05 2.577309e-07
-3.870107e-05 -2.106670e-05 2.576938e-07
-2.343991e-05 -3.731333e-05 2.577309e-07
2.004931e-06 -4.401771e-05 2.576938e-07
-4.026216e-05 -1.790354e-05 2.576938e-07
4.364764e-05 4.309489e-06 1.488307e-07
4.338160e-05 7.899513e-06 2.566121e-07
4.338160e-05 -7.899513e-06 2.566121e-07
1.860958e-05 3.966420e-05 -1.200579e-08
-3.849679e-05 -2.197683e-05 -6.314008e-23
4.162969e-05 1.426068e-05 -2.492417e-07
1.464496e-05 -4.130114e-05 6.447294e-08
2.687307e-05 -3.461354e-05 -6.447297e-08
2.687307e-05 3.461354e-05 -6.447297e-08
4.065338e-05 -1.635729e-05 -6.447322e-08
4.065338e-05 1.635729e-05 -6.447322e-08
2.454064e-05 -3.630448e-05 -6.447333e-08
2.454064e-05 3.630448e-05 -6.447333e-08
2.334966e-05 -3.708142e-05 -6.356744e-08
2.327470e-05 3.712879e-05 -6.447333e-08
-3.841626e-05 -2.211731e-05 -6.314008e-23
4.364750e-05 -4.309274e-06 1.486106e-07
4.209770e-05 1.233324e-05 1.586098e-07
1.867690e-06 -4.424280e-05 -1.468759e-07
-3.866073e-05 -2.158824e-05 -1.502362e-07
-4.294569e-05 -1.080412e-05 -1.444433e-07
7.471330e-06 4.364497e-05 -1.502362e-07
2.836881e-06 -4.419124e-05 -1.468759e-07
9.138672e-06 -4.330352e-05 -1.774838e-07
-4.540149e-06 4.385718e-05 -2.569157e-07
1.080311e-05 4.274761e-05 -2.569157e-07
-3.833521e-05 -2.225750e-05 -6.314008e-23
-3.761626e-05 -2.300178e-05 -2.569157e-07
-3.862514e-05 2.126413e-05 -2.569157e-07
-1.757559e-05 4.043716e-05 -2.569157e-07
-3.714447e-05 2.375612e-05 -2.569157e-07
-2.354896e-05 3.727615e-05 -2.569157e-07
-6.825732e-07 4.408627e-05 -2.569157e-07
-3.657214e-05 -2.462811e-05 -2.569157e-07
-2.817470e-05 -3.391535e-05 -2.569157e-07
-1.750525e-05 -4.046766e-05 -2.569157e-07
3.361023e-05 -2.847141e-05 2.568600e-07
-3.825364e-05 -2.239739e-05 -6.314008e-23
3.520051e-05 2.646754e-05 2.561087e-07
1.853066e-05 4.020624e-05 1.617633e-07
-6.054822e-07 -4.408689e-05 -2.569566e-07
-3.302621e-05 -2.921113e-05 -2.569566e-07
-2.775034e-06 -4.400364e-05 -2.569566e-07
-3.550311e-05 2.614478e-05 -2.569566e-07
-4.340820e-05 -7.729739e-06 -2.569566e-07
-4.337967e-05 7.888258e-06 -2.569566e-07
-2.189294e-05 3.827166e-05 -2.569566e-07
-3.103546e-05 -3.131806e-05 -2.569566e-07
-3.817157e-05 -2.253698e-05 -6.314008e-23
-2.272645e-05 3.778266e-05 -2.569566e-07
-4.166458e-05 1.442511e-05 -2.569566e-07
-3.355421e-05 2.860307e-05 -2.569566e-07
-2.823364e-05 3.386565e-05 -2.569566e-07
-3.176819e-05 3.057455e-05 -2.569566e-07
-4.033840e-05 1.779985e-05 -2.569566e-07
-3.109048e-05 3.126344e-05 -2.569566e-07
-3.487421e-05 -2.697796e-05 -2.569566e-07
1.840226e-05 -3.976063e-05 7.738949e-09
4.382326e-05 -4.078787e-06 2.512517e-07
-3.808899e-05 -2.267627e-05 -6.314008e-23
9.797926e-06 4.271886e-05 8.808985e-08
-2.355376e-06 4.376474e-05 8.808985e-08
-4.038186e-05 1.703543e-05 8.808985e-08
-2.605195e-06 4.375058e-05 8.808985e-08
-3.224164e-05 2.968800e-05 8.808985e-08
1.004165e-05 4.266223e-05 8.808985e-08
-3.015593e-05 -3.180441e-05 8.808985e-08
-4.047846e-05 1.680461e-05 8.808985e-08
-3.033701e-05 -3.163173e-05 8.808985e-08
-3.207162e-05 2.987159e-05 8.808985e-08
-3.800590e-05 -2.281526e-05 -6.314008e-23
-4.341160e-05 -8.668663e-06 1.647270e-07
-2.680510e-05 -3.523066e-05 1.647270e-07
4.382326e-05 4.078761e-06 2.512501e-07
3.586720e-05 -2.556048e-05 2.563435e-07
-2.909015e-05 -3.313256e-05 -2.569721e-07
-3.340410e-06 4.396414e-05 -2.569721e-07
3.341792e-05 2.845377e-05 -1.846636e-07
7.133681e-06 -4.348528e-05 -2.577606e-07
3.682551e-05 -2.456625e-05 1.659952e-07
3.682551e-05 2.456625e-05 1.659952e-07
4.140320e-05 1.583538e-05 -6.314008e-23
-3.792230e-05 -2.295394e-05 -6.314008e-23
4.356593e-05 5.034894e-06 -1.430659e-07
4.356616e-05 -5.042779e-06 -1.447483e-07
8.048971e-06 -4.352827e-05 1.676339e-07
-1.277427e-05 -4.192918e-05 9.803080e-08
-2.589896e-05 3.536215e-05 9.803080e-08
-4.381741e-05 -1.127937e-06 9.803080e-08
-4.336588e-05 -6.374826e-06 9.803080e-08
-3.975829e-05 1.845309e-05 9.803080e-08
-4.110635e-05 -1.521531e-05 9.803080e-08
-4.355036e-05 -4.960262e-06 9.803080e-08
-3.783819e-05 -2.309232e-05 -6.314008e-23
-3.479485e-05 2.665627e-05 9.803080e-08
2.073538e-06 4.378286e-05 9.803080e-08
-6.547500e-06 4.334015e-05 9.803080e-08
1.385587e-05 4.158429e-05 9.803080e-08
-3.031236e-05 3.166068e-05 9.803080e-08
-4.173363e-05 -1.339932e-05 9.803080e-08
-3.369591e-05 -2.803254e-05 9.803080e-08
-3.619437e-05 2.472257e-05 9.803080e-08
-3.178116e-05 -3.018602e-05 9.803080e-08
4.482703e-06 4.360210e-05 9.803080e-08
-3.775359e-05 -2.323039e-05 -6.314008e-23
-8.440468e-06 4.301159e-05 9.803080e-08
-2.742373e-05 3.419323e-05 9.803080e-08
-1.670645e-05 4.052324e-05 9.803080e-08
-1.433581e-06 -4.380848e-05 9.803080e-08
-3.774060e-05 2.229092e-05 9.803080e-08
-1.550170e-05 -4.099921e-05 9.803080e-08
-7.653494e-06 -4.315857e-05 9.803080e-08
-1.888769e-05 3.955368e-05 9.803080e-08
-3.517199e-05 -2.615663e-05 9.803080e-08
-4.248477e-05 1.078345e-05 9.803080e-08
-3.766847e-05 -2.336814e-05 -6.314008e-23
-4.375750e-05 -2.553222e-06 9.803080e-08
-4.309002e-06 -4.361961e-05 9.803080e-08
4.229043e-05 1.306371e-05 -1.722112e-07
1.946192e-05 -3.977489e-05 -1.485848e-07
3.881018e-05 -2.060005e-05 2.215224e-07
3.881018e-05 2.060005e-05 2.215224e-07
1.019495e-05 -4.266486e-05 1.571617e-07
4.370317e-05 3.217225e-06 6.704050e-08
-2.900537e-05 -3.346276e-05 1.443357e-07
-4.280210e-06 4.407661e-05 1.443357e-07
-3.758286e-05 -2.350559e-05 -6.314008e-23
-7.279318e-07 4.427796e-05 1.443357e-07
-4.044191e-07 4.428210e-05 1.443357e-07
-4.602118e-06 4.404416e-05 1.443357e-07
-2.924908e-05 -3.324995e-05 1.443357e-07
3.034854e-05 -3.167891e-05 -1.623621e-07
3.916990e-05 -2.013164e-05 -2.560527e-07
3.916990e-05 2.013164e-05 -2.560527e-07
3.767867e-05 -2.326975e-05 -1.427275e-07
3.276440e-05 -2.917808e-05 -1.662082e-07
8.358841e-06 4.301499e-05 -5.991211e-08
-3.749674e-05 -2.364273e-05 -6.314008e-23
-4.367168e-05 3.576372e-06 -5.207488e-08
-4.061182e-05 -1.645255e-05 -5.207488e-08
-3.776207e-05 -2.222684e-05 -5.207488e-08
4.284072e-05 1.018117e-05 2.551973e-07
4.284072e-05 -1.018117e-05 2.551971e-07
1.696066e-05 -4.072820e-05 2.532351e-07
4.399963e-06 -4.359804e-05 -5.939527e-08
4.351516e-05 7.016466e-06 2.576979e-07
4.351516e-05 -7.016466e-06 2.576979e-07
4.305631e-05 1.029806e-05 1.622106e-07
-3.741012e-05 -2.377954e-05 -6.314008e-23
3.285881e-05 -2.898560e-05 -4.360082e-08
4.305631e-05 -1.029805e-05 1.622102e-07
3.931882e-05 1.972619e-05 2.448419e-07
3.931882e-05 -1.972619e-05 2.448419e-07
4.366619e-05 7.327751e-06 -1.544263e-07
4.366619e-05 -7.327751e-06 -1.544263e-07
4.370298e-05 -7.066108e-06 1.624277e-07
4.370298e-05 7.066108e-06 1.624277e-07
3.960253e-05 1.978703e-05 1.623303e-07
3.960253e-05 -1.978703e-05 1.623303e-07
-3.732301e-05 -2.391604e-05 -6.314008e-23
5.651828e-06 -4.345381e-05 -6.076314e-08
1.934736e-05 -3.957306e-05 2.569342e-07
1.934736e-05 3.957306e-05 2.569342e-07
4.330124e-05 6.896421e-06 -1.286963e-07
4.330124e-05 -6.896421e-06 -1.286963e-07
4.396921e-05 5.214189e-06 1.537186e-07
4.396920e-05 -5.214186e-06 1.537218e-07
1.168988e-05 -4.269751e-05 1.644866e-07
3.357989e-05 -2.845715e-05 -2.520193e-07
2.137011e-05 -3.854588e-05 2.577707e-07
-3.723539e-05 -2.405223e-05 -6.314008e-23
2.137011e-05 3.854588e-05 2.577707e-07
8.970626e-06 -4.290881e-05 -1.084747e-07
1.986445e-05 3.934491e-05 -2.577444e-07
1.986445e-05 -3.934491e-05 -2.577444e-07
3.425154e-05 2.804992e-05 -1.612257e-07
3.755184e-05 2.257153e-05 -2.082974e-08
3.755185e-05 -2.257151e-05 -2.087154e-08
3.517473e-05 2.646028e-05 -2.519933e-07
1.138037e-05 -4.278348e-05 -1.616074e-07
4.229980e-05 -1.305102e-05 1.662237e-07
-3.714728e-05 -2.418809e-05 -6.314008e-23
-3.006722e-05 -3.202827e-05 -2.162509e-07
-3.775960e-06 4.376763e-05 -2.163709e-07
-4.101082e-05 1.574675e-05 -2.162509e-07
-3.246418e-05 2.959602e-05 -2.162509e-07
-4.065586e-05 1.664178e-05 -2.162509e-07
1.027748e-05 4.271090e-05 -2.162509e-07
5.738954e-08 4.392999e-05 -2.162509e-07
-1.454169e-05 -4.145343e-05 -2.162509e-07
1.020160e-06 4.391818e-05 -2.162509e-07
9.624706e-06 4.286348e-05 -2.167316e-07
4.134507e-05 1.598652e-05 -6.314008e-23
-3.705867e-05 -2.432362e-05 -6.314008e-23
-5.021180e-06 4.364213e-05 -2.162509e-07
-3.615617e-05 -2.495153e-05 -2.162509e-07
-2.142741e-06 4.387774e-05 -2.162509e-07
-3.872258e-05 2.074630e-05 -2.162509e-07
-1.796919e-05 4.008685e-05 -2.162509e-07
-1.180587e-06 4.391416e-05 -2.162509e-07
-1.178649e-05 -4.231933e-05 -2.162509e-07
-3.727572e-05 2.324581e-05 -2.162509e-07
-3.721486e-05 -2.334312e-05 -2.162509e-07
-1.698052e-05 -4.051554e-05 -2.162509e-07
-3.696957e-05 -2.445884e-05 -6.314008e-23
-2.388440e-05 3.686981e-05 -2.162509e-07
-2.768459e-05 -3.410881e-05 -2.162509e-07
1.488717e-05 4.133061e-05 -2.162509e-07
-4.293558e-05 9.294284e-06 -2.162509e-07
4.425107e-05 -1.280832e-06 -1.635702e-07
[...]
POINT_DATA 21881
VECTORS 10.000GHz_fone_imag double
4.859978e-05 8.975354e-06 3.047244e-02
2.439892e-04 2.694415e-07 3.035703e-02
4.405931e-05 -4.437720e-05 3.034796e-02
4.158360e-05 1.562988e-04 3.033577e-02
1.604664e-03 3.111323e-02 -1.900243e-03
2.988558e-03 3.101472e-02 -1.927515e-03
-1.826227e-02 2.524708e-02 -1.895441e-03
-2.763204e-02 -1.437434e-02 -1.881982e-03
-1.260306e-03 -3.116028e-02 -1.833169e-03
-2.932704e-02 -1.062281e-02 -1.840908e-03
-2.381252e-02 -2.012716e-02 -1.842238e-03
-2.588173e-02 1.738145e-02 -1.837725e-03
-2.820127e-02 1.333080e-02 -1.843483e-03
-1.122263e-02 -2.909569e-02 -1.845873e-03
1.271131e-04 3.883310e-05 3.034130e-02
-3.109615e-02 -2.007856e-03 -1.931194e-03
-9.876183e-03 -1.797860e-02 2.257218e-02
-9.877560e-03 1.797839e-02 2.257163e-02
1.417933e-02 2.768434e-02 -1.188165e-03
2.965054e-02 -9.345206e-03 -1.185934e-03
7.147123e-03 3.025079e-02 -1.149078e-03
3.031288e-02 6.795236e-03 -1.158614e-03
3.087549e-02 -3.647406e-03 -1.341751e-03
1.823645e-02 2.520567e-02 -1.184009e-03
7.257323e-03 -3.021999e-02 -1.148448e-03
-1.149908e-04 4.317954e-05 3.031385e-02
-4.763519e-03 -3.075477e-02 -1.407134e-03
9.205512e-03 -2.967468e-02 -1.159283e-03
2.742849e-02 1.474282e-02 -1.427861e-03
1.653807e-02 2.631236e-02 -1.161149e-03
-1.342602e-03 3.105823e-02 -1.347182e-03
2.837243e-02 1.268278e-02 -1.307819e-03
-1.806388e-02 -1.987935e-03 -2.580136e-02
-3.031382e-02 -5.669889e-03 2.570695e-03
-3.031373e-02 5.669879e-03 2.570595e-03
5.754339e-04 1.190033e-03 -3.195340e-02
8.353929e-05 -8.827122e-05 3.040322e-02
2.850934e-02 9.767228e-03 -8.206855e-03
-2.411088e-03 7.173626e-03 -3.093196e-02
4.774605e-03 -5.949439e-03 -3.095640e-02
4.775276e-03 5.950559e-03 -3.095603e-02
7.032605e-03 -2.962892e-03 -3.095293e-02
7.032750e-03 2.962401e-03 -3.095488e-02
4.339820e-03 -6.259153e-03 -3.089991e-02
4.373668e-03 6.251897e-03 -3.094837e-02
4.292277e-03 -7.009465e-03 -3.089929e-02
3.947982e-03 6.530472e-03 -3.095937e-02
-2.633910e-05 1.051020e-04 3.032599e-02
-1.801176e-02 1.948794e-03 -2.583046e-02
-1.831143e-02 -5.339182e-03 -2.521005e-02
6.679492e-04 -1.732695e-02 2.518967e-02
-1.561100e-02 -8.920645e-03 2.486843e-02
-1.651001e-02 -4.188401e-03 2.536214e-02
3.246855e-03 1.764191e-02 2.488637e-02
1.057348e-03 -1.742489e-02 2.512842e-02
4.328355e-03 -2.067084e-02 2.170262e-02
-3.208269e-03 3.070096e-02 2.009936e-03
7.574737e-03 2.989791e-02 2.165118e-03
2.502529e-04 -1.085675e-04 3.030407e-02
-2.633704e-02 -1.613798e-02 2.002719e-03
-2.700771e-02 1.488823e-02 2.170762e-03
-1.225438e-02 2.835674e-02 2.080610e-03
-2.596005e-02 1.662170e-02 2.173158e-03
-1.653025e-02 2.608053e-02 1.971399e-03
-4.696969e-04 3.085403e-02 2.042937e-03
-2.557703e-02 -1.729145e-02 2.013929e-03
-1.970704e-02 -2.377354e-02 1.979696e-03
-1.226048e-02 -2.829244e-02 2.155520e-03
-2.386744e-02 1.987183e-02 -3.253215e-03
1.178968e-05 1.792654e-04 3.035932e-02
-2.473828e-02 -1.854151e-02 -4.503657e-03
-8.211620e-03 -1.733067e-02 2.383124e-02
-3.131077e-04 -3.092692e-02 2.063627e-03
-2.309180e-02 -2.048601e-02 2.158123e-03
-1.989012e-03 -3.080800e-02 2.177850e-03
-2.495175e-02 1.824390e-02 2.020737e-03
-3.038944e-02 -5.475526e-03 2.164310e-03
-3.037490e-02 5.579793e-03 2.159241e-03
-1.538603e-02 2.678158e-02 2.164764e-03
-2.168765e-02 -2.198430e-02 2.161919e-03
3.469822e-04 6.507931e-05 3.041800e-02
-1.599094e-02 2.645973e-02 1.980360e-03
-2.914165e-02 1.018916e-02 2.039372e-03
-2.345998e-02 2.007450e-02 2.161330e-03
-1.988251e-02 2.367730e-02 2.050184e-03
-2.232795e-02 2.139426e-02 1.976422e-03
-2.833820e-02 1.240219e-02 2.060747e-03
-2.187037e-02 2.187235e-02 2.044429e-03
-2.438484e-02 -1.899078e-02 2.019931e-03
-6.836659e-04 9.105331e-04 -3.192960e-02
-3.031013e-02 2.587282e-03 -7.469160e-03
-1.761554e-04 1.413254e-04 3.034404e-02
-2.399477e-03 -1.047762e-02 -2.985273e-02
4.800239e-04 -1.094214e-02 -2.981485e-02
1.021239e-02 -4.400436e-03 -2.977865e-02
6.241330e-04 -1.066456e-02 -2.982685e-02
8.135126e-03 -7.338362e-03 -2.981996e-02
-2.644828e-03 -1.077535e-02 -2.982951e-02
7.380005e-03 7.715038e-03 -2.985336e-02
9.831601e-03 -4.133692e-03 -2.986121e-02
7.792338e-03 7.972446e-03 -2.981405e-02
7.827337e-03 -7.270485e-03 -2.983440e-02
-7.258856e-05 -1.427560e-04 3.065684e-02
1.934392e-02 3.841943e-03 2.335428e-02
1.205236e-02 1.560304e-02 2.346135e-02
-3.026689e-02 -2.631496e-03 -7.461827e-03
-2.523466e-02 1.782097e-02 -4.091857e-03
-2.049497e-02 -2.316989e-02 1.961355e-03
-2.201115e-03 3.083104e-02 1.940945e-03
1.712726e-02 1.475569e-02 -2.226255e-02
4.884915e-03 -3.093373e-02 -4.755946e-04
-1.656098e-02 1.087306e-02 2.335867e-02
-1.649324e-02 -1.077437e-02 2.340120e-02
2.042977e-04 1.525991e-04 3.055136e-02
2.286466e-05 1.021103e-04 3.043433e-02
1.735965e-02 1.987633e-03 -2.640036e-02
1.750733e-02 -2.088114e-03 -2.620234e-02
-3.786184e-03 1.951830e-02 2.314095e-02
3.632975e-03 1.140401e-02 -2.933757e-02
6.965757e-03 -9.685738e-03 -2.931376e-02
1.193102e-02 2.419346e-04 -2.936138e-02
1.183477e-02 1.910286e-03 -2.935126e-02
1.085386e-02 -5.181041e-03 -2.929086e-02
1.132770e-02 4.054748e-03 -2.929216e-02
1.189772e-02 1.215352e-03 -2.934343e-02
3.288466e-04 -1.325527e-04 3.046555e-02
9.418935e-03 -7.298952e-03 -2.935459e-02
-7.146993e-04 -1.193975e-02 -2.931338e-02
1.612725e-03 -1.187845e-02 -2.934635e-02
-3.641203e-03 -1.141565e-02 -2.932107e-02
8.190626e-03 -8.651413e-03 -2.934374e-02
1.143442e-02 3.520588e-03 -2.932273e-02
9.168094e-03 7.797050e-03 -2.929454e-02
1.000930e-02 -6.676397e-03 -2.927819e-02
8.587018e-03 8.340151e-03 -2.937010e-02
-1.084584e-03 -1.191243e-02 -2.930081e-02
1.594896e-04 3.903205e-04 3.064408e-02
2.166098e-03 -1.182620e-02 -2.934453e-02
7.367377e-03 -9.424530e-03 -2.934215e-02
4.418935e-03 -1.114029e-02 -2.933439e-02
5.246077e-04 1.200486e-02 -2.927329e-02
1.037760e-02 -5.944424e-03 -2.934001e-02
4.431977e-03 1.118188e-02 -2.931336e-02
1.948070e-03 1.184669e-02 -2.926683e-02
5.321567e-03 -1.075169e-02 -2.931398e-02
9.685145e-03 7.016072e-03 -2.934401e-02
1.162856e-02 -2.792946e-03 -2.932921e-02
3.643622e-05 -5.331462e-05 3.045651e-02
1.195390e-02 8.229201e-04 -2.929892e-02
1.305980e-03 1.189233e-02 -2.936683e-02
1.979677e-02 6.192572e-03 2.274146e-02
7.788966e-03 -1.591248e-02 2.475803e-02
-2.380340e-02 1.254827e-02 -1.656600e-02
-2.380354e-02 -1.254846e-02 -1.656599e-02
-4.426789e-03 1.852069e-02 -2.531938e-02
-8.283527e-03 -7.489181e-04 -3.071949e-02
1.142905e-02 1.328088e-02 2.530824e-02
1.637032e-03 -1.741816e-02 2.529243e-02
-1.982820e-04 2.324333e-04 3.056557e-02
2.444100e-04 -1.760456e-02 2.523242e-02
9.191037e-05 -1.757466e-02 2.528823e-02
1.821900e-03 -1.763408e-02 2.518275e-02
1.170223e-02 1.335785e-02 2.517395e-02
1.358314e-02 -1.405065e-02 -2.488959e-02
2.756925e-02 -1.400600e-02 -4.138630e-03
2.756939e-02 1.400609e-02 -4.138910e-03
1.436265e-02 -9.027131e-03 2.538019e-02
1.530261e-02 -1.344944e-02 -2.443089e-02
1.547847e-03 7.381378e-03 -3.104098e-02
-1.014269e-04 -3.971799e-04 3.049612e-02
-6.760386e-03 6.659630e-04 -3.118950e-02
-6.268922e-03 -2.606448e-03 -3.115593e-02
-5.884741e-03 -3.362899e-03 -3.114825e-02
-2.989708e-02 -7.218992e-03 -5.507074e-03
-2.989714e-02 7.220700e-03 -5.506955e-03
-1.182813e-02 2.812138e-02 5.305936e-03
8.612671e-04 -7.434796e-03 -3.104293e-02
-3.101678e-02 -4.963963e-03 8.214603e-04
-3.101687e-02 4.963936e-03 8.211119e-04
-1.872241e-02 -4.410022e-03 2.371154e-02
1.898288e-05 1.032080e-04 3.044509e-02
4.095919e-03 -3.501940e-03 -3.139564e-02
-1.871918e-02 4.412895e-03 2.371131e-02
-2.647065e-02 -1.334863e-02 -9.958871e-03
-2.647073e-02 1.334864e-02 -9.958980e-03
1.837275e-02 3.062844e-03 2.432928e-02
1.837297e-02 -3.062930e-03 2.432885e-02
-1.971982e-02 3.219302e-03 2.359093e-02
-1.971955e-02 -3.219272e-03 2.359133e-02
-1.757884e-02 -8.720115e-03 2.367049e-02
-1.757897e-02 8.720096e-03 2.367066e-02
-1.967589e-04 -1.297615e-05 3.037582e-02
7.339171e-04 -7.319801e-03 -3.096133e-02
-1.355862e-02 2.792901e-02 -3.342046e-03
-1.357686e-02 -2.787354e-02 -3.213753e-03
1.497979e-02 2.295069e-03 -2.799717e-02
1.497967e-02 -2.295034e-03 -2.799705e-02
-1.847912e-02 -2.214753e-03 2.450290e-02
-1.847452e-02 2.232902e-03 2.450837e-02
-4.799442e-03 1.888103e-02 2.331728e-02
2.331056e-02 -1.969550e-02 -7.207405e-03
-1.522900e-02 2.711445e-02 2.425246e-04
-3.076326e-04 -3.011050e-04 3.083033e-02
-1.522764e-02 -2.711418e-02 2.427180e-04
2.538227e-03 -1.293711e-02 -2.908112e-02
1.408795e-02 2.769525e-02 -1.644079e-04
1.409097e-02 -2.768810e-02 -1.470568e-04
1.506596e-02 1.224121e-02 2.360135e-02
2.182501e-03 1.285252e-03 -3.168709e-02
2.258460e-03 -1.393218e-03 -3.170680e-02
2.429787e-02 1.839131e-02 -7.345059e-03
5.015506e-03 -1.861710e-02 2.389000e-02
-1.905130e-02 5.840515e-03 2.312856e-02
2.736228e-05 -1.057891e-04 3.039924e-02
-1.798246e-02 -1.897422e-02 -1.747211e-02
-2.214028e-03 2.609422e-02 -1.754829e-02
-2.443373e-02 9.427687e-03 -1.748036e-02
-1.917013e-02 1.759807e-02 -1.736029e-02
-2.416189e-02 1.002646e-02 -1.744272e-02
6.055258e-03 2.550348e-02 -1.748551e-02
6.560156e-05 2.600062e-02 -1.735851e-02
-8.684770e-03 -2.468233e-02 -1.742938e-02
6.702546e-04 2.600690e-02 -1.738391e-02
5.885575e-03 2.564992e-02 -1.743107e-02
-1.599979e-04 5.053370e-05 3.017877e-02
-2.429105e-04 1.577414e-04 3.056195e-02
-3.053764e-03 2.581487e-02 -1.741473e-02
-2.132366e-02 -1.481512e-02 -1.739832e-02
-1.359653e-03 2.598652e-02 -1.734521e-02
-2.308934e-02 1.235126e-02 -1.749612e-02
-1.071164e-02 2.371290e-02 -1.739942e-02
-7.350534e-04 2.595985e-02 -1.743314e-02
-7.039758e-03 -2.505301e-02 -1.739693e-02
-2.221871e-02 1.380840e-02 -1.743253e-02
-2.208643e-02 -1.393233e-02 -1.751539e-02
-1.007025e-02 -2.416252e-02 -1.745057e-02
-3.257725e-04 -4.482798e-04 3.053201e-02
-1.427190e-02 2.190022e-02 -1.747335e-02
-1.645539e-02 -2.037097e-02 -1.748591e-02
8.758323e-03 2.449617e-02 -1.744179e-02
-2.538238e-02 5.575711e-03 -1.736996e-02
1.967241e-02 -5.333936e-04 2.343302e-02
1.947927e-02 4.411760e-04 2.335428e-02
-1.300133e-02 1.418744e-02 2.388979e-02
-1.300234e-02 -1.418533e-02 2.389033e-02
1.385663e-02 -2.750795e-02 -4.076587e-03
1.383534e-02 2.754332e-02 -3.997881e-03
4.589832e-05 1.844109e-05 3.044291e-02
-8.205078e-03 1.592017e-02 2.476727e-02
-8.031316e-03 1.581236e-02 2.494347e-02
-8.209918e-03 -1.592640e-02 2.476823e-02
-8.032606e-03 -1.581221e-02 2.494320e-02
-2.030208e-02 1.884888e-03 -2.410588e-02
8.961367e-03 2.983671e-02 -1.495772e-03
-2.850092e-02 -1.256714e-02 -1.853325e-03
-7.453545e-03 -1.681604e-02 2.444365e-02
-5.342184e-03 2.981511e-02 -7.552913e-03
-4.474135e-03 3.739265e-03 -3.124498e-02
5.137737e-06 -9.470430e-05 3.038618e-02
-8.993266e-04 5.435030e-03 -3.154397e-02
-1.211706e-02 -1.941959e-03 -2.958635e-02
-1.211707e-02 1.941965e-03 -2.958619e-02
-8.419201e-03 -2.125531e-02 -2.195716e-02
-1.127322e-03 2.818666e-03 -3.166856e-02
-2.896031e-03 -9.228537e-04 -3.167395e-02
-2.030936e-03 2.273590e-03 -3.163595e-02
-3.020491e-03 4.940890e-04 -3.165603e-02
-3.929980e-04 -3.045480e-03 -3.167558e-02
-2.368546e-03 1.935759e-03 -3.165626e-02
1.155864e-04 5.894452e-05 3.056724e-02
-1.389539e-03 -2.651002e-03 -3.168052e-02
-1.262669e-03 -2.789044e-03 -3.165740e-02
-1.462315e-03 2.687666e-03 -3.165031e-02
8.096092e-04 2.956026e-03 -3.164965e-02
-3.060232e-03 1.908444e-04 -3.166834e-02
-2.033331e-02 -1.840616e-03 -2.411616e-02
1.075872e-02 1.566865e-02 2.412079e-02
1.065989e-02 -1.547320e-02 2.420982e-02
1.758129e-02 -7.225400e-03 2.412270e-02
1.758075e-02 7.224984e-03 2.412385e-02
1.309188e-04 5.681396e-05 3.048153e-02
1.176664e-02 1.492248e-02 2.410974e-02
1.176656e-02 -1.492264e-02 2.411003e-02
-6.260635e-03 1.807312e-02 2.403915e-02
1.968675e-02 4.865093e-03 -2.449662e-02
2.038837e-02 -2.858833e-03 -2.401235e-02
9.163994e-03 -1.851037e-02 -2.390439e-02
3.321005e-03 2.037724e-02 -2.391865e-02
1.052043e-02 1.770017e-02 -2.398108e-02
1.592852e-02 -1.248173e-02 -2.451917e-02
1.383428e-02 -1.476922e-02 -2.451526e-02
-7.661668e-05 2.669292e-04 3.058635e-02
-6.295979e-03 -1.963014e-02 -2.396984e-02
6.595983e-03 -1.950172e-02 -2.398299e-02
2.036850e-02 2.587741e-04 -2.434962e-02
8.938541e-03 1.854927e-02 -2.398090e-02
-1.888825e-02 7.915359e-04 2.395427e-02
-8.418992e-04 -2.987517e-03 -3.163560e-02
-2.576600e-04 -3.169970e-03 -3.161861e-02
-1.769507e-03 -2.553260e-03 -3.164745e-02
-3.079828e-03 -4.325035e-04 -3.165111e-02
1.602909e-04 -3.150073e-03 -3.160307e-02
-1.933229e-04 -3.601404e-04 3.040319e-02
-3.097214e-03 -3.872650e-04 -3.162052e-02
-1.110077e-03 -2.919151e-03 -3.165174e-02
-2.769267e-03 -1.513681e-03 -3.156242e-02
-2.993294e-03 -1.026867e-03 -3.165846e-02
-2.667044e-03 1.594316e-03 -3.164998e-02
-1.249746e-03 2.891146e-03 -3.162522e-02
-2.601823e-03 1.793003e-03 -3.162150e-02
-2.266085e-03 -2.125533e-03 -3.164677e-02
8.002472e-05 3.152397e-03 -3.155486e-02
-7.112696e-04 3.027948e-03 -3.163219e-02
1.438352e-04 -1.162548e-04 3.029194e-02
-1.966923e-03 2.509106e-03 -3.159103e-02
5.033000e-04 3.063635e-03 -3.163643e-02
-6.406870e-04 3.030848e-03 -3.161482e-02
-2.981482e-03 -1.002703e-03 -3.160022e-02
2.646632e-04 3.171079e-03 -3.166849e-02
-2.836159e-03 1.327299e-03 -3.164629e-02
-5.033981e-04 3.106016e-03 -3.164124e-02
-3.038832e-03 7.973408e-04 -3.165371e-02
-2.865591e-03 -1.303987e-03 -3.162297e-02
-1.959841e-03 2.460568e-03 -3.165027e-02
4.345372e-04 9.808846e-05 3.044844e-02
-3.013775e-03 8.390350e-04 -3.167634e-02
-2.432343e-03 -1.993406e-03 -3.161917e-02
-3.181440e-03 -2.474317e-04 -3.167609e-02
-7.911228e-05 -3.152082e-03 -3.161529e-02
-2.503418e-03 -1.903369e-03 -3.164016e-02
-6.732842e-04 -3.091176e-03 -3.166275e-02
-2.867752e-03 1.719858e-02 2.503670e-02
-1.695032e-02 -2.005540e-02 -1.751435e-02
-2.569876e-02 -4.915583e-03 -1.757412e-02
-2.570091e-02 5.009795e-03 -1.756730e-02
-3.080584e-05 -9.099534e-05 3.036303e-02
1.689076e-04 2.021086e-04 3.070627e-02
-1.976864e-03 -2.609467e-02 -1.740419e-02
1.191949e-05 -2.614193e-02 -1.746719e-02
-2.177558e-02 -1.447814e-02 -1.764771e-02
-1.971151e-02 1.723669e-02 -1.757769e-02
-2.141634e-02 1.527787e-02 -1.747404e-02
-1.386533e-02 2.233098e-02 -1.753056e-02
-2.465181e-02 8.904601e-03 -1.753869e-02
-2.408195e-02 1.020473e-02 -1.743994e-02
-1.333104e-02 2.264273e-02 -1.754457e-02
-2.323800e-02 1.169258e-02 -1.745983e-02
1.870023e-04 1.571136e-04 3.045997e-02
-1.740864e-02 -1.929070e-02 -1.751137e-02
-1.716978e-02 1.987747e-02 -1.739276e-02
-1.874819e-02 1.830799e-02 -1.755756e-02
-1.911438e-02 1.782809e-02 -1.743300e-02
-2.055938e-02 -1.640680e-02 -1.747153e-02
-1.570311e-03 2.609437e-02 -1.741890e-02
-1.494270e-02 2.171891e-02 -1.734264e-02
-1.603079e-02 -2.080482e-02 -1.756506e-02
-1.937340e-02 -1.757846e-02 -1.740861e-02
-1.823720e-02 -1.897571e-02 -1.753551e-02
-5.711025e-05 1.027441e-04 3.021063e-02
2.134421e-02 2.209956e-02 -4.493838e-03
2.613677e-03 -1.734094e-02 2.517600e-02
1.382535e-02 1.367109e-02 2.382774e-02
-1.101719e-02 2.749588e-02 -1.012397e-02
-5.522604e-03 1.843253e-02 2.366474e-02
1.232111e-02 1.423300e-02 2.404959e-02
1.232122e-02 -1.423286e-02 2.404944e-02
-9.401325e-04 -3.686648e-03 -3.143806e-02
-2.348462e-03 2.894492e-03 -3.144451e-02
-7.757106e-04 -3.548684e-03 -3.147317e-02
3.966077e-04 1.394926e-04 3.043056e-02
1.340846e-05 -3.621249e-03 -3.148600e-02
-3.797015e-03 -2.647152e-04 -3.147528e-02
-1.145792e-03 -3.605426e-03 -3.146940e-02
-3.336718e-03 1.407307e-03 -3.149626e-02
-2.859518e-03 -2.202070e-03 -3.149250e-02
-2.914213e-03 -2.500631e-03 -3.141657e-02
4.122925e-06 3.801605e-03 -3.142369e-02
-2.902349e-03 2.145961e-03 -3.148486e-02
-3.332158e-03 -1.372151e-03 -3.150058e-02
-3.121690e-03 2.164636e-03 -3.145413e-02
1.933288e-04 1.362722e-04 3.022620e-02
-3.780401e-03 -5.677983e-04 -3.148291e-02
-3.785527e-03 -3.079488e-04 -3.145871e-02
-2.747784e-03 2.613685e-03 -3.144551e-02
5.290137e-04 3.703894e-03 -3.145228e-02
1.358183e-03 3.525746e-03 -3.146679e-02
-3.147310e-03 2.135895e-03 -3.142608e-02
-7.228732e-04 3.746635e-03 -3.148587e-02
-2.915971e-03 -2.441049e-03 -3.143324e-02
-8.033935e-04 3.611415e-03 -3.155712e-02
-2.545077e-03 2.824199e-03 -3.143294e-02
2.927434e-04 3.986032e-04 3.051683e-02
-1.450055e-03 3.467748e-03 -3.146294e-02
-1.659176e-03 3.425446e-03 -3.145383e-02
-3.564974e-03 -1.293797e-03 -3.147919e-02
-3.718088e-03 -8.239482e-05 -3.146874e-02
-3.657751e-03 1.060439e-03 -3.147063e-02
-1.846981e-04 -3.842230e-03 -3.141383e-02
2.131745e-02 -2.186601e-02 -6.318953e-03
3.052299e-02 5.630208e-03 -1.358517e-03
3.052307e-02 -5.630251e-03 -1.358596e-03
1.898913e-02 -3.593802e-03 2.388640e-02
-3.682023e-04 -2.628008e-04 3.059734e-02
1.898899e-02 3.593728e-03 2.388645e-02
3.196185e-04 -3.846898e-03 -3.138667e-02
-1.908295e-03 -3.326045e-03 -3.141359e-02
-2.372667e-03 -3.011679e-03 -3.140723e-02
-3.637946e-03 1.294627e-03 -3.139261e-02
7.163145e-04 3.742971e-03 -3.127812e-02
-1.125949e-03 3.589806e-03 -3.147390e-02
-9.118947e-04 3.648520e-03 -3.146128e-02
-3.661125e-03 -8.481811e-04 -3.145069e-02
-3.733935e-03 4.715706e-04 -3.151287e-02
3.183663e-04 1.394729e-05 3.042607e-02
-3.414935e-03 -1.557986e-03 -3.144605e-02
-1.993833e-03 -3.192111e-03 -3.146904e-02
-8.290012e-04 -3.665514e-03 -3.146527e-02
-3.273081e-03 -1.848069e-03 -3.136389e-02
6.207713e-03 -1.830795e-02 2.379699e-02
-1.206415e-02 -1.515029e-02 2.380676e-02
-1.206425e-02 1.515032e-02 2.380660e-02
-1.787523e-02 7.449914e-03 2.380788e-02
-1.787542e-02 -7.449881e-03 2.380841e-02
-1.103244e-02 1.590859e-02 2.381625e-02
-2.682077e-04 3.785635e-04 3.051019e-02
-1.104670e-02 -1.591202e-02 2.381208e-02
-1.820751e-02 -6.158409e-03 2.394661e-02
-1.001749e-02 1.644150e-02 2.390553e-02
-1.053787e-02 1.607409e-02 2.393283e-02
-9.948805e-03 -1.653084e-02 2.386086e-02
-1.045306e-02 -1.600612e-02 2.397414e-02
-1.827445e-02 6.366766e-03 2.374833e-02
-1.782789e-02 -6.832177e-03 2.399208e-02
-1.784078e-02 6.846218e-03 2.398505e-02
-1.147419e-02 -1.527939e-02 2.398390e-02
-1.198785e-04 -4.993207e-04 3.062697e-02
-1.147437e-02 1.528012e-02 2.398362e-02
6.706296e-03 -1.801947e-02 2.394993e-02
-1.735431e-02 8.009062e-03 2.397736e-02
-1.735436e-02 -8.009090e-03 2.397726e-02
-1.243297e-02 1.447427e-02 2.398219e-02
-1.243354e-02 -1.447468e-02 2.398147e-02
5.504126e-03 -1.840324e-02 2.388376e-02
-1.730790e-02 4.152776e-03 -2.628216e-02
-1.730785e-02 -4.152913e-03 -2.628156e-02
7.847205e-03 1.488826e-02 -2.705495e-02
1.745999e-04 2.899202e-07 3.016960e-02
1.244917e-04 2.796603e-05 3.056169e-02
4.700173e-03 -1.593253e-02 -2.723575e-02
9.129615e-03 1.415042e-02 -2.701761e-02
1.759743e-02 -7.969664e-03 2.379008e-02
1.759742e-02 7.969648e-03 2.379004e-02
-1.459078e-02 -1.558143e-02 -2.330285e-02
-1.459045e-02 1.557238e-02 -2.330874e-02
2.630718e-03 3.068292e-02 -5.264861e-03
3.080985e-02 1.309896e-03 -5.079496e-03
2.396180e-02 1.940033e-02 -5.140900e-03
2.521942e-02 -1.773101e-02 -5.155184e-03
1.865751e-04 -4.766029e-06 3.049284e-02
-1.013378e-02 -2.913337e-02 -5.121719e-03
2.636139e-02 -1.603466e-02 -5.143182e-03
-1.062060e-03 -3.083804e-02 -5.125456e-03
1.293104e-02 -2.801569e-02 -5.137376e-03
2.260366e-02 2.091893e-02 -5.266620e-03
1.054362e-02 2.899816e-02 -5.139927e-03
3.059873e-02 4.064760e-03 -5.253511e-03
8.612027e-03 2.963390e-02 -5.127976e-03
-6.668617e-03 1.799082e-02 2.379448e-02
1.153492e-02 -1.532615e-02 2.374907e-02
9.031362e-06 2.984990e-04 3.069180e-02
1.153490e-02 1.532653e-02 2.374814e-02
1.790180e-02 -6.893705e-03 2.375275e-02
1.790194e-02 6.893575e-03 2.375201e-02
1.126671e-02 -1.493523e-02 2.399535e-02
1.050399e-02 1.605453e-02 2.375182e-02
1.041114e-02 1.609511e-02 2.378294e-02
1.746859e-02 6.712149e-03 2.397238e-02
1.126721e-02 1.493605e-02 2.399580e-02
1.745784e-02 -6.743775e-03 2.400048e-02
1.697037e-02 7.874302e-03 2.399618e-02
4.529550e-05 -1.722979e-04 3.044915e-02
1.697041e-02 -7.874341e-03 2.399619e-02
1.222379e-02 -1.416236e-02 2.398647e-02
1.222386e-02 1.416235e-02 2.398650e-02
-5.436672e-03 1.839000e-02 2.362712e-02
-1.613152e-02 -1.056748e-02 2.366413e-02
-1.619774e-02 1.060354e-02 2.355822e-02
2.697630e-02 -1.357376e-02 -8.199544e-03
2.697645e-02 1.357378e-02 -8.199611e-03
1.406803e-02 -1.286483e-02 2.399753e-02