# vtk DataFile Version 2.0
Electric current density generated by TTH
ASCII
DATASET UNSTRUCTURED_GRID
POINTS 2032 double
-2.233208e-06 -1.680401e-05 -5.075823e-22
-1.493709e-05 -4.999716e-06 -1.879866e-06
-2.702452e-06 -1.658942e-05 7.581665e-07
1.232222e-06 -1.675722e-05 7.723395e-07
-2.962283e-06 -1.360334e-05 1.838028e-06
-4.406208e-07 1.450435e-05 2.039362e-06
9.159105e-06 1.283078e-05 1.873862e-06
9.159105e-06 -1.283078e-05 1.873862e-06
4.438049e-06 -1.231026e-05 -1.038154e-06
-1.450157e-05 6.443922e-06 1.820910e-06
-4.608038e-08 -1.307078e-05 1.011868e-06
-1.243171e-06 -1.690611e-05 -5.075823e-22
5.580517e-06 1.189306e-05 -1.122302e-06
-7.582435e-06 1.123696e-05 1.594693e-06
-1.130084e-05 -7.417506e-06 1.562202e-06
-1.591895e-06 -1.383371e-05 -1.839516e-06
1.662025e-05 2.153069e-06 8.725180e-07
1.662025e-05 -2.153069e-06 8.725180e-07
-1.577402e-05 5.799621e-06 7.624358e-07
-1.634855e-05 -3.912250e-06 7.529437e-07
-4.456819e-06 -1.492153e-05 1.952878e-06
-8.337763e-06 1.135621e-05 -1.915446e-06
-2.488486e-07 -1.694993e-05 -5.075823e-22
1.420284e-05 7.001002e-06 1.839091e-06
1.420284e-05 -7.001002e-06 1.839091e-06
5.598933e-06 1.343777e-05 -2.047215e-06
-1.284466e-06 -1.398543e-05 1.896650e-06
2.050863e-06 1.565394e-05 -1.862700e-06
4.009242e-06 1.536622e-05 1.814443e-06
-4.184777e-06 -1.546553e-05 -1.729112e-06
-4.471422e-06 1.266948e-05 1.486434e-06
2.518702e-07 1.579342e-05 -1.858916e-06
3.827126e-06 -1.346874e-05 -1.877423e-06
7.463314e-07 -1.693532e-05 -5.075823e-22
3.267337e-06 1.268360e-05 -1.058382e-06
-1.301496e-05 3.118872e-07 9.123985e-07
3.226009e-06 1.650106e-05 -7.443908e-07
-1.159137e-05 5.465003e-06 1.823699e-07
-8.102260e-06 1.470479e-05 -8.045512e-07
1.161416e-05 1.210554e-05 -8.353030e-07
-7.222907e-06 1.058180e-05 1.419493e-07
1.181721e-05 -9.502758e-06 -2.052717e-06
1.180560e-05 9.526272e-06 -2.051918e-06
-1.196425e-05 -4.682815e-06 -4.101703e-07
1.738939e-06 -1.686233e-05 -5.075823e-22
-4.591156e-06 1.619529e-05 -6.901020e-07
2.164993e-06 1.305042e-05 1.253056e-06
7.753455e-06 -1.141552e-05 -1.768847e-06
6.342481e-06 -1.223452e-05 -1.757207e-06
-1.303778e-05 -4.490680e-06 1.762604e-06
1.441892e-05 -1.910514e-06 2.045195e-06
1.441892e-05 1.910514e-06 2.045195e-06
-1.233671e-05 1.009435e-05 -1.780271e-06
4.896903e-06 -1.276182e-05 1.682206e-06
-1.012782e-05 -7.869982e-06 2.805744e-07
2.725551e-06 -1.673121e-05 -5.075823e-22
3.187066e-06 -1.649220e-05 7.850153e-07
-1.349569e-05 -1.851681e-06 1.647407e-06
1.445739e-05 -6.124160e-06 1.902536e-06
1.445739e-05 6.124160e-06 1.902536e-06
-1.377700e-05 2.646332e-06 -1.889777e-06
-1.310159e-05 4.287725e-06 -1.760048e-06
2.592205e-06 -1.308329e-05 1.384768e-06
-1.074650e-05 -6.980828e-06 1.793037e-07
-5.570380e-06 1.586585e-05 7.395790e-07
-1.680040e-05 6.890874e-08 7.771122e-07
3.702769e-06 -1.654242e-05 -5.075823e-22
-6.816892e-06 -1.398810e-05 -1.957151e-06
1.385486e-05 4.323151e-06 2.039836e-06
1.385486e-05 -4.323151e-06 2.039836e-06
-1.255998e-05 2.956016e-06 -6.237710e-07
1.587753e-05 5.444321e-06 -8.144482e-07
1.587753e-05 -5.444321e-06 -8.144482e-07
1.454068e-05 -8.368147e-06 -8.336402e-07
1.454068e-05 8.368147e-06 -8.336402e-07
-1.247082e-05 -4.408591e-06 -1.250875e-06
2.539990e-06 1.436931e-05 2.052347e-06
4.667222e-06 -1.629660e-05 -5.075823e-22
-5.126268e-07 1.461153e-05 -2.056129e-06
-5.995473e-06 -1.218209e-05 1.612387e-06
-1.412627e-06 1.276144e-05 -3.647540e-07
8.692674e-06 -1.439779e-05 -7.313660e-07
-1.402452e-05 -9.333895e-06 -6.516966e-07
1.095359e-05 9.873386e-06 -2.068109e-06
-8.226030e-06 -1.364125e-05 1.786567e-06
1.324113e-05 6.912901e-07 -1.292096e-06
1.324113e-05 -6.912901e-07 -1.292096e-06
-2.731532e-06 -1.658632e-05 -7.539632e-07
5.615586e-06 -1.599460e-05 -5.075823e-22
-1.509366e-05 1.478856e-06 -2.052457e-06
1.054266e-05 -1.304256e-05 8.471650e-07
1.054266e-05 1.304256e-05 8.471650e-07
-6.537429e-06 1.322050e-05 -2.068227e-06
-1.015243e-05 -8.175842e-06 -9.453036e-07
-6.160477e-06 1.560736e-05 -8.279409e-07
-1.347810e-05 -6.630297e-07 -1.541575e-06
1.319814e-05 8.434840e-06 -1.918399e-06
1.319814e-05 -8.434840e-06 -1.918399e-06
-9.693888e-06 8.646350e-06 -8.505966e-07
6.544592e-06 -1.563747e-05 -5.075823e-22
-1.167228e-06 1.601075e-05 1.707859e-06
1.039273e-05 -1.322656e-05 -7.240903e-07
7.757065e-06 1.382345e-05 1.830388e-06
7.757065e-06 -1.382345e-05 1.830388e-06
-1.379035e-05 -8.510393e-06 1.592982e-06
1.265740e-05 -2.201959e-06 4.075408e-07
1.265740e-05 2.201959e-06 4.075408e-07
-6.315308e-06 -1.160917e-05 -1.235699e-06
-3.586270e-06 1.243879e-05 -7.446905e-07
1.387744e-05 -3.383463e-06 1.984973e-06
7.451038e-06 -1.522643e-05 -5.075823e-22
1.387744e-05 3.383463e-06 1.984973e-06
-1.411155e-07 -1.393871e-05 -1.846923e-06
-1.492580e-05 7.714798e-06 -7.741896e-07
-1.152285e-05 -1.093819e-05 1.810507e-06
-1.592690e-05 5.239497e-06 -8.562618e-07
8.236072e-06 1.054088e-05 1.427362e-06
1.157980e-05 6.005157e-06 -9.628585e-07
1.157980e-05 -6.005157e-06 -9.628585e-07
9.588622e-06 -1.380741e-05 7.525134e-07
9.588622e-06 1.380741e-05 7.525134e-07
8.331798e-06 -1.476290e-05 -5.075823e-22
1.525280e-05 7.052479e-06 7.676758e-07
1.525280e-05 -7.052479e-06 7.676758e-07
5.752462e-06 1.499688e-05 -1.701597e-06
1.381477e-05 -2.165230e-06 -1.868665e-06
1.381477e-05 2.165230e-06 -1.868665e-06
-9.790070e-06 -1.135863e-05 -2.069109e-06
8.520598e-07 -1.550629e-05 1.967692e-06
2.225874e-06 -1.666931e-05 -7.344159e-07
1.093111e-05 -9.867327e-06 -2.066672e-06
9.279436e-07 1.503008e-05 -2.064590e-06
9.183837e-06 -1.424848e-05 -5.075823e-22
3.556257e-06 1.374584e-05 1.957280e-06
-1.272871e-05 1.854113e-06 4.785310e-07
8.769392e-06 -1.321379e-05 -1.826237e-06
1.676606e-05 1.480620e-06 -6.962170e-07
1.676606e-05 -1.480620e-06 -6.962170e-07
5.621681e-06 1.488216e-05 1.798758e-06
3.950330e-06 -1.631993e-05 -7.997496e-07
-9.481477e-06 1.383601e-05 -8.419933e-07
-1.075925e-05 1.292689e-05 7.308107e-07
4.097090e-06 1.459792e-05 -2.053006e-06
1.000422e-05 -1.368495e-05 -5.075823e-22
-1.140478e-05 9.752956e-06 2.068473e-06
-1.247701e-05 -3.071158e-06 -4.170444e-07
1.544515e-05 -3.792151e-06 1.801426e-06
1.544515e-05 3.792151e-06 1.801426e-06
-5.425769e-06 1.377342e-05 2.070974e-06
4.175316e-06 -1.214057e-05 3.596954e-07
-5.188008e-06 -1.328649e-05 1.978713e-06
2.182821e-06 -1.410697e-05 -1.982221e-06
1.156302e-05 8.352622e-06 -1.978969e-06
1.156302e-05 -8.352622e-06 -1.978969e-06
1.079011e-05 -1.307424e-05 -5.075823e-22
5.414638e-07 1.354755e-05 1.596738e-06
6.451983e-06 -1.334746e-05 2.071650e-06
-1.160285e-05 -1.217555e-05 -7.305012e-07
6.196240e-07 -1.430217e-05 1.994193e-06
2.795023e-06 -1.574673e-05 -1.747818e-06
-1.248346e-05 2.959192e-06 3.036753e-07
-1.151728e-05 -1.098089e-05 -1.796128e-06
-1.180076e-05 7.979409e-06 -1.972972e-06
9.683905e-06 1.100791e-05 2.060848e-06
9.670955e-06 -1.104499e-05 2.062802e-06
1.153881e-05 -1.241846e-05 -5.075823e-22
-9.963446e-06 -1.034910e-05 2.007692e-06
3.650362e-06 1.637958e-05 8.228127e-07
-1.335949e-05 2.306499e-06 1.595719e-06
-1.587736e-05 1.004237e-06 -1.798451e-06
8.019992e-06 -1.272894e-05 2.065750e-06
8.019992e-06 1.272894e-05 2.065750e-06
-7.558839e-06 -1.245714e-05 2.049298e-06
-9.483825e-06 -8.673390e-06 4.287525e-07
-3.893495e-07 1.592206e-05 1.788178e-06
7.678268e-06 1.289634e-05 -2.068303e-06
1.224773e-05 -1.171987e-05 -5.075823e-22
5.255615e-07 1.313467e-05 -1.134541e-06
1.677804e-05 -8.122109e-07 7.841143e-07
1.677804e-05 8.122109e-07 7.841143e-07
2.388790e-06 -1.454171e-05 2.067437e-06
-3.566067e-06 1.561680e-05 -1.731038e-06
1.194569e-05 -1.178091e-05 -8.314730e-07
-1.520677e-05 5.134014e-06 1.710051e-06
-2.856677e-06 1.267040e-05 8.479230e-07
-5.282402e-06 -1.253383e-05 1.631460e-06
-1.569841e-05 -2.841783e-06 1.772250e-06
1.291443e-05 -1.098088e-05 -5.075823e-22
-1.013160e-06 1.306433e-05 1.068204e-06
-1.543821e-05 6.729199e-06 -6.683352e-07
-1.458250e-05 4.324937e-06 -2.045767e-06
5.257307e-06 -1.446783e-05 -2.007602e-06
-1.204283e-05 -9.507754e-06 2.019694e-06
-1.132752e-05 -1.005553e-05 2.055034e-06
1.045834e-05 7.527483e-06 5.653758e-07
1.045834e-05 -7.527483e-06 5.653758e-07
-1.643081e-05 3.397406e-06 -8.297996e-07
6.680309e-06 1.099991e-05 -5.050382e-07
1.353661e-05 -1.020403e-05 -5.075823e-22
-1.579894e-05 1.572851e-08 -1.857176e-06
-1.240075e-05 4.320970e-06 1.114136e-06
-5.771650e-06 -1.402691e-05 2.052177e-06
1.528093e-05 5.262105e-06 -1.628099e-06
1.528093e-05 -5.262105e-06 -1.628099e-06
2.852410e-06 1.541792e-05 -1.911654e-06
4.322680e-06 -1.624245e-05 7.588586e-07
-1.437895e-05 -5.170562e-06 2.033205e-06
-7.210120e-06 -1.152873e-05 -1.628477e-06
-2.353164e-06 -1.259960e-05 -2.075797e-07
1.411213e-05 -9.392012e-06 -5.075823e-22
-3.539675e-06 -1.646041e-05 -6.809121e-07
-1.330086e-05 -6.344793e-06 -2.067441e-06
2.644149e-06 1.429891e-05 -2.044602e-06
-1.777043e-06 -1.322802e-05 -1.394983e-06
-1.671158e-05 -2.021872e-06 -6.902087e-07
1.338820e-05 -1.953791e-06 1.572845e-06
1.338839e-05 1.954959e-06 1.573155e-06
1.605044e-05 2.010317e-06 1.616755e-06
1.605616e-05 -2.021034e-06 1.611110e-06
-7.388448e-06 1.393360e-05 1.870604e-06
1.463900e-05 -8.547617e-06 -5.075823e-22
-3.944300e-06 -1.256033e-05 1.164395e-06
-7.882850e-06 1.041524e-05 -9.959111e-07
-1.230011e-05 4.551235e-06 -1.087208e-06
5.346286e-06 1.198243e-05 1.096738e-06
-1.209071e-05 -7.106114e-06 1.887739e-06
-1.361791e-05 9.830060e-06 -7.902569e-07
-1.008610e-05 1.341715e-05 -8.135613e-07
1.238790e-05 -1.137459e-05 7.327668e-07
1.238790e-05 1.137459e-05 7.327668e-07
5.561235e-06 -1.156683e-05 -3.349782e-07
1.511541e-05 -7.673756e-06 -5.075823e-22
-1.408319e-05 9.189781e-06 7.369276e-07
1.496501e-05 9.303424e-07 -2.069196e-06
1.496209e-05 -9.235770e-07 -2.069378e-06
-7.198044e-06 -1.425755e-05 1.761231e-06
-2.348128e-06 1.662672e-05 7.985976e-07
1.207246e-06 -1.275725e-05 1.726916e-07
-6.132382e-06 -1.139993e-05 7.426379e-07
-1.436920e-05 3.037430e-07 2.009389e-06
-1.306118e-05 -5.902343e-07 1.018362e-06
-1.179145e-05 6.854543e-06 1.660171e-06
1.553971e-05 -6.773442e-06 -5.075823e-22
[...]
POINT_DATA 2032
VECTORS 10.000GHz_fone_imag double
-3.636742e+10 4.365899e+09 1.849209e+08
-1.235143e+10 4.059896e+10 4.492295e+07
-2.906161e+10 6.582110e+09 2.969398e+09
-3.425490e+10 -2.342705e+09 -7.060877e+08
-6.549640e+10 1.646186e+10 -4.180948e+09
6.354411e+10 3.135254e+09 8.557569e+07
3.617409e+10 -2.879419e+10 2.010808e+09
-4.073611e+10 -2.597264e+10 1.234929e+09
-7.451106e+10 -2.481516e+10 -7.891628e+08
1.205629e+10 2.640508e+10 1.909960e+09
-6.911880e+10 1.375809e+09 4.460950e+08
-3.313826e+10 2.891313e+09 -1.035398e+09
7.460627e+10 -3.498977e+10 -9.462106e+07
4.937843e+10 3.126968e+10 -2.539632e+09
-3.085079e+10 5.037562e+10 -1.912966e+08
-6.253073e+10 1.169876e+10 -1.849768e+09
4.629875e+09 -3.295437e+10 -1.925573e+09
-4.473228e+09 -3.826385e+10 -1.093096e+09
1.298971e+10 3.353741e+10 -8.054904e+08
-8.694697e+09 3.945067e+10 2.525374e+09
-4.506454e+10 1.612885e+10 2.415268e+09
6.268660e+10 4.306414e+10 -6.220250e+08
-4.125881e+10 -1.776021e+08 -5.002131e+08
1.938008e+10 -3.708927e+10 2.400999e+09
-1.693108e+10 -2.701020e+10 2.175639e+09
4.035372e+10 -1.629808e+10 1.319475e+09
-5.664160e+10 3.661635e+09 2.949588e+09
4.767350e+10 -5.006827e+09 1.521684e+09
4.885388e+10 -1.213130e+10 -8.298293e+08
-3.292135e+10 1.017647e+10 -6.188178e+08
5.863125e+10 1.675321e+10 -3.517545e+07
4.131251e+10 3.861208e+08 3.668467e+08
-5.180503e+10 -1.383051e+10 2.402841e+09
-3.512148e+10 -2.920971e+09 -1.624990e+09
7.425041e+10 -1.912233e+10 -1.917148e+09
4.200592e+08 8.762195e+10 2.168237e+09
3.525924e+10 -5.326588e+09 3.083764e+09
3.436334e+10 7.369082e+10 8.699231e+09
2.283030e+10 1.241698e+10 -1.610288e+09
2.067128e+10 -1.940134e+10 -1.334371e+09
7.293762e+10 4.925913e+10 7.178188e+09
-2.979725e+10 -3.743857e+10 -1.201499e+08
2.978738e+10 -4.100540e+10 1.564508e+09
-2.344452e+10 6.813341e+10 -3.366479e+09
-2.993458e+10 -2.140870e+09 7.907651e+08
3.168410e+10 8.722100e+09 -4.049827e+08
7.744775e+10 -1.396673e+10 -1.359630e+09
-4.499265e+10 -3.087681e+10 -1.224195e+09
-6.150940e+10 -3.133399e+10 -1.432240e+09
-2.040577e+10 6.531890e+10 -1.937103e+09
-1.014941e+10 -5.907838e+10 -1.833713e+09
4.121942e+09 -4.717568e+10 2.712546e+09
2.300043e+10 3.240118e+10 2.318043e+09
-6.693111e+10 -2.831464e+10 2.302425e+09
-5.962211e+10 7.702499e+10 -2.285902e+09
-3.754917e+10 -6.592871e+09 1.210313e+09
-3.388839e+10 -8.159127e+09 -5.152557e+07
-9.028282e+09 8.145852e+10 -1.330454e+09
-1.278759e+10 -3.495295e+10 -1.822755e+09
2.258275e+10 -4.695870e+10 -1.331823e+09
4.171440e+09 5.979876e+10 -1.102042e+09
2.512341e+10 6.783304e+10 1.189939e+09
-6.441981e+10 -1.505631e+10 2.309969e+09
-4.013659e+10 5.626461e+10 1.258961e+08
2.707585e+10 1.036228e+10 8.195488e+08
3.172313e+08 3.750092e+10 5.399763e+08
-3.159621e+10 -8.197598e+09 -1.036670e+09
-4.400266e+10 1.748178e+10 3.713086e+08
1.422448e+10 -5.346600e+10 1.811836e+09
-1.185882e+10 -4.533957e+10 -2.704038e+08
1.132918e+10 7.563871e+10 -3.184978e+09
1.019252e+10 -3.366246e+10 2.623055e+08
-9.871516e+09 -2.970032e+10 1.000711e+09
-1.316770e+10 -2.610063e+10 -1.285505e+09
1.799790e+10 -3.270948e+10 -1.318774e+08
-1.810915e+10 6.911297e+10 3.031996e+09
4.753666e+10 -9.236712e+09 7.392509e+08
-3.018500e+10 -8.418817e+09 6.310272e+08
5.148684e+10 4.205541e+09 -1.257146e+09
-5.930906e+10 2.659690e+10 1.750807e+09
6.288202e+10 1.115585e+10 2.865992e+09
-2.805154e+10 -1.395290e+10 -3.846169e+09
-2.321414e+10 3.553024e+10 -1.282887e+09
3.596371e+10 -3.414971e+10 -2.969826e+08
-2.539819e+10 1.673211e+10 -4.178220e+08
2.298917e+09 -6.193315e+10 -1.417840e+09
-4.627853e+09 -7.455242e+10 1.868526e+09
-3.313848e+10 6.565200e+09 -3.412968e+09
-3.352366e+10 -1.154713e+10 -1.730596e+08
5.021826e+09 3.781603e+10 -1.336677e+09
-2.781604e+10 -2.272122e+10 1.197116e+09
3.158726e+10 -2.493272e+10 -1.112391e+09
3.857709e+10 1.702706e+10 1.284298e+09
-4.204680e+10 5.306053e+10 2.120605e+09
3.336188e+10 1.338373e+10 -3.304477e+08
4.356503e+09 7.045264e+10 3.238037e+09
2.019911e+10 -4.059842e+10 -3.021870e+09
-2.176161e+10 -3.341673e+10 4.768960e+08
5.778833e+10 6.030959e+10 7.928736e+09
-3.416198e+10 -1.395175e+10 -3.069203e+08
3.438914e+10 5.295914e+09 -3.097041e+08
-2.513802e+10 -1.750064e+10 -1.513673e+08
3.947113e+10 -2.427264e+10 -3.725500e+08
-3.778190e+10 -2.138861e+10 9.013465e+08
-1.835276e+10 2.684647e+10 -2.802229e+08
-1.559509e+10 -9.396200e+10 -3.169954e+09
1.437802e+10 -7.225196e+10 1.538994e+09
-5.970348e+10 2.880563e+10 -5.531538e+08
6.261248e+10 2.207523e+10 -4.255375e+09
-1.318311e+10 -5.596724e+10 -8.467270e+08
-3.425262e+10 -1.673029e+10 -6.918688e+08
1.751315e+10 -5.563688e+10 1.496271e+09
-4.783713e+10 -9.172662e+08 1.367705e+09
1.817018e+10 3.365197e+10 -1.588734e+09
-2.768164e+10 2.871747e+10 -4.508720e+08
1.102526e+10 3.497084e+10 1.549280e+09
5.734835e+10 -4.330513e+10 2.025986e+09
3.504838e+10 -7.077988e+10 9.125740e+08
-3.556232e+10 -7.207855e+10 -1.299054e+09
-2.945826e+10 -2.186856e+10 -2.972549e+09
2.588456e+10 -1.677463e+10 -1.215859e+09
-2.821706e+10 -1.597049e+10 1.373144e+09
1.578990e+10 -3.526739e+10 2.657864e+08
-1.424722e+10 -3.148109e+10 1.306220e+08
3.883163e+10 -1.368594e+10 -2.523142e+09
-1.189404e+10 -5.900057e+10 2.695462e+09
1.196279e+10 -5.578407e+10 4.331231e+08
-3.611007e+10 3.024425e+10 1.166303e+09
-4.204282e+10 -1.092958e+09 1.028913e+09
-2.793515e+10 -3.119868e+09 -1.456583e+08
-4.511072e+10 -4.927622e+10 3.654190e+08
4.843881e+10 -2.036116e+09 2.214333e+09
-3.477320e+10 -2.160204e+10 -2.282959e+09
6.625428e+10 -1.640616e+10 -2.099850e+09
1.300248e+10 8.195825e+10 6.074484e+08
-3.622786e+10 -2.265999e+10 -9.377328e+08
2.551066e+09 -3.385247e+10 -2.005513e+09
-3.648456e+09 -3.939609e+10 -8.716364e+08
3.792353e+10 -1.444685e+10 -1.042973e+08
-2.732973e+10 -5.721618e+09 1.186101e+08
2.570555e+10 1.683664e+10 7.612792e+08
2.082897e+10 1.751308e+10 1.285797e+09
4.928750e+10 -1.152585e+10 8.413328e+08
-2.302896e+10 -1.743421e+10 -4.528703e+08
2.566743e+10 2.899647e+10 1.217478e+09
-2.211288e+10 8.202312e+10 1.941918e+09
-1.224457e+10 -4.484785e+10 3.313400e+08
7.251677e+09 -4.295793e+10 3.680524e+09
4.334073e+10 2.014920e+10 4.782227e+08
-6.725884e+10 -2.044676e+10 -1.140121e+09
-5.034497e+10 2.307221e+10 -2.099490e+09
-6.920980e+10 -7.357622e+09 -6.219972e+08
2.880493e+10 -4.972979e+10 2.162219e+08
-3.421763e+10 -4.890620e+10 -1.336549e+09
-2.490512e+10 -1.993666e+10 2.216144e+09
5.996759e+10 -2.997322e+09 -8.684789e+08
-4.132092e+10 -1.991825e+10 -5.377711e+08
-1.916894e+10 1.793638e+10 9.652583e+08
-5.425407e+10 -4.986017e+09 2.532820e+09
-4.571882e+10 -8.939894e+09 -1.950270e+08
1.153661e+10 6.529051e+10 -2.524432e+09
-3.138960e+10 3.135791e+10 4.300117e+08
3.176076e+10 5.246285e+10 -1.191011e+09
3.536648e+10 -3.295125e+10 7.757921e+08
-4.675516e+10 -4.066785e+10 -3.954830e+08
-2.306679e+10 -2.176002e+10 -4.953440e+08
-4.149900e+10 4.360352e+10 -5.644534e+08
2.742928e+10 -5.873319e+09 -1.513588e+08
7.078644e+09 6.491493e+10 4.375741e+09
1.504203e+09 4.144561e+10 2.023193e+09
-3.762954e+10 -2.209224e+10 -8.266546e+07
3.387956e+10 -2.193070e+10 -2.703854e+08
-5.500777e+10 3.006334e+10 -7.778972e+08
-4.266843e+10 5.033483e+10 -2.600094e+09
3.502753e+10 1.603774e+09 -1.508724e+09
3.546451e+10 -2.042397e+10 1.478433e+09
-2.289435e+10 -2.498242e+10 -1.423991e+08
5.987269e+10 -2.941791e+09 1.457247e+09
-6.789369e+08 -3.006137e+10 7.918626e+08
1.159666e+09 -3.221908e+10 3.298195e+08
-4.957692e+10 -1.161833e+10 3.579401e+08
3.742911e+10 7.460417e+09 -1.551066e+09
-1.966086e+10 -2.160100e+10 -9.017522e+08
1.345719e+10 4.146213e+10 -3.066538e+08
8.259979e+10 1.702301e+10 -1.806000e+09
-5.684184e+10 2.627669e+10 -1.125845e+09
-7.908432e+09 3.579016e+10 -8.639369e+08
-1.847223e+10 -2.178563e+10 1.271826e+09
7.733597e+10 6.513297e+09 -9.486872e+08
9.796964e+09 2.467499e+10 -1.032282e+09
1.268780e+10 4.131879e+10 3.189391e+08
-5.285753e+10 -1.743244e+10 1.530344e+08
-3.520047e+10 4.224970e+10 -4.532989e+08
-3.704950e+10 3.841134e+10 1.037228e+09
4.783638e+10 -6.297128e+10 5.613189e+09
-4.371996e+10 -5.794530e+10 -5.901694e+09
6.947366e+09 2.775918e+10 1.759628e+09
7.270513e+10 -4.146523e+10 -7.128769e+09
-2.031197e+10 -2.722146e+10 7.441896e+08
1.889573e+09 4.492152e+10 -2.939594e+08
2.045177e+10 6.635680e+10 5.859364e+09
-3.882765e+10 1.753963e+10 -1.231179e+09
1.090301e+10 -3.374757e+10 2.368243e+09
-1.450291e+10 -3.668928e+10 -3.069554e+09
4.260751e+10 -1.110475e+10 -2.154015e+09
-2.795516e+10 -7.734214e+09 -1.935041e+08
-1.508623e+10 3.990730e+10 6.989299e+08
-5.857578e+10 3.840017e+10 1.298338e+09
-8.347886e+10 1.346089e+10 -5.714335e+09
-1.628359e+10 -2.519308e+10 -2.032107e+08
-3.119878e+10 8.531318e+09 2.473992e+09
-1.935037e+10 4.175923e+10 -2.591504e+09
6.288651e+10 -8.774879e+09 -1.976279e+09
-5.634926e+10 6.579862e+09 -1.451897e+09
-3.558366e+09 3.101043e+10 -3.756481e+08
-6.098498e+09 -6.526363e+10 3.513900e+09
1.487410e+10 -6.687836e+10 1.197713e+09
7.643278e+09 -3.485736e+10 -7.505166e+08
-5.378301e+09 -4.411980e+10 -5.299821e+08
3.205692e+10 1.848530e+10 -7.263499e+08
-1.633718e+10 -2.744742e+10 -4.326381e+09
-8.054770e+10 2.710362e+10 7.100538e+08
6.746147e+10 5.161006e+10 -2.585970e+09
2.306498e+10 5.951185e+10 8.731390e+08
6.577873e+10 -3.233886e+10 1.441201e+09
-2.540058e+10 4.605150e+10 -1.549241e+09
1.972890e+10 2.682618e+10 2.235532e+09
2.352902e+10 1.884199e+10 -6.935515e+08
-2.406418e+10 -2.700777e+10 6.653719e+08
2.712112e+10 -2.847131e+10 -2.464773e+09
-7.841223e+10 -4.200431e+10 -7.080464e+09
-1.276747e+10 -2.492652e+10 -9.268075e+07
1.514604e+10 2.208344e+10 -3.006936e+08
3.662821e+09 -4.071592e+10 -2.907126e+08
-8.117129e+09 -5.122612e+10 -1.467744e+09
-3.034786e+10 1.551390e+10 -1.228973e+09
3.348822e+10 5.820380e+09 -1.130695e+09
-9.430469e+10 -8.140277e+09 3.541801e+09
-6.451688e+10 3.242210e+10 -6.437375e+08
2.716398e+09 4.658600e+10 -9.504107e+08
-1.187182e+08 7.911796e+10 -8.517028e+07
2.908773e+10 6.039405e+10 2.619545e+09
-1.317969e+10 -2.839518e+10 1.234795e+09
-5.136156e+10 -3.163596e+10 2.897911e+08
3.862991e+10 3.641422e+10 -1.602137e+07
-1.419317e+10 -2.889007e+10 1.676817e+08
1.453320e+10 -3.151470e+10 -3.176272e+09
-6.879461e+10 -2.856853e+09 8.368019e+08
1.667152e+10 -3.677670e+10 -4.737017e+07
-1.975191e+10 -4.601453e+10 -4.051441e+08
6.823714e+10 2.488587e+10 1.817026e+08
-6.079787e+10 2.434334e+10 -2.568377e+09
-2.817830e+10 5.296647e+10 5.487783e+09
-1.182182e+10 -3.306213e+10 -6.277234e+08
-4.281139e+10 -2.182803e+09 -5.816410e+08
-8.523559e+09 -7.444866e+10 -4.721748e+09
1.806778e+10 -7.205327e+10 -2.697277e+09
3.506604e+10 5.325934e+10 4.250341e+08
-1.904923e+10 2.652427e+10 5.008363e+09
-4.306519e+10 1.762168e+10 -2.396416e+08
4.239011e+10 1.268527e+10 8.177621e+08
-1.014175e+10 9.392902e+10 6.129787e+09
2.218832e+10 2.324504e+10 -3.182794e+09
4.363993e+10 4.222098e+09 2.055191e+09
-8.264225e+09 -2.684782e+10 -3.195255e+08
3.014895e+10 2.266290e+10 2.552258e+09
4.008102e+10 -1.517264e+09 -2.701078e+09
-2.637712e+10 -5.993924e+10 2.044630e+09
2.523618e+10 -5.938283e+10 -2.605283e+09
-6.478727e+09 -4.662711e+10 2.473769e+09
1.291762e+10 -5.261134e+10 -2.116410e+09
7.691941e+10 -4.007927e+09 5.462552e+09
-5.361988e+10 2.944486e+10 1.741223e+09
2.758661e+10 -2.273822e+10 -5.889040e+08
-3.329274e+10 -2.486271e+10 2.639900e+09
-9.020067e+09 -3.758258e+10 2.189182e+09
5.477741e+10 -2.724841e+10 1.197818e+09
5.663103e+10 9.263831e+09 2.745394e+09
-3.215310e+10 -2.785761e+10 1.742292e+09
1.798497e+09 7.474504e+10 3.080757e+09
-6.481824e+10 5.437221e+10 -1.475888e+09
-2.783973e+10 1.567885e+10 1.046014e+09
6.006843e+10 3.368449e+09 1.575468e+09
-2.600531e+10 2.795443e+10 -1.854279e+09
-5.257306e+09 4.004984e+10 5.134354e+08
4.200495e+10 1.153407e+10 -2.846969e+09
-4.290343e+09 -2.924514e+10 -3.626171e+08
-4.314121e+10 4.389126e+10 4.517526e+09
3.926499e+10 -8.161691e+09 1.896455e+09
5.325670e+10 6.918778e+09 -4.323265e+08
4.859730e+10 6.535769e+10 -4.742000e+08
3.306351e+10 4.261437e+10 3.734555e+08
3.585438e+10 1.575168e+10 9.360230e+08
3.062291e+10 2.420023e+10 -3.290258e+09
6.833877e+10 2.575512e+10 -6.682710e+09
2.787706e+10 -3.133567e+10 -7.428498e+08
-2.342514e+10 -2.712865e+10 -1.147269e+09
-3.880194e+09 -2.767831e+10 5.823630e+08
-3.040267e+10 2.331373e+10 3.186703e+07
-3.338801e+10 -3.185994e+09 6.702475e+07
-6.009217e+09 4.827382e+10 1.401318e+08
1.487812e+10 -3.562056e+10 -3.969163e+09
-1.123081e+10 -2.851523e+10 -7.732803e+08
-2.937621e+10 -1.244084e+10 -2.457023e+09
-6.218636e+10 -4.381816e+10 1.189691e+09
-3.871588e+10 6.798261e+10 -6.207969e+09
-5.986511e+10 1.664884e+10 7.492545e+08
3.343209e+10 2.351053e+10 1.081131e+08
-2.117028e+09 -3.625462e+10 2.626640e+08
-9.503591e+09 4.231209e+10 -2.544097e+09
5.338577e+10 6.647046e+09 -8.781896e+07
-1.705087e+09 2.667957e+10 8.740603e+08
3.039403e+10 7.764821e+10 -3.288408e+09
-4.491606e+10 1.933601e+09 -8.941045e+08
8.138725e+09 3.358871e+10 -4.063241e+08
1.639271e+10 4.114115e+10 1.247672e+09
3.653797e+10 4.532266e+10 -1.155548e+08
2.845669e+10 -1.164291e+10 -1.142977e+09
-3.410122e+10 -1.279838e+10 -1.478100e+09
-1.689693e+09 -3.219038e+10 1.330981e+09
3.011943e+10 5.200797e+10 -4.228256e+09
-4.071250e+09 3.882453e+10 -2.984721e+09
6.006603e+10 1.585817e+10 2.071375e+09
3.436058e+10 -2.526987e+09 -1.815436e+07
-2.747626e+10 3.500741e+10 -2.171784e+08
2.150116e+10 2.603424e+10 3.304972e+09
2.382000e+10 -1.048112e+10 -2.345853e+08
2.341405e+10 2.526950e+10 -3.162791e+09
3.495324e+10 4.181701e+10 -9.920108e+08
-7.071788e+09 5.989419e+10 8.786293e+08
-1.765105e+09 -4.414649e+10 -6.178448e+08
4.987945e+10 -1.636955e+10 7.883243e+08
2.578159e+10 6.366342e+10 1.675023e+08
7.075797e+10 1.793018e+10 -8.361496e+08
2.381575e+10 4.646584e+10 -5.530755e+08
-7.962765e+09 -4.693025e+10 -3.556633e+08
1.471927e+10 -6.371644e+10 -8.971214e+08
-7.852914e+10 -3.094974e+10 -5.477942e+08
-3.767070e+10 4.464655e+10 7.778768e+08
-4.100969e+10 3.495761e+10 6.279046e+08
1.207951e+09 2.895471e+10 -1.287372e+08
2.156629e+08 -3.737449e+10 -4.566581e+07
-3.396847e+10 -1.751063e+10 1.422508e+09
3.155844e+10 -1.730785e+10 1.618210e+09
3.881494e+10 3.754992e+10 -4.733919e+08
2.769772e+10 -5.133937e+10 -2.535848e+07
-2.679262e+10 -4.749353e+10 -1.574890e+09
3.097703e+10 -2.090593e+10 1.753655e+09
-2.485155e+10 6.809901e+10 -6.083301e+08
-4.866945e+10 6.252800e+10 -2.621605e+09
2.013961e+10 -7.083214e+10 3.382032e+09
-1.962700e+10 -7.262690e+10 -6.031982e+09
9.728482e+08 -5.548085e+10 -6.138550e+08
-2.213713e+10 3.064784e+10 -1.562395e+09
8.176726e+10 -1.820430e+10 2.956154e+09
-5.765782e+10 -1.079154e+10 -1.981293e+09
-4.822720e+10 2.621347e+09 -7.870617e+08
5.512034e+09 -7.486074e+10 -3.541456e+09
-1.775678e+10 -6.992866e+10 -1.329441e+09
-1.791501e+10 5.604489e+10 -5.274861e+08
-8.151812e+10 -5.017487e+08 -1.765699e+09
1.159298e+10 -3.559821e+10 -3.913405e+07
-1.061269e+10 -3.273171e+10 5.303861e+09
-2.554051e+09 -6.379025e+10 -6.462146e+09
4.076258e+10 1.638725e+10 -1.378903e+08
3.231724e+10 3.523560e+10 2.100068e+09
-2.843155e+10 4.170102e+10 1.169869e+09
7.359401e+10 -1.813140e+10 -4.870356e+09
-7.212808e+10 1.149476e+10 -4.614116e+09
-7.081583e+10 -2.619927e+09 -3.355591e+09
-3.070284e+10 -8.940847e+09 -3.598536e+09
5.343230e+09 4.662259e+10 3.501482e+08
-5.438488e+10 5.816216e+10 1.885985e+09
-3.437307e+10 -7.331893e+10 -2.280184e+08
3.801195e+09 -7.140929e+10 6.030719e+09
3.648670e+10 -7.158057e+10 2.607870e+09
-3.280604e+10 -2.512794e+10 -1.837378e+09
-4.177141e+10 1.691587e+10 2.653146e+09
-6.172655e+10 -9.191823e+09 -1.000556e+09
-3.061289e+10 1.487345e+10 6.344220e+08
1.738191e+10 3.083203e+10 -4.176549e+08
-1.296624e+10 -9.270008e+10 -4.051139e+09
1.038728e+10 -8.062390e+10 -2.645634e+09
1.743332e+10 3.027648e+10 1.120124e+08
-6.852253e+09 -3.440087e+10 -9.097674e+08
2.341096e+09 -6.810279e+10 3.047560e+08
7.286057e+09 -3.171109e+10 3.827281e+09
-2.104075e+10 6.009553e+10 -2.158991e+09
3.318216e+10 -1.688327e+10 1.766496e+09
-2.855248e+10 -1.379121e+10 1.856999e+08
7.455622e+10 -2.604146e+10 -1.685152e+09
3.483878e+10 -4.722035e+10 -2.188325e+09
-3.846059e+10 -4.451183e+10 4.717576e+09
-3.509453e+10 -3.843470e+10 1.665233e+09
3.345227e+10 -4.820328e+10 1.592784e+09
3.017790e+10 3.929363e+09 1.083567e+09
2.317194e+08 -6.835051e+10 -1.515311e+09
2.853437e+10 -3.557770e+09 -3.933033e+09
-5.771165e+10 3.861982e+10 2.723422e+09
-1.953869e+10 3.679605e+10 6.929146e+08
-2.601571e+10 2.735879e+10 -8.135418e+08
-3.034151e+10 -2.302773e+10 -2.364973e+09
3.341700e+10 -2.262809e+10 6.029765e+08
-2.993527e+10 -6.482560e+09 1.587979e+09
7.043173e+10 2.136890e+10 7.559885e+09
-6.630603e+09 7.602763e+10 -7.114119e+09
3.649755e+10 -5.043138e+09 6.137471e+08
-5.890119e+09 -6.834497e+10 3.721592e+09
-1.691078e+10 -2.835304e+10 2.795179e+06
1.976997e+10 -2.664165e+10 1.094387e+09
5.339072e+10 5.732326e+08 5.074762e+08
1.042694e+10 9.481445e+10 4.858965e+08
-4.740177e+09 3.208547e+10 -1.132878e+09
-4.530153e+10 -6.140859e+09 4.578146e+08
4.359621e+10 4.563236e+10 5.161460e+09
1.828789e+10 2.454522e+10 -6.214520e+07
-2.381252e+10 -2.353016e+10 1.633257e+09
3.300482e+10 1.784962e+10 2.069559e+09
2.141007e+09 -4.732752e+10 3.472873e+08
2.980803e+10 -2.676511e+10 -1.348168e+09
3.202986e+10 -1.558459e+10 -1.215472e+09
7.715108e+10 -4.308520e+10 -9.694151e+08
-1.838063e+09 2.906157e+10 -1.990565e+09
-6.326140e+10 -4.244239e+09 2.761435e+09
2.930943e+10 7.506189e+09 1.450783e+09
4.857750e+10 -3.676563e+10 5.926321e+06
-1.886319e+10 -2.723382e+10 3.986223e+09
1.558193e+10 -2.348975e+10 -1.577564e+09
5.966591e+09 3.225431e+10 1.541463e+09
3.823942e+09 -4.355314e+10 3.892715e+08
3.804924e+10 -1.198046e+09 -4.475809e+08
4.122088e+10 1.480667e+09 6.228264e+08
-2.359376e+10 4.925325e+10 8.864322e+08
1.450252e+09 -3.133159e+10 1.685879e+08
-1.801467e+09 -3.869477e+10 -6.740988e+08
-5.958299e+10 2.961520e+10 1.378563e+09
3.334680e+10 1.599533e+10 -5.104687e+07
-3.683406e+10 3.464625e+10 -4.359189e+09
-3.129890e+10 -1.201775e+10 -1.509479e+09
1.468749e+10 -2.906458e+10 -8.536123e+08
-2.612162e+09 -4.068080e+10 -6.340847e+08
-1.519360e+10 -3.059352e+10 1.166249e+09
2.326434e+10 -2.822171e+10 -3.682987e+09
-2.269382e+10 -2.797832e+10 1.681106e+09
-6.006634e+10 -8.287711e+09 2.883455e+09
-4.567965e+10 -1.775143e+10 8.385064e+08
6.913138e+10 1.195921e+10 -7.199853e+08
-2.931203e+10 2.583594e+10 3.755112e+08
4.066989e+10 -2.574967e+10 1.290443e+09
-4.496446e+10 -3.647082e+10 -1.294567e+09
-3.183790e+10 2.798472e+10 -6.517277e+08
-5.310467e+08 -3.123792e+10 7.687444e+08
4.045969e+10 6.251872e+10 -1.411440e+09
2.617743e+10 -3.054202e+10 -2.681101e+09
-2.998603e+10 -3.042919e+10 -2.486059e+07
1.874332e+10 -2.818019e+10 4.348165e+09
-2.053299e+10 -3.009465e+10 -2.298490e+09
7.231259e+10 -5.693872e+08 4.889005e+08
-1.484488e+09 -3.650820e+10 -9.461643e+08
-1.362251e+09 -3.605383e+10 -6.558625e+08
3.678897e+10 5.431193e+10 -6.326105e+08
2.345416e+10 -2.424664e+10 -1.371032e+09
-3.956121e+10 -2.647916e+10 8.061666e+08
-2.689984e+10 -2.375386e+10 -4.782995e+08
-3.231540e+10 5.412321e+10 6.381514e+08
1.256637e+10 6.813371e+10 9.445544e+07
-4.351413e+10 6.845928e+09 1.637780e+08
6.354793e+10 -1.510845e+10 -3.500530e+09
2.261483e+10 1.895416e+10 6.149075e+08
6.613992e+10 1.418010e+10 1.073278e+09
6.492984e+10 5.226376e+10 -4.490195e+09
-2.477625e+10 3.027325e+10 6.783908e+08
-3.088918e+10 -2.326661e+10 -4.014111e+08
5.492990e+10 -3.717775e+10 -6.985185e+08
-1.213231e+10 -3.767138e+10 -1.459959e+08
1.021975e+10 -3.383450e+10 8.686819e+08
7.995228e+09 -3.469884e+10 -3.951741e+08
-1.274622e+10 -3.976786e+10 3.582629e+09
-1.085377e+10 4.000346e+10 -2.364236e+09
-5.168480e+10 -2.373491e+10 -3.674479e+08
-3.280866e+10 3.774223e+10 -1.045317e+09
-2.749286e+10 -5.467574e+10 2.978188e+09
2.628725e+10 -5.138005e+10 -2.795707e+09
-1.144233e+10 5.408291e+10 -4.778561e+08
2.472175e+10 -3.755573e+10 -1.058069e+09
-4.442404e+10 3.627526e+10 -5.875238e+09
-1.830331e+10 1.656541e+10 1.120766e+09
2.698718e+10 4.240942e+10 -2.422468e+08
6.544267e+10 3.124910e+10 5.147096e+08
7.082357e+10 -2.736878e+10 1.112952e+09
-4.129550e+10 1.566691e+10 2.113430e+09