# vtk DataFile Version 2.0
Electric current density generated by TTH
ASCII
DATASET UNSTRUCTURED_GRID
POINTS 13685 double
3.739803e-05 1.924944e-05 -9.994103e-23
3.988626e-05 -1.335064e-05 -9.994103e-23
1.238708e-06 -4.137616e-05 -3.156535e-07
-4.032759e-05 9.338440e-06 -3.156535e-07
-4.130736e-05 -2.687555e-06 -3.156546e-07
-7.131485e-06 4.077576e-05 -3.156546e-07
-3.873380e-05 -1.547780e-05 4.038277e-07
-2.462040e-05 -3.362339e-05 -4.075286e-07
-1.390217e-05 -3.928391e-05 -4.076423e-07
-4.136506e-05 5.036913e-06 -4.076722e-07
-2.925785e-05 -2.967617e-05 -4.075286e-07
-2.742409e-05 3.137447e-05 -4.076722e-07
3.996688e-05 -1.310731e-05 -9.994103e-23
-1.719496e-05 3.796090e-05 -4.075286e-07
-2.963391e-05 2.929722e-05 -4.076423e-07
-4.078021e-05 -8.583209e-06 -4.075286e-07
-3.749817e-05 1.817644e-05 -4.076423e-07
-3.169341e-05 2.705964e-05 -4.075286e-07
-4.167047e-05 5.180142e-07 -4.075286e-07
-3.854766e-05 -1.582953e-05 -4.076423e-07
-4.018174e-05 1.105099e-05 -4.075286e-07
-5.032997e-06 -4.136553e-05 -4.076722e-07
-1.097030e-05 -4.020385e-05 -4.075286e-07
4.004602e-05 -1.286350e-05 -9.994103e-23
7.158283e-06 -4.105186e-05 -4.076422e-07
-4.602793e-07 -4.166874e-05 -4.076423e-07
-5.820169e-06 -4.161606e-05 1.766780e-07
-2.545970e-05 -3.343014e-05 1.766780e-07
-3.967832e-05 -1.383478e-05 1.766780e-07
-3.571625e-05 -2.213866e-05 1.766780e-07
-3.109593e-05 -2.826329e-05 1.766780e-07
-2.931683e-05 3.010472e-05 1.766780e-07
1.093548e-05 -4.057322e-05 1.766780e-07
-3.143810e-05 2.788219e-05 1.766780e-07
4.012367e-05 -1.261921e-05 -9.994103e-23
-3.340703e-05 2.549002e-05 1.766780e-07
-2.586526e-05 3.311735e-05 1.766780e-07
-2.074000e-05 3.654617e-05 1.766780e-07
-2.292734e-05 -3.521516e-05 1.766780e-07
-3.815384e-05 1.760839e-05 1.766780e-07
-4.192582e-05 2.827774e-06 1.766780e-07
-4.155599e-05 3.564180e-06 -4.042773e-07
-1.992169e-05 3.664328e-05 -4.042773e-07
-3.818211e-05 1.678481e-05 -4.042773e-07
-1.533722e-05 -3.878625e-05 -4.042773e-07
4.019983e-05 -1.237446e-05 -9.994103e-23
-2.993977e-05 2.904284e-05 4.038161e-07
-3.736026e-05 1.854960e-05 4.038161e-07
4.181366e-05 -4.218816e-06 1.661476e-07
4.181366e-05 4.218816e-06 1.661476e-07
-2.974929e-05 -2.865788e-05 -2.163682e-07
-3.009636e-05 2.829317e-05 -2.163682e-07
-1.933745e-05 3.650147e-05 -2.163682e-07
-1.189755e-05 -3.955683e-05 -2.163682e-07
-3.670562e-05 1.894707e-05 -2.163682e-07
-6.905113e-06 -4.072608e-05 -2.163682e-07
4.027450e-05 -1.212924e-05 -9.994103e-23
-3.799190e-05 1.621449e-05 -2.163682e-07
-1.560312e-05 -3.824705e-05 -2.163682e-07
-4.111575e-05 3.973612e-06 -2.163682e-07
-2.794865e-05 3.041656e-05 -2.163682e-07
-3.859362e-05 -1.472505e-05 -2.163682e-07
-2.635920e-05 3.180388e-05 -2.163682e-07
-3.355234e-05 2.409430e-05 -2.163682e-07
-3.674959e-05 -1.886165e-05 -2.163682e-07
2.246102e-05 3.527705e-05 -3.721239e-07
2.246102e-05 -3.527705e-05 -3.721239e-07
4.034767e-05 -1.188357e-05 -9.994103e-23
4.061468e-05 7.569672e-06 -2.267988e-07
4.061468e-05 -7.569672e-06 -2.267988e-07
-8.095913e-06 -4.098574e-05 3.886093e-07
-1.682189e-05 -3.824132e-05 3.886093e-07
-3.664841e-05 -2.005639e-05 3.886489e-07
-3.292930e-06 4.162209e-05 -3.958788e-07
1.834004e-05 -3.731719e-05 4.014816e-07
3.541643e-05 -2.120624e-05 -1.645614e-07
3.541643e-05 2.120624e-05 -1.645614e-07
-3.677494e-05 -2.032751e-05 1.807502e-07
4.041934e-05 -1.163747e-05 -9.994103e-23
-1.709749e-05 -3.839111e-05 1.655863e-07
-8.332310e-06 -4.119192e-05 1.655863e-07
3.274133e-05 2.530364e-05 -3.026340e-07
3.655656e-05 -1.933950e-05 -2.805415e-07
2.057588e-05 -3.662962e-05 -1.925105e-07
2.057588e-05 3.662962e-05 -1.925105e-07
1.676379e-05 3.853352e-05 -1.745210e-07
1.716058e-05 3.835032e-05 -1.894329e-07
3.138714e-05 2.691606e-05 -2.703423e-07
3.927207e-05 1.353375e-05 -3.916061e-07
4.048951e-05 -1.139092e-05 -9.994103e-23
3.927207e-05 -1.353375e-05 -3.916061e-07
-3.874980e-05 1.412883e-05 -4.467511e-09
-3.898176e-05 1.347565e-05 -4.281933e-09
-3.685157e-05 1.952511e-05 -4.048069e-07
4.055829e-05 1.101119e-05 -1.650618e-07
4.055829e-05 -1.101119e-05 -1.650618e-07
4.000026e-05 -1.102264e-05 3.744732e-07
4.000026e-05 1.102264e-05 3.744732e-07
3.092206e-05 -2.789726e-05 -4.079840e-07
1.381390e-05 3.903167e-05 3.230895e-07
4.055818e-05 -1.114396e-05 -9.994103e-23
2.964445e-05 2.948289e-05 3.769433e-07
-4.064572e-05 8.238776e-06 -3.657192e-07
2.383133e-06 -4.140378e-05 -3.657192e-07
4.086959e-05 -5.932137e-06 2.004649e-07
4.086959e-05 5.932137e-06 2.004649e-07
1.568498e-05 3.821952e-05 -2.249541e-07
-4.106321e-05 7.708646e-06 3.876958e-07
-2.621587e-05 -3.253212e-05 3.876958e-07
3.002098e-06 -4.167251e-05 3.876958e-07
1.663062e-05 -3.800551e-05 -3.716788e-07
3.728003e-05 1.947699e-05 -9.994103e-23
4.062534e-05 -1.089658e-05 -9.994103e-23
4.069297e-07 -4.169358e-05 4.058418e-07
-3.823222e-05 -1.663780e-05 4.058432e-07
-4.042274e-05 1.022356e-05 4.058432e-07
-3.575737e-05 2.144597e-05 4.058432e-07
-4.169414e-05 -3.434784e-07 4.058432e-07
4.133661e-05 9.551878e-07 2.703548e-07
4.133661e-05 -9.551878e-07 2.703548e-07
-3.719395e-05 -1.834438e-05 -3.654444e-07
2.052367e-05 3.642476e-05 3.771942e-07
2.052367e-05 -3.642476e-05 3.771942e-07
4.069099e-05 -1.064880e-05 -9.994103e-23
4.014819e-05 -1.153832e-05 3.899798e-07
4.014819e-05 1.153832e-05 3.899798e-07
4.078746e-05 -8.789915e-06 -4.018891e-07
4.078746e-05 8.789915e-06 -4.018891e-07
3.501187e-05 -2.217215e-05 3.490619e-07
3.501187e-05 2.217215e-05 3.490619e-07
3.734168e-05 1.809389e-05 3.758667e-07
-3.073046e-05 -2.865657e-05 1.817883e-07
-4.188378e-05 3.363001e-06 1.817883e-07
-3.837341e-05 1.711846e-05 1.817883e-07
4.075513e-05 -1.040062e-05 -9.994103e-23
-1.277846e-05 -4.003423e-05 1.701345e-07
-2.628471e-05 3.278223e-05 1.817883e-07
-3.372796e-05 2.505963e-05 1.817883e-07
-2.027018e-05 3.680598e-05 1.817883e-07
-3.107745e-05 2.827989e-05 1.817883e-07
-2.892809e-05 3.047501e-05 1.817883e-07
-3.949598e-05 -1.433974e-05 1.817883e-07
-1.521789e-05 -3.917199e-05 1.701345e-07
-6.351017e-06 -4.153583e-05 1.817883e-07
2.044421e-05 -3.616423e-05 -3.928471e-07
4.081776e-05 -1.015206e-05 -9.994103e-23
2.044421e-05 3.616423e-05 -3.928471e-07
3.553658e-05 -2.242180e-05 -1.811909e-07
3.553658e-05 2.242180e-05 -1.811909e-07
2.969826e-05 -2.874424e-05 2.497576e-07
3.759537e-06 4.115923e-05 -2.497383e-07
4.170208e-05 2.206905e-06 3.937148e-07
4.170208e-05 -2.206905e-06 3.937148e-07
2.802213e-05 3.129796e-05 -1.988964e-07
2.802213e-05 -3.129796e-05 -1.988964e-07
6.799797e-06 4.145558e-05 1.988912e-07
4.087887e-05 -9.903118e-06 -9.994103e-23
4.028376e-05 8.925410e-06 -1.112581e-07
4.028376e-05 -8.925410e-06 -1.112581e-07
3.221820e-05 2.590031e-05 -2.591640e-07
3.692559e-05 1.893203e-05 -3.765321e-07
3.098064e-05 -2.836519e-05 2.075551e-07
1.749685e-05 -3.751943e-05 -3.188407e-07
4.131990e-05 3.723458e-06 3.727730e-07
4.131990e-05 -3.723458e-06 3.727730e-07
-3.759320e-06 4.123850e-05 -3.272165e-07
4.088639e-05 9.708083e-06 1.723160e-07
4.093846e-05 -9.653809e-06 -9.994103e-23
4.088639e-05 -9.708083e-06 1.723160e-07
4.180666e-05 4.127528e-06 -1.982315e-07
4.180666e-05 -4.127528e-06 -1.982315e-07
7.821778e-06 4.082270e-05 3.984433e-07
2.688821e-05 3.169697e-05 -3.984434e-07
2.688821e-05 -3.169697e-05 -3.984434e-07
3.252563e-05 2.536280e-05 -1.387334e-08
1.671538e-05 3.828171e-05 3.904081e-07
-4.584577e-06 4.116700e-05 -3.358251e-07
-3.928069e-05 1.487781e-05 2.088043e-07
4.099653e-05 -9.404142e-06 -9.994103e-23
-1.811332e-05 3.789762e-05 2.088043e-07
1.362600e-05 3.950801e-05 3.838208e-07
3.371791e-05 2.381944e-05 -1.708639e-07
3.371791e-05 -2.381944e-05 -1.708639e-07
1.572794e-05 -3.879219e-05 -3.521973e-07
1.626613e-05 -3.851926e-05 3.755081e-07
3.746782e-05 1.799833e-05 -3.987180e-07
1.671781e-05 3.790310e-05 3.390277e-07
3.867416e-05 -1.639362e-05 2.064002e-07
1.088682e-05 4.057897e-05 -1.907114e-07
4.105308e-05 -9.154125e-06 -9.994103e-23
2.478074e-05 -3.391692e-05 2.063799e-07
2.478074e-05 3.391692e-05 2.063799e-07
2.340187e-05 3.488259e-05 2.063797e-07
2.340187e-05 -3.488259e-05 2.063797e-07
1.248037e-05 4.011753e-05 -1.907112e-07
3.929997e-05 -1.483086e-05 2.063795e-07
3.929997e-05 1.483086e-05 2.063795e-07
1.224659e-05 3.972309e-05 3.990427e-07
2.707974e-05 3.211122e-05 2.063679e-07
2.707974e-05 -3.211122e-05 2.063679e-07
4.110811e-05 -8.903768e-06 -9.994103e-23
8.013683e-06 4.124264e-05 -1.907449e-07
2.623802e-05 -3.224633e-05 -3.999339e-07
2.623802e-05 3.224633e-05 -3.999339e-07
8.657461e-06 4.066088e-05 3.999339e-07
4.125518e-05 -6.016568e-07 1.072188e-07
4.125523e-05 6.021969e-07 1.074351e-07
3.798268e-05 1.795951e-05 -1.895296e-07
4.186335e-05 3.708990e-06 1.630147e-07
4.186335e-05 -3.708990e-06 1.630147e-07
4.083497e-05 5.804357e-06 1.278263e-08
4.116160e-05 -8.653081e-06 -9.994103e-23
4.083497e-05 -5.804357e-06 1.278263e-08
3.615619e-05 2.052760e-05 4.008628e-07
2.222602e-05 -3.546671e-05 3.543970e-07
2.222602e-05 3.546671e-05 3.543970e-07
2.557460e-05 -3.244236e-05 -2.215493e-07
2.557460e-05 3.244236e-05 -2.215493e-07
9.226248e-06 4.026714e-05 2.215493e-07
7.993682e-07 -4.174882e-05 -3.947723e-07
-4.057609e-05 9.858194e-06 -3.947723e-07
-3.813005e-05 -1.702063e-05 -3.947723e-07
3.716064e-05 1.970382e-05 -9.994103e-23
4.121357e-05 -8.402072e-06 -9.994103e-23
4.138282e-05 -7.311081e-06 -1.711529e-07
4.138282e-05 7.311081e-06 -1.711529e-07
3.096596e-05 2.738095e-05 2.557271e-07
3.910158e-05 1.312839e-05 -3.434576e-08
3.910158e-05 -1.312839e-05 -3.434576e-08
3.741897e-05 -1.750317e-05 -2.210533e-07
4.086604e-05 5.591379e-06 3.551252e-08
4.086604e-05 -5.591379e-06 3.551252e-08
4.796195e-06 -4.096542e-05 2.030336e-09
-1.489416e-05 3.846210e-05 2.030336e-09
4.126401e-05 -8.150751e-06 -9.994103e-23
-3.340141e-05 -2.419742e-05 2.030336e-09
1.774269e-05 -3.808317e-05 -1.917149e-07
3.995529e-05 -1.046986e-05 2.114344e-07
3.995529e-05 1.046986e-05 2.114344e-07
4.586865e-06 4.176322e-05 1.900271e-07
2.962164e-05 -2.980296e-05 -1.794415e-07
2.962164e-05 2.980296e-05 -1.794415e-07
-2.874542e-05 -3.040387e-05 3.621323e-07
-1.737686e-05 -3.806231e-05 3.621323e-07
[...]
POINT_DATA 13685
VECTORS 10.000GHz_fone_imag double
4.786582e+10 -9.537487e+10 -6.862467e+08
-3.490145e+10 -9.877196e+10 -5.646545e+08
-1.087309e+11 -1.587052e+09 -1.033277e+09
2.609356e+10 1.055388e+11 -1.080021e+09
-6.539486e+09 1.085556e+11 -2.190567e+09
1.079026e+11 1.820959e+10 -2.014570e+09
-3.942420e+10 1.003733e+11 3.759842e+08
-8.594599e+10 6.273932e+10 -1.106145e+09
-1.003786e+11 3.655162e+10 -1.164486e+09
1.154106e+10 1.060912e+11 1.362805e+09
-7.445667e+10 7.398944e+10 -1.246566e+09
7.857899e+10 7.052252e+10 1.290090e+09
-3.301207e+10 -9.783654e+10 -4.381159e+08
9.643081e+10 4.353611e+10 -5.419418e+08
7.491236e+10 7.675714e+10 1.415373e+09
-2.110207e+10 1.051812e+11 -7.777683e+08
4.619500e+10 9.520605e+10 -4.655454e+08
7.048973e+10 7.942921e+10 -9.951546e+08
1.471826e+09 1.060045e+11 1.027625e+09
-3.985385e+10 9.894016e+10 -1.308280e+09
2.757357e+10 1.031503e+11 1.254513e+09
-1.075752e+11 1.482685e+10 -1.364590e+09
-1.011413e+11 2.804223e+10 -1.247748e+09
-3.027195e+10 -1.006009e+11 -1.928119e+09
-1.028215e+11 -1.887900e+10 8.861971e+08
-1.073219e+11 2.531626e+09 -1.383699e+09
-1.017810e+11 1.337974e+10 1.233688e+09
-8.256609e+10 6.175036e+10 1.155760e+09
-3.293680e+10 9.731630e+10 -1.030494e+09
-5.339830e+10 8.759965e+10 -1.369012e+09
-6.866922e+10 7.688827e+10 -1.155806e+09
7.285560e+10 7.227944e+10 9.777462e+08
-9.840950e+10 -2.740643e+10 1.142961e+09
6.727767e+10 7.758182e+10 6.949464e+08
-3.201445e+10 -1.002708e+11 -2.166784e+09
6.326289e+10 8.143046e+10 -1.156345e+09
8.096812e+10 6.210467e+10 -1.047210e+09
8.923693e+10 5.183487e+10 1.013038e+09
-8.570044e+10 5.706237e+10 -9.035289e+08
4.398591e+10 9.332392e+10 -1.124350e+09
5.929207e+09 1.029467e+11 1.064336e+09
7.750831e+09 1.055593e+11 8.485045e+08
9.232600e+10 5.168518e+10 8.508517e+08
4.372009e+10 9.641724e+10 -8.390138e+08
-9.882283e+10 3.797329e+10 8.021965e+08
-3.177251e+10 -1.008008e+11 2.155056e+08
7.492973e+10 7.751169e+10 -1.319323e+08
4.819670e+10 9.801853e+10 1.549102e+07
-1.140347e+10 -1.040934e+11 1.082721e+09
1.140390e+10 -1.040948e+11 -1.082433e+09
-7.768715e+10 7.515628e+10 2.376786e+09
7.653164e+10 7.738492e+10 -1.875239e+09
9.707511e+10 4.804834e+10 -3.226478e+09
-1.045898e+11 2.750594e+10 2.414524e+09
4.620814e+10 9.765811e+10 2.205163e+09
-1.044403e+11 2.070803e+10 -3.123127e+09
-2.911418e+10 -1.018072e+11 -2.389451e+08
3.967467e+10 1.005356e+11 3.161203e+09
-9.883572e+10 4.343907e+10 -2.532259e+09
1.337090e+10 1.075300e+11 -3.247616e+09
8.028859e+10 6.985257e+10 -3.232911e+09
-4.140440e+10 1.010642e+11 2.236212e+09
8.148166e+10 7.207528e+10 2.310164e+09
5.995337e+10 9.005737e+10 2.350841e+09
-5.141325e+10 9.373302e+10 3.231120e+09
9.036706e+10 -5.598410e+10 2.021246e+09
-9.037073e+10 -5.599180e+10 -2.021170e+09
-2.975766e+10 -1.020382e+11 1.330073e+09
1.684076e+10 -1.056023e+11 -5.127466e+08
-1.684106e+10 -1.056022e+11 5.129763e+08
-1.049856e+11 2.049459e+10 1.388919e+09
-9.749513e+10 4.192056e+10 1.581044e+09
-5.025721e+10 9.365937e+10 -1.019398e+09
1.073674e+11 1.016538e+10 -1.800507e+09
-9.662399e+10 -4.757721e+10 1.375905e+09
-5.564624e+10 -9.429397e+10 1.643765e+06
5.531181e+10 -9.287177e+10 -6.534510e+08
-5.056081e+10 9.090139e+10 -1.636825e+08
-3.056859e+10 -9.894109e+10 9.408834e+08
-9.502684e+10 4.395592e+10 -4.626797e+07
-1.015868e+11 2.241818e+10 9.173941e+07
6.698618e+10 -8.507232e+10 5.623926e+08
-5.237673e+10 -9.566292e+10 -1.060796e+09
-9.090674e+10 -5.246590e+10 -6.575962e+08
9.102797e+10 -5.242894e+10 8.474433e+08
9.610432e+10 -4.216377e+10 5.762615e+08
9.384159e+10 -4.545676e+10 2.063815e+09
6.946006e+10 -8.178926e+10 -4.492985e+08
3.485746e+10 -1.003290e+11 6.091299e+08
-2.611230e+10 -1.003005e+11 -4.247155e+08
-3.486089e+10 -1.003325e+11 -6.085505e+08
3.566412e+10 1.040949e+11 1.680674e+09
3.822800e+10 1.041223e+11 -1.413776e+09
5.061923e+10 9.220145e+10 1.536593e+09
2.662054e+10 -1.008572e+11 1.353186e+09
-2.662874e+10 -1.009158e+11 -1.341936e+09
-2.929102e+10 -1.046510e+11 -4.576261e+08
2.937649e+10 -1.046380e+11 4.931542e+08
-7.205664e+10 -7.900009e+10 -9.851498e+07
1.013066e+11 -3.611489e+10 1.591096e+08
-2.802169e+10 -1.004065e+11 -7.782577e+08
7.431841e+10 -7.506882e+10 2.857824e+08
2.260007e+10 1.048462e+11 -9.933744e+08
-1.072086e+11 -4.880059e+09 -1.008055e+09
-1.528127e+10 -1.070768e+11 1.133440e+09
1.528092e+10 -1.070797e+11 -1.134723e+09
1.012664e+11 -3.934499e+10 6.364918e+08
1.788359e+10 1.072539e+11 4.905833e+08
-8.112936e+10 6.703435e+10 -1.593776e+09
-1.083524e+11 -1.012071e+10 4.532670e+08
-9.847355e+10 -4.496395e+10 -1.158502e+09
5.006896e+10 -9.086340e+10 -8.885976e+08
-2.516815e+10 -1.028752e+11 -5.601017e+08
-1.043330e+11 -1.100433e+09 1.775256e+09
-4.221604e+10 9.537097e+10 1.606664e+09
2.483745e+10 1.017734e+11 1.789905e+09
5.287086e+10 8.892609e+10 1.724009e+09
-1.304949e+09 1.044020e+11 1.556950e+09
5.363395e+08 -1.083054e+11 1.843821e+09
-4.919342e+08 -1.084935e+11 -1.795760e+09
-4.575778e+10 9.620489e+10 -1.017732e+09
9.259992e+10 -4.821778e+10 -3.395186e+08
-9.270835e+10 -4.826388e+10 3.463423e+08
-2.886566e+10 -1.010422e+11 4.444368e+08
-2.964785e+10 -1.024668e+11 -1.062467e+09
2.950282e+10 -1.026007e+11 1.015154e+09
-2.256030e+10 -1.023074e+11 -1.960308e+09
2.256060e+10 -1.023076e+11 1.960379e+09
-5.589689e+10 -9.090688e+10 -1.550957e+08
5.591686e+10 -9.092269e+10 1.618164e+08
4.596852e+10 -9.559329e+10 1.562698e+09
-6.927103e+10 7.684076e+10 -1.071243e+09
6.249052e+09 1.037755e+11 8.682577e+08
4.426954e+10 9.428239e+10 -8.970916e+08
-2.344787e+10 -1.019105e+11 -1.053354e+09
-9.934146e+10 3.080000e+10 2.354706e+08
8.129992e+10 6.224351e+10 -1.240065e+09
6.308988e+10 8.200080e+10 -1.082269e+09
9.004748e+10 5.197422e+10 8.702202e+08
6.730157e+10 7.741990e+10 1.198473e+09
7.406676e+10 7.276244e+10 1.145337e+09
-3.285972e+10 9.714208e+10 -1.320827e+09
-9.715336e+10 3.846762e+10 -2.438358e+08
-1.029123e+11 1.394601e+10 1.150215e+09
-9.489232e+10 -5.228468e+10 4.099591e+08
-2.483176e+10 -1.019937e+11 -7.688231e+08
9.500092e+10 -5.238025e+10 -3.971739e+08
-5.834524e+10 -8.785692e+10 3.296646e+09
5.837546e+10 -8.786613e+10 -3.261995e+09
-7.664625e+10 -7.914647e+10 1.368009e+08
1.085921e+11 -9.440473e+09 -4.078348e+08
6.779233e+09 -1.060545e+11 6.711897e+07
-6.776566e+09 -1.060539e+11 -6.727345e+07
7.855392e+10 -6.911683e+10 3.384097e+08
-7.861401e+10 -6.914144e+10 -3.681201e+08
1.030119e+11 -1.779702e+10 2.877097e+08
-2.564461e+10 -1.012353e+11 1.388668e+08
2.480926e+10 -1.049699e+11 2.818313e+09
-2.480962e+10 -1.049706e+11 -2.817795e+09
6.720437e+10 -8.439204e+10 4.165067e+08
4.795894e+10 -9.664066e+10 -2.566813e+08
-7.130814e+10 -7.631678e+10 9.208038e+08
-9.703704e+10 -4.565818e+10 2.010527e+09
7.549911e+09 -1.082100e+11 2.706954e+08
-7.549703e+09 -1.082115e+11 -2.705830e+08
1.072013e+11 7.555419e+09 -1.439747e+09
2.577933e+10 -1.007811e+11 8.110833e+08
-2.174306e+10 -1.025574e+11 -1.628778e+09
-2.577909e+10 -1.007805e+11 -8.109048e+08
1.063342e+10 -1.043285e+11 6.492185e+06
-1.063222e+10 -1.043235e+11 -5.333561e+06
1.068221e+11 -2.011650e+10 -7.538793e+08
8.245422e+10 -7.029481e+10 -7.787214e+08
-8.245806e+10 -7.028439e+10 7.812420e+08
6.607477e+10 -8.737616e+10 -3.131461e+08
9.499917e+10 -4.419397e+10 -9.827434e+08
1.069393e+11 9.441556e+09 -2.819753e+09
3.778389e+10 9.922407e+10 6.157142e+08
-2.345712e+10 -1.020400e+11 8.057620e+08
9.552926e+10 4.518512e+10 1.208469e+08
9.942781e+10 -3.625483e+10 -1.129028e+09
6.444074e+10 -8.648651e+10 1.172231e+09
-6.441555e+10 -8.650920e+10 -1.244197e+09
-9.592019e+10 -3.920639e+10 -4.051175e+07
-9.800346e+10 -4.046379e+10 5.266308e+08
4.594965e+10 -9.631451e+10 -5.613287e+08
9.927128e+10 -4.546585e+10 2.413685e+09
-4.154726e+10 -9.649449e+10 -7.430800e+07
1.018741e+11 -2.772541e+10 -3.588371e+08
-2.492950e+10 -1.019973e+11 5.704517e+08
-8.445849e+10 -6.244044e+10 1.025707e+08
8.445905e+10 -6.244066e+10 -1.027541e+08
8.692820e+10 -5.783633e+10 1.013371e+09
-8.692979e+10 -5.783719e+10 -1.013261e+09
9.910251e+10 -3.090051e+10 -7.477582e+08
-3.730429e+10 -9.753742e+10 -1.298457e+08
3.731190e+10 -9.754698e+10 1.318137e+08
1.030998e+11 -3.203690e+10 -6.299413e+08
7.849946e+10 -6.650357e+10 -4.870816e+08
-7.850033e+10 -6.650236e+10 4.874952e+08
-2.161051e+10 -1.005905e+11 -3.734459e+08
1.007795e+11 -1.878161e+10 -1.356738e+08
-8.432252e+10 -6.719902e+10 -3.170801e+08
8.432249e+10 -6.719875e+10 3.169431e+08
1.044176e+11 -2.204796e+10 5.055221e+08
-2.090292e+09 -1.067742e+11 7.468611e+08
1.846321e+09 -1.074713e+11 -6.259578e+08
4.549080e+10 -9.504379e+10 -6.495560e+08
8.029635e+09 -1.032518e+11 -1.935255e+08
-8.029184e+09 -1.032490e+11 1.923138e+08
1.456889e+10 -1.084035e+11 1.174169e+08
-2.154733e+10 -1.033907e+11 -3.005315e+08
-1.456885e+10 -1.084029e+11 -1.185699e+08
5.551221e+10 -9.499651e+10 -1.971315e+09
-8.942567e+10 -5.663519e+10 -7.041843e+08
8.942439e+10 -5.663481e+10 7.043090e+08
-8.670716e+10 -6.746759e+10 -9.181222e+08
8.670742e+10 -6.746761e+10 9.183384e+08
1.068794e+11 -2.516891e+10 1.006349e+09
-1.064053e+11 -3.344547e+08 1.600655e+09
2.645424e+10 1.032377e+11 1.728271e+09
-4.170763e+10 9.784264e+10 1.568273e+09
4.968085e+10 -9.173963e+10 1.166784e+09
-1.968542e+10 -1.036205e+11 -2.553766e+08
-1.662380e+10 -1.000491e+11 -7.323867e+08
1.662293e+10 -1.000465e+11 7.315037e+08
7.261007e+10 -8.148602e+10 5.190044e+08
3.339080e+10 -1.044979e+11 -1.730997e+09
-3.339052e+10 -1.044971e+11 1.731697e+09
-4.498994e+10 -9.953482e+10 1.323896e+09
1.547369e+10 -1.080942e+11 6.323716e+08
-1.547355e+10 -1.080953e+11 -6.333340e+08
-1.069483e+11 -1.496914e+10 5.944148e+08
9.975910e+10 4.123490e+10 6.082658e+08
-2.390851e+10 -1.028862e+11 -5.963788e+07
-6.640272e+10 8.636996e+10 1.153259e+09
-9.591122e+10 -4.350433e+10 5.475140e+08
-2.640863e+10 -1.053568e+11 9.505482e+08
2.641833e+10 -1.053687e+11 -9.458037e+08
1.039986e+11 -1.150910e+10 3.455902e+08
-7.457533e+10 -7.298006e+10 -6.314764e+08
7.665211e+10 -7.319221e+10 8.871342e+08
-7.719444e+10 7.309245e+10 -3.635780e+09
-9.769686e+10 4.238889e+10 -1.037884e+09
-2.398779e+10 1.057649e+11 3.804301e+09
-1.751852e+10 -1.030807e+11 -6.712778e+08
-1.055825e+11 2.044938e+10 -1.483789e+09
-1.569268e+10 -1.040437e+11 1.294026e+09
1.569343e+10 -1.040405e+11 -1.293487e+09
2.129077e+10 1.072744e+11 -1.475821e+09
-4.835453e+10 9.750362e+10 -1.883298e+09
4.979561e+10 9.433918e+10 -1.608834e+09
1.036470e+11 3.359749e+10 -1.396341e+09
-1.444660e+10 1.083182e+11 -1.382576e+09
-1.091585e+11 -6.754565e+09 -1.467510e+09
-7.232569e+10 -8.163229e+10 2.137190e+09
-2.073248e+10 -1.043632e+11 -7.453094e+08
1.032360e+11 -3.215060e+10 1.597102e+09
1.069584e+11 -2.272627e+10 -1.089010e+09
-8.456909e+10 -6.943668e+10 3.724978e+08
8.456570e+10 -6.943027e+10 -3.713976e+08
-1.000869e+11 -3.306099e+10 4.578583e+08
1.024179e+11 1.423587e+10 -1.395535e+09
1.028055e+11 2.078924e+10 -5.496546e+08
-1.052326e+10 1.036643e+11 -1.632984e+09
9.295836e+10 -4.296297e+10 1.400373e+09
-1.472031e+10 1.054445e+11 -8.351232e+08
-1.867678e+10 -1.027741e+11 -5.147246e+08
1.009330e+11 3.351518e+10 -7.844229e+08
-9.074551e+10 5.587715e+10 -7.278348e+08
1.990334e+10 1.031040e+11 -2.320546e+09
-8.224186e+10 6.724519e+10 6.095214e+08
-1.065411e+11 6.037601e+09 6.399031e+08
-1.036078e+11 -2.508525e+10 6.985094e+08
-1.046508e+11 -7.031829e+09 -2.333755e+09
-1.032643e+11 2.449170e+10 -7.941456e+08
5.528320e+10 -9.736138e+10 9.475574e+07
-4.927685e+10 -9.107817e+10 6.151337e+07
-1.758914e+10 -1.019346e+11 -7.005065e+08
1.083643e+11 -1.928754e+09 -2.142279e+08
-3.588432e+10 -9.803567e+10 2.018322e+09
3.588533e+10 -9.803742e+10 -2.018255e+09
1.051191e+11 -3.506636e+09 5.584413e+08
1.043624e+11 -1.086871e+10 1.716319e+09
-7.409755e+10 -7.489600e+10 -1.380698e+09
6.540189e+10 -8.636065e+10 1.315295e+09
1.058429e+11 -6.609209e+09 6.272868e+07
-2.452108e+10 -1.025023e+11 6.344193e+08
2.452646e+10 -1.025009e+11 -6.328673e+08
-1.570555e+10 -1.035138e+11 -9.545252e+08
-7.054397e+10 -7.857043e+10 -1.546132e+09
4.256234e+10 -9.570300e+10 1.277462e+09
-6.060807e+10 -8.464947e+10 -5.387962e+08
6.058544e+10 -8.462491e+10 5.289179e+08
4.963741e+10 -9.384182e+10 -5.009819e+08
1.047881e+11 -3.529226e+10 -1.549299e+09
2.234914e+10 -1.049066e+11 2.480168e+09
-2.235034e+10 -1.049109e+11 -2.480072e+09
-7.021473e+10 -8.070931e+10 1.753655e+08
1.080686e+11 1.099376e+10 6.343427e+08
-1.589088e+10 -1.026425e+11 1.055803e+09
-9.160465e+10 -5.498342e+10 -5.471048e+08
9.139987e+10 -5.475838e+10 5.311868e+08
7.014995e+10 -8.232736e+10 1.295390e+09
-7.227808e+10 -8.070524e+10 2.513535e+09
1.064991e+11 -9.846295e+08 3.592657e+08
5.729267e+10 -8.669690e+10 3.085654e+08
-5.704473e+10 -8.644236e+10 -5.056869e+08
-8.869686e+10 -5.769919e+10 6.717490e+08
8.869536e+10 -5.769852e+10 -6.723312e+08
-2.131368e+10 1.034974e+11 -8.944933e+08
-1.569410e+10 -1.030624e+11 -2.123865e+09
-7.847918e+10 7.051584e+10 8.719532e+08
9.100623e+10 5.609203e+10 1.519751e+09
-5.967387e+10 8.716948e+10 8.721706e+08
9.848366e+10 -4.052014e+10 -7.066903e+08
3.208237e+10 1.003088e+11 -1.495381e+09
-2.847782e+10 1.010383e+11 -1.379063e+09
7.471135e+10 -7.837717e+10 -2.161988e+08
4.886019e+10 -9.766870e+10 2.555052e+09
9.691139e+10 -4.828484e+10 2.122236e+09
1.048160e+11 -6.896575e+09 -1.992529e+08
-1.557125e+10 -1.019998e+11 -3.998670e+08
-8.756810e+10 -5.671438e+10 -1.013007e+09
8.756618e+10 -5.671354e+10 1.013256e+09
4.568738e+10 -9.409998e+10 -4.909223e+08
-2.294881e+10 -1.076826e+11 -3.842199e+07
2.294871e+10 -1.076832e+11 3.993069e+07
1.057868e+11 3.095331e+10 2.194670e+08
-1.136585e+10 1.087662e+11 4.044721e+08
5.372165e+10 9.457389e+10 -2.673949e+08
1.050476e+11 2.647868e+10 7.603082e+08
1.069798e+11 1.484198e+10 6.180089e+08
4.746435e+10 -9.375940e+10 -3.409300e+08
-1.442087e+10 -1.023481e+11 6.176431e+08
1.056668e+11 2.267558e+10 6.854726e+08
-3.475803e+09 1.092472e+11 -5.383532e+08
1.785939e+10 1.065094e+11 -2.793258e+08
-1.054717e+11 -2.192081e+10 4.098004e+08
-1.826006e+10 1.066244e+11 -4.809816e+08
-8.278642e+10 7.011987e+10 7.128354e+08
-1.073448e+11 9.328639e+09 5.474885e+08
-9.373589e+10 5.397506e+10 -4.671476e+08
-3.074419e+10 -9.903214e+10 -8.404363e+08
3.074631e+10 -9.904155e+10 8.421886e+08
-1.421435e+10 -1.037290e+11 -1.494715e+09
1.085413e+11 6.540315e+09 -2.402415e+08
-6.187460e+10 -8.830707e+10 -1.959716e+09
6.187362e+10 -8.830491e+10 1.959174e+09
4.739556e+10 9.723115e+10 1.386815e+09
7.707499e+10 7.730690e+10 -7.493046e+08
-6.651005e+10 -8.554266e+10 -1.632911e+09
6.539790e+10 -8.416942e+10 2.629309e+09
9.675831e+10 -3.696308e+10 4.264783e+08
-4.147949e+10 1.001010e+11 1.466120e+09
2.548430e+08 -1.086227e+11 1.645097e+09
-1.387880e+10 -1.029442e+11 3.218935e+08
4.669283e+08 -1.058233e+11 -7.687925e+08
-1.715608e+10 -1.041078e+11 1.965639e+09
1.715634e+10 -1.041080e+11 -1.966088e+09
-1.105525e+11 -1.679426e+10 -6.075249e+08
6.527582e+10 -8.696857e+10 4.831548e+08
-3.213848e+10 -1.039910e+11 1.116144e+09
3.197255e+10 -1.041613e+11 -7.328367e+08
4.829710e+10 -9.499521e+10 6.333954e+07
1.001246e+11 -4.129124e+10 2.591122e+09
-5.796781e+10 -9.082920e+10 2.027070e+08
-1.287831e+10 -1.027332e+11 3.441982e+08
5.797474e+10 -9.083084e+10 -1.926693e+08
1.009754e+11 -3.835782e+10 -1.211343e+09
5.202272e+10 -9.395727e+10 -1.159911e+08
-9.280151e+10 -4.962329e+10 -3.320341e+08
7.151883e+10 -7.632835e+10 -2.228756e+08
5.684912e+09 -1.038034e+11 -4.449984e+08
-5.685409e+09 -1.038040e+11 4.462884e+08
-6.030792e+10 8.685985e+10 1.818380e+09
9.680176e+10 -4.188366e+10 1.321825e+09
2.000078e+10 -1.065561e+11 5.194843e+08
-1.093594e+10 -1.044209e+11 -3.349686e+07
-2.000034e+10 -1.065541e+11 -5.193874e+08
-9.829369e+10 -4.410956e+10 1.458916e+09
-9.558883e+10 -4.826436e+10 7.128708e+08
-9.956351e+10 -3.545636e+10 8.144560e+07
-9.186226e+10 -5.177090e+10 -1.520917e+09
9.290394e+10 -5.162339e+10 1.842515e+09
-1.005489e+11 -4.041417e+10 1.109686e+08
9.349477e+09 -1.069928e+11 -9.663023e+08
-9.348756e+09 -1.069951e+11 9.667940e+08
-2.864179e+10 -1.022929e+11 -8.343435e+08
-1.192885e+10 -1.036505e+11 5.272350e+08
2.901854e+10 -1.021578e+11 6.202504e+08
-1.033008e+11 3.157822e+10 -1.040850e+09
-8.559320e+10 6.722525e+10 1.706782e+09
-9.965112e+10 4.003954e+10 1.060103e+09
-1.065060e+11 1.703960e+10 1.202970e+09
4.321217e+10 9.873049e+10 -1.201845e+09
-1.049177e+11 -2.576732e+10 1.436773e+09
6.415690e+10 8.725676e+10 -1.318375e+09
9.026222e+09 1.074249e+11 1.357843e+09
7.876656e+10 7.372854e+10 1.199469e+09
-1.159724e+10 -1.034909e+11 -3.780813e+08
-3.785181e+10 1.002740e+11 -9.432096e+08
9.462592e+10 5.164582e+10 1.353825e+09
8.276595e+10 6.807567e+10 -9.511385e+08
7.312666e+10 7.825933e+10 9.218319e+08
-5.881759e+10 9.041056e+10 -1.456417e+09
-7.423923e+10 7.883642e+10 -1.321550e+09
-1.074377e+11 5.819278e+09 1.324392e+09
-9.172947e+10 5.717305e+10 -1.561337e+09
6.790391e+10 -8.465809e+10 -1.392069e+09
7.426674e+10 -7.961595e+10 -2.348549e+08
-8.398860e+09 -1.053674e+11 -1.077278e+09
1.070813e+11 1.063947e+09 -1.515761e+09
-1.050814e+11 1.299503e+10 2.704221e+09
-4.981941e+10 9.293945e+10 -2.731474e+09
-1.072783e+11 2.917596e+09 2.377150e+09
-3.939311e+10 9.986148e+10 2.456715e+09
-6.758361e+10 8.341187e+10 -3.531578e+09
1.216471e+10 1.063898e+11 3.027762e+09
4.494904e+09 1.081404e+11 -1.948740e+09
7.933139e+10 7.014440e+10 -2.475275e+09
-1.041315e+11 2.921507e+10 -2.866715e+09
-9.740471e+09 -1.039770e+11 -1.064839e+09
4.807900e+10 9.580442e+10 2.137171e+09
9.269153e+10 5.574383e+10 -1.969737e+09
-7.652129e+10 7.648137e+10 -2.855214e+09
-3.987062e+10 9.803595e+10 -2.532469e+09
4.044913e+10 9.874553e+10 -3.224924e+09
5.818453e+10 8.897901e+10 2.008931e+09
2.853172e+10 1.019593e+11 1.643761e+09
-7.008010e+10 8.089967e+10 2.188351e+09
-1.066976e+11 2.488512e+08 -2.075936e+09
4.685111e+10 9.540655e+10 -2.744962e+09
-9.312544e+09 -1.032528e+11 -8.529582e+08
-8.673249e+10 6.266939e+10 -2.154811e+09
7.458214e+10 7.758866e+10 -2.272315e+09
6.684912e+10 8.348892e+10 2.201821e+09
1.878398e+09 1.062726e+11 2.066458e+09
9.538685e+10 4.851740e+10 3.041054e+09
6.147096e+10 8.899056e+10 -2.850897e+09
-9.321581e+10 5.010233e+10 -2.040752e+09
-9.952115e+10 3.654524e+10 2.387293e+09
9.795707e+10 4.379023e+10 -3.003000e+09
7.391201e+10 7.482110e+10 2.375620e+09
4.953598e+10 -9.280307e+10 7.641282e+07
-8.915892e+09 -1.058902e+11 -4.368118e+08
7.936771e+10 7.001347e+10 2.350124e+09
-3.276437e+10 1.017008e+11 2.176014e+09
1.342016e+10 1.038680e+11 -2.519214e+09
-1.017250e+11 -3.121403e+10 -1.813829e+09
-5.364540e+10 9.252827e+10 2.234555e+09
-7.816870e+10 7.050217e+10 2.218139e+09
6.923524e+10 8.258914e+10 -2.010049e+09
8.610277e+10 6.264565e+10 1.832739e+09
-1.036914e+11 1.976044e+10 2.381450e+09
-2.084987e+10 1.032098e+11 -2.224830e+09
-7.757767e+09 -1.035762e+11 -6.264694e+08
-1.009917e+11 3.498734e+10 -2.011475e+09
-1.063349e+11 -1.801960e+10 -3.477975e+09
-9.771108e+10 4.231808e+10 2.535064e+09
-1.036915e+11 -1.816049e+10 2.602782e+09
-1.062679e+11 1.221647e+10 -2.160507e+09
-8.888718e+10 6.150922e+10 1.989964e+09
1.048993e+11 6.213207e+09 4.121283e+08
-1.089349e+11 6.144268e+09 1.520972e+08
-9.311116e+10 5.727003e+10 -4.497990e+07
-1.546983e+10 1.087311e+11 -2.065159e+08
-6.679356e+09 -1.031051e+11 -6.965176e+08
1.041826e+11 3.482269e+10 -1.909372e+08
1.969981e+10 1.058367e+11 -2.244574e+07
-1.062156e+11 -2.567593e+10 1.002758e+08
-1.075582e+11 -8.026599e+09 -5.401443e+07
-8.640724e+10 7.114627e+10 5.461516e+07
-1.020943e+11 3.761193e+10 2.593027e+09
7.218594e+10 8.360506e+10 2.621749e+09
-1.030227e+11 3.478587e+10 -2.570474e+09
9.407905e+10 5.420943e+10 2.550755e+09
-7.274922e+10 8.085728e+10 -2.539761e+09
-4.553543e+09 -1.047729e+11 -3.872246e+08
6.618749e+09 1.084138e+11 2.569788e+09
4.604524e+10 9.821497e+10 -2.611673e+09
5.445499e+10 9.492032e+10 -2.421329e+09
7.671765e+10 7.578378e+10 2.487402e+09
-3.508256e+10 1.040779e+11 -2.797258e+09
8.785563e+10 6.710933e+10 -2.918537e+09
6.641317e+10 8.615150e+10 -2.543600e+09
-1.068894e+11 1.424625e+10 2.540762e+09
-4.764197e+10 9.704043e+10 -5.115973e+07
-8.820238e+10 6.313554e+10 -2.762502e+08
-8.531262e+09 -1.039381e+11 1.276328e+08
-1.071977e+11 2.341810e+10 -1.022155e+08