# vtk DataFile Version 2.0
Electric current density generated by TTH
ASCII
DATASET UNSTRUCTURED_GRID
POINTS 2555 double
-2.183027e-05 1.629235e-05 -3.405626e-22
2.448190e-05 -6.742612e-06 -1.313615e-06
7.639457e-06 2.576635e-05 9.387108e-07
-1.682014e-07 -2.692433e-05 8.811427e-07
6.840492e-06 2.477365e-05 1.382495e-06
1.705664e-05 -1.813164e-05 1.009884e-06
1.705664e-05 1.813164e-05 1.009884e-06
-2.512452e-05 5.921696e-06 -1.389978e-06
2.549102e-05 -8.545063e-06 9.275284e-07
2.549102e-05 8.545063e-06 9.275284e-07
-2.690774e-05 -1.526042e-07 -9.011326e-07
-2.234124e-05 1.558429e-05 -3.405626e-22
6.231858e-06 2.387831e-05 -7.495456e-07
-2.090133e-05 -1.432315e-05 1.293084e-06
-1.728831e-05 -1.868265e-05 -1.333216e-06
-5.190590e-06 2.637891e-05 -9.279649e-07
-1.052411e-05 -2.318198e-05 -1.334569e-06
-2.539411e-05 2.215976e-06 1.343406e-06
7.798077e-06 -2.432840e-05 1.357342e-06
2.334261e-05 -1.094289e-05 1.388742e-06
2.334261e-05 1.094289e-05 1.388742e-06
-1.538009e-05 2.196126e-05 1.003929e-06
-2.282927e-05 1.486021e-05 -3.405626e-22
-1.312105e-05 2.077566e-05 5.498742e-07
-2.425774e-05 -3.178622e-06 1.323556e-07
-2.392967e-05 -5.064434e-06 -5.061614e-08
-4.628983e-06 2.654666e-05 8.531195e-07
-2.678583e-05 2.608993e-06 -8.959116e-07
-6.999578e-06 2.455743e-05 1.354592e-06
-1.735259e-05 2.052883e-05 -9.329994e-07
-1.762414e-05 2.034262e-05 8.927055e-07
-1.298275e-05 -2.143027e-05 1.142047e-06
2.548425e-05 2.737751e-06 -1.373199e-06
-2.329383e-05 1.412086e-05 -3.405626e-22
2.548425e-05 -2.737751e-06 -1.373199e-06
1.719896e-05 2.076105e-05 -8.368100e-07
1.719896e-05 -2.076105e-05 -8.368100e-07
-2.472691e-05 -6.035708e-06 1.332767e-06
-2.690090e-05 7.912839e-07 8.959755e-07
2.577916e-05 8.838962e-07 1.389366e-06
2.585283e-05 -8.690661e-07 1.390333e-06
-2.136800e-05 1.645747e-05 8.214728e-07
-1.900714e-05 -1.632901e-05 1.143426e-06
1.621419e-05 -2.147559e-05 9.000043e-07
-2.373446e-05 1.336700e-05 -3.405626e-22
1.259688e-05 2.378436e-05 -8.939250e-07
-2.678389e-05 -2.780791e-06 8.774636e-07
-2.068408e-05 -1.310759e-05 2.813071e-07
-1.421052e-06 2.551614e-05 1.359109e-06
2.488550e-05 -1.017962e-05 9.253939e-07
2.488550e-05 1.017962e-05 9.253939e-07
2.033771e-05 -1.502465e-05 -1.271094e-06
2.033771e-05 1.502465e-05 -1.271094e-06
-1.113843e-05 2.213862e-05 -8.921170e-07
-2.648369e-05 -1.955546e-06 -1.197564e-06
-2.415070e-05 1.259940e-05 -3.405626e-22
-9.989355e-06 2.345038e-05 1.343071e-06
-2.639811e-05 5.616192e-06 -7.965508e-07
3.515453e-06 -2.494176e-05 1.223313e-06
1.172462e-05 -2.421364e-05 9.072616e-07
-7.863948e-06 -2.575306e-05 8.785649e-07
1.502050e-05 -2.239300e-05 -8.309554e-07
1.502050e-05 2.239300e-05 -8.309554e-07
7.753582e-06 2.319760e-05 2.847995e-08
-2.349726e-05 -1.083334e-05 1.390225e-06
9.762231e-06 -2.411216e-05 -1.380727e-06
-2.454212e-05 1.181886e-05 -3.405626e-22
-6.140326e-06 -2.514232e-05 1.390084e-06
1.157040e-05 -2.315762e-05 -1.389933e-06
9.716112e-06 -2.248463e-05 3.113982e-07
2.421117e-05 -3.579054e-06 -2.069249e-07
2.421117e-05 3.579054e-06 -2.069249e-07
-1.938252e-05 -1.604036e-05 -1.207028e-06
-1.395342e-05 2.300586e-05 9.029195e-07
-1.334332e-05 -2.133184e-05 -1.208345e-06
3.565638e-06 -2.490940e-05 -1.209483e-06
-6.051982e-06 -2.446124e-05 -1.228923e-06
-2.490832e-05 1.102618e-05 -3.405626e-22
2.048547e-05 -1.344189e-05 3.431897e-07
2.048547e-05 1.344189e-05 3.431897e-07
-2.285023e-05 -1.062843e-05 -1.230158e-06
2.308418e-05 -8.117735e-06 -1.755136e-07
2.308418e-05 8.117735e-06 -1.755136e-07
2.259764e-05 1.188520e-05 -1.353908e-06
2.259764e-05 -1.188520e-05 -1.353908e-06
-2.496967e-05 1.005176e-05 8.907078e-07
-2.461192e-05 1.091497e-05 8.826096e-07
-2.556756e-05 8.445924e-06 8.791983e-07
-2.524893e-05 1.022216e-05 -3.405626e-22
1.360283e-05 2.132689e-05 1.275525e-06
6.021948e-06 2.617146e-05 9.597588e-07
9.350347e-06 -2.524312e-05 8.879925e-07
2.027476e-05 -1.782845e-05 7.826501e-07
2.027476e-05 1.782845e-05 7.826501e-07
-2.393902e-05 6.555066e-06 -9.351746e-07
-1.286442e-05 2.372005e-05 8.036104e-07
2.668684e-05 -3.876686e-06 -8.271124e-07
2.668684e-05 3.876686e-06 -8.271124e-07
1.524220e-05 -1.914760e-05 2.021096e-07
-2.556360e-05 9.407640e-06 -3.405626e-22
-2.077452e-06 -2.694286e-05 -7.456952e-07
-1.882858e-05 1.561489e-05 -7.810257e-08
-1.395014e-07 -2.491761e-05 1.032543e-06
-2.201047e-05 1.357752e-05 1.390400e-06
7.719432e-06 2.353203e-05 -8.715283e-07
1.158877e-05 2.290393e-05 1.378699e-06
-2.232170e-05 -1.519326e-05 -7.779074e-07
-2.446200e-05 1.135520e-07 -9.822059e-08
-1.785113e-05 -2.021467e-05 -8.251047e-07
-1.057192e-05 -2.481020e-05 -8.247171e-07
-2.585199e-05 8.583453e-06 -3.405626e-22
-2.444506e-05 -7.772243e-06 1.376232e-06
1.090055e-05 -2.463601e-05 8.625341e-07
-5.957371e-06 2.374582e-05 2.513923e-07
-2.942770e-06 -2.573792e-05 -1.389310e-06
-1.002568e-06 2.446229e-05 2.573907e-07
4.221484e-07 -2.555746e-05 -1.360235e-06
1.506526e-05 2.104503e-05 1.390077e-06
-2.591024e-05 -7.454098e-06 -8.348727e-07
2.170324e-05 1.596960e-05 8.553606e-07
2.170324e-05 -1.596960e-05 8.553606e-07
-2.611382e-05 7.750446e-06 -3.405626e-22
-8.679209e-06 2.299082e-05 -5.553400e-07
2.107257e-05 -1.342545e-05 1.089959e-06
2.107257e-05 1.342545e-05 1.089959e-06
9.037559e-06 2.272887e-05 5.139157e-08
-4.125242e-06 2.433782e-05 7.601268e-07
1.489275e-05 2.244667e-05 8.650623e-07
-2.975515e-06 -2.547284e-05 1.375523e-06
-2.470950e-05 -7.805479e-06 -1.388989e-06
-1.882426e-05 1.926433e-05 8.692377e-07
2.382683e-05 1.256170e-05 -8.681476e-07
-2.634882e-05 6.909474e-06 -3.405626e-22
2.382683e-05 -1.256170e-05 -8.681476e-07
-1.686388e-05 1.921427e-05 1.361127e-06
-2.334358e-05 1.075518e-05 1.382642e-06
8.462745e-06 -2.306691e-05 5.456164e-07
-2.100222e-05 -1.502573e-05 -1.390218e-06
-1.601232e-05 -2.165914e-05 -8.681878e-07
2.472261e-05 2.149480e-06 -9.303229e-07
2.472261e-05 -2.149480e-06 -9.303229e-07
2.384868e-05 -9.244233e-06 -1.363667e-06
2.384868e-05 9.244233e-06 -1.363667e-06
-2.655674e-05 6.061403e-06 -3.405626e-22
2.005968e-05 1.469895e-05 9.858015e-07
2.005968e-05 -1.469895e-05 9.858015e-07
-2.352867e-05 -1.311330e-05 -8.671575e-07
1.061026e-05 2.241776e-05 9.145438e-07
5.927712e-06 -2.626520e-05 -8.799931e-07
-8.376391e-06 -2.560046e-05 -8.673801e-07
-2.267132e-05 9.963730e-06 -8.694815e-07
-2.555855e-05 -8.427918e-06 8.963077e-07
-3.626523e-06 2.524995e-05 -1.348193e-06
1.198838e-05 2.297053e-05 -1.389092e-06
-2.673738e-05 5.207103e-06 -3.405626e-22
-1.227579e-05 2.241089e-05 1.358472e-06
-2.822240e-07 2.695530e-05 8.406703e-07
-2.188221e-05 -1.579143e-05 8.018703e-07
-3.391229e-06 -2.670291e-05 8.901841e-07
-2.263784e-05 9.303519e-06 2.118832e-07
-2.573116e-05 -1.289394e-06 -1.387802e-06
1.781193e-05 1.898457e-05 -1.378354e-06
1.781193e-05 -1.898457e-05 -1.378354e-06
-6.935720e-06 2.374703e-05 -8.372872e-07
-2.432090e-05 -3.988407e-06 6.964076e-07
-2.689053e-05 4.347453e-06 -3.405626e-22
2.590535e-05 -9.325191e-07 -1.388541e-06
2.591261e-05 9.806356e-07 -1.388037e-06
-2.244878e-05 1.227244e-05 1.364992e-06
-2.388101e-05 5.329792e-06 1.643248e-07
2.119052e-05 1.232228e-05 -3.837302e-07
2.119052e-05 -1.232228e-05 -3.837302e-07
9.147232e-06 2.448828e-05 -1.359516e-06
1.286480e-05 2.372424e-05 7.981248e-07
-2.369127e-05 9.353213e-06 1.337945e-06
1.892261e-05 -1.742909e-05 1.384999e-06
-2.701606e-05 3.483335e-06 -3.405626e-22
1.892261e-05 1.742909e-05 1.384999e-06
-8.426653e-06 2.558087e-05 8.710392e-07
2.368034e-05 -7.015911e-06 -7.794407e-07
2.368034e-05 7.015911e-06 -7.794407e-07
1.073863e-06 -2.460813e-05 6.712559e-07
-5.338183e-06 2.402483e-05 -6.320330e-07
1.126841e-05 -2.454638e-05 -7.665909e-07
1.325717e-05 -2.345424e-05 8.602036e-07
1.194127e-05 2.145383e-05 5.036615e-07
-9.673048e-06 -2.306238e-05 -1.107719e-06
-2.711383e-05 2.615638e-06 -3.405626e-22
-2.666633e-05 4.038298e-06 -8.224563e-07
-2.555364e-05 -3.217416e-06 -1.387281e-06
-3.506885e-07 -2.698601e-05 -7.974567e-07
1.777356e-05 -1.680284e-05 -1.090607e-08
1.777356e-05 1.680284e-05 -1.090607e-08
-5.701218e-07 -2.445250e-05 -3.141968e-08
1.169624e-05 -2.298640e-05 1.389232e-06
-1.815315e-06 -2.689083e-05 8.468837e-07
-1.644036e-05 -1.884560e-05 -1.107730e-06
2.324301e-06 -2.437059e-05 -2.485051e-07
-2.718373e-05 1.745253e-06 -3.405626e-22
6.015782e-06 2.519892e-05 1.389250e-06
4.896006e-06 2.652065e-05 8.246086e-07
-5.590292e-06 -2.643914e-05 7.443412e-07
-2.488307e-05 -1.054132e-05 7.441307e-07
-2.358953e-05 -6.556293e-06 -2.619206e-07
1.319643e-05 -2.104361e-05 -9.554579e-07
3.603426e-06 -2.666135e-05 9.062923e-07
-1.092115e-05 -2.193789e-05 3.591101e-07
5.520006e-06 -2.508806e-05 -1.381089e-06
2.357344e-05 -6.523936e-06 4.549083e-08
-2.722570e-05 8.730753e-07 -3.405626e-22
2.357344e-05 6.523936e-06 4.549083e-08
-1.727590e-05 -1.738560e-05 3.720941e-07
-1.941084e-06 -2.440250e-05 -2.394975e-07
4.450029e-06 2.514238e-05 1.354048e-06
-1.687364e-05 1.994907e-05 -1.362174e-06
-2.453365e-05 -4.163857e-06 -1.001295e-06
2.554768e-05 -8.812496e-06 -7.424620e-07
2.554768e-05 8.812496e-06 -7.424620e-07
-1.509311e-05 -2.101906e-05 -1.390181e-06
-1.211448e-05 -2.124811e-05 -2.435209e-08
-2.723970e-05 1.484982e-19 -3.405626e-22
-1.818898e-05 -1.635236e-05 -1.815327e-08
2.136264e-05 1.431371e-05 1.383926e-06
2.136264e-05 -1.431371e-05 1.383926e-06
1.724973e-05 -1.764214e-05 -7.428173e-07
1.724973e-05 1.764214e-05 -7.428173e-07
-7.695679e-06 -2.474014e-05 -1.389150e-06
-2.492215e-05 -8.142570e-07 1.048013e-06
-1.667942e-05 1.822587e-05 7.913885e-07
-2.281264e-05 -1.228690e-05 -1.389076e-06
1.356536e-05 -2.334154e-05 -7.846472e-07
-2.722570e-05 -8.730753e-07 -3.405626e-22
1.356536e-05 2.334154e-05 -7.846472e-07
9.262915e-06 -2.410680e-05 1.390244e-06
2.457720e-05 2.009455e-06 7.191515e-07
2.457720e-05 -2.009455e-06 7.191515e-07
2.027203e-06 2.586347e-05 -1.387302e-06
2.182908e-05 -1.109878e-05 -2.863644e-07
2.182908e-05 1.109878e-05 -2.863644e-07
1.249907e-05 -2.269184e-05 1.389273e-06
1.307689e-05 -2.208101e-05 -1.377887e-06
2.466541e-05 1.088425e-05 8.362232e-07
-2.718373e-05 -1.745253e-06 -3.405626e-22
[...]
POINT_DATA 2555
VECTORS 10.000GHz_fone_imag double
1.206603e+10 1.664056e+10 -1.968772e+08
-6.773355e+09 -2.550075e+10 1.263384e+08
2.078250e+10 -5.534023e+09 -6.304777e+08
-2.163316e+10 1.009880e+09 -1.134624e+09
2.454754e+10 -5.555715e+09 1.894012e+09
-2.253688e+10 -1.962522e+10 -1.003558e+09
2.153245e+10 -2.073138e+10 -2.189565e+08
6.908925e+09 2.532576e+10 -2.399772e+08
-6.348397e+09 -2.038244e+10 1.025355e+09
6.348842e+09 -2.038490e+10 -1.025040e+09
-9.208029e+08 2.156624e+10 -2.361951e+08
1.220461e+10 1.642799e+10 -1.562229e+08
3.052147e+10 -8.642251e+09 1.105511e+09
-1.691411e+10 2.262170e+10 9.215148e+08
-1.939386e+10 1.850574e+10 1.029881e+09
2.248362e+10 4.454795e+09 1.648065e+08
-2.543525e+10 1.087169e+10 -6.828088e+07
2.661429e+09 2.725576e+10 3.970329e+08
-2.573148e+10 -8.568314e+09 -8.047314e+08
-1.023293e+10 -2.331313e+10 -1.135468e+09
1.023444e+10 -2.331447e+10 1.134982e+09
1.822153e+10 1.176494e+10 -9.450418e+08
1.220155e+10 1.817233e+10 -1.896277e+08
2.489945e+10 1.675169e+10 -4.287092e+08
-4.526145e+09 3.521557e+10 8.298500e+08
-6.566123e+09 3.303207e+10 4.693188e+08
2.085408e+10 3.653817e+09 5.120318e+07
2.543116e+09 2.107203e+10 -5.906217e+08
2.446742e+10 7.552489e+09 -5.500145e+06
2.010781e+10 1.596930e+10 -6.241962e+08
1.906837e+10 1.697719e+10 -1.443800e+09
-2.442853e+10 1.507279e+10 1.054127e+09
1.383434e+09 -2.751080e+10 4.048065e+08
9.092796e+09 1.813695e+10 4.129815e+07
-1.392674e+09 -2.750275e+10 -4.057936e+08
1.604835e+10 -1.368937e+10 1.902341e+09
-1.538376e+10 -1.359543e+10 -1.636236e+09
-6.195373e+09 2.610032e+10 -2.914737e+08
4.154734e+07 2.044622e+10 1.054316e+09
-3.429133e+07 -2.658108e+10 5.105603e+08
7.159786e+07 -2.651044e+10 -6.138930e+08
1.350424e+10 1.660897e+10 -1.469543e+08
-1.784811e+10 2.232838e+10 1.144641e+09
-1.861932e+10 -1.495175e+10 -1.748804e+08
1.022531e+10 1.680135e+10 -2.843078e+08
1.994246e+10 -1.135327e+10 1.024375e+08
-2.891261e+09 2.096780e+10 -5.191705e+08
-1.697616e+10 2.655215e+10 -1.714164e+08
2.924449e+10 9.155829e+08 -1.742394e+08
-8.288286e+09 -2.195138e+10 3.734310e+08
8.288892e+09 -2.195288e+10 -3.734375e+08
-1.541897e+10 -2.281787e+10 1.319005e+09
1.541614e+10 -2.280870e+10 -1.321826e+09
2.616933e+10 1.362151e+10 -7.180265e+08
-2.361798e+09 2.218789e+10 5.475209e+08
1.251785e+10 1.968839e+10 -1.968605e+08
2.588052e+10 1.013785e+10 8.039513e+08
4.581845e+09 2.046932e+10 -2.002828e+08
-2.738378e+10 -3.313074e+09 7.804193e+08
-1.887065e+10 -1.035785e+10 8.210886e+08
-2.160054e+10 5.758574e+09 1.670430e+09
-1.722217e+10 -1.228333e+10 1.441480e+07
1.670665e+10 -1.312285e+10 -2.521243e+08
2.832312e+10 -1.130403e+10 9.589439e+08
-1.054064e+10 2.323674e+10 5.651688e+07
-2.222644e+10 -8.843541e+09 -5.167328e+08
1.340518e+10 2.672716e+10 1.355253e+09
-2.442989e+10 6.189896e+09 -2.001955e+08
-2.223231e+10 -1.264044e+10 1.857501e+08
-2.899627e+10 -1.211197e+10 4.284158e+08
-4.353160e+09 -3.127239e+10 3.947062e+08
4.351664e+09 -3.127839e+10 -3.961330e+08
-1.741241e+10 2.088097e+10 1.087043e+09
1.799428e+10 1.048407e+10 -1.077062e+08
-2.312446e+10 1.407670e+10 1.773149e+09
-2.715162e+10 -2.924140e+09 -8.384488e+08
-2.645662e+10 7.401068e+09 1.363944e+09
1.065513e+10 2.559875e+10 1.319129e+08
-1.670014e+10 -2.515785e+10 9.458392e+08
1.670140e+10 -2.516032e+10 -9.477127e+08
-1.249177e+10 2.532837e+10 -6.378888e+08
-1.036897e+10 -2.909809e+10 -3.620746e+08
1.036971e+10 -2.910036e+10 3.611525e+08
1.254013e+10 -2.366056e+10 5.320147e+07
-1.253854e+10 -2.366017e+10 -5.325449e+07
8.123271e+09 2.316359e+10 -5.176079e+08
1.242455e+10 2.734588e+10 1.401528e+09
8.239283e+09 2.007360e+10 -1.183451e+09
1.129062e+10 2.664333e+10 5.629357e+07
2.228492e+10 -1.574855e+10 2.675618e+08
2.174406e+10 -4.648865e+09 2.932765e+08
-1.985677e+10 -7.841129e+09 -1.413692e+09
-1.508861e+10 -1.739583e+10 3.805878e+08
1.516584e+10 -1.740768e+10 -4.539879e+08
6.842701e+09 2.798781e+10 -2.877778e+08
1.965876e+10 9.560545e+09 1.176662e+09
-3.622246e+09 -2.059380e+10 -1.132862e+08
3.618851e+09 -2.058931e+10 1.101404e+08
-2.346123e+10 -1.991576e+10 1.988846e+08
5.850173e+09 2.034798e+10 7.578107e+08
-2.029874e+10 1.456052e+09 -1.065624e+07
2.056220e+10 2.225278e+10 -2.152545e+08
-2.861874e+10 1.388290e+09 4.354660e+07
1.279880e+10 2.054849e+10 6.394386e+08
2.783892e+10 -9.783969e+09 -1.364422e+08
2.319684e+10 -1.126477e+10 8.067362e+08
-1.049147e+10 1.813344e+10 1.027017e+09
-8.900399e+08 3.119984e+10 4.535420e+08
-1.697541e+10 1.368897e+10 -4.824409e+08
-2.041084e+10 8.531450e+09 1.009309e+09
7.115828e+09 1.924322e+10 2.395867e+08
-8.628873e+09 2.486145e+10 -3.400311e+08
-2.170378e+10 -9.309477e+09 9.476149e+07
3.230403e+10 7.996650e+09 1.894000e+09
-2.434788e+10 2.780088e+09 -4.065469e+08
3.185372e+10 6.430694e+08 -1.743179e+07
-2.643799e+10 -1.023010e+09 -7.975297e+08
2.049617e+10 -1.434348e+10 2.093602e+08
-5.691500e+09 2.021326e+10 -1.099712e+09
1.325312e+10 -1.698654e+10 5.070999e+08
-1.324873e+10 -1.698772e+10 -5.112498e+08
5.738356e+09 2.095012e+10 7.632857e+08
3.146083e+10 1.100688e+10 3.192155e+08
-1.527441e+10 -2.383063e+10 -8.990557e+08
1.527537e+10 -2.383589e+10 8.987591e+08
2.878020e+10 -1.113725e+10 4.044735e+08
2.969887e+10 4.442632e+09 -6.163429e+06
1.735163e+10 -1.255817e+10 -3.672929e+08
-2.603650e+10 2.908583e+09 -1.419358e+08
-7.694262e+09 2.369666e+10 9.420207e+08
1.542115e+10 1.399482e+10 5.022392e+08
9.484958e+09 -1.868868e+10 4.898237e+08
5.334120e+09 2.007671e+10 6.647696e+08
-9.479298e+09 -1.869609e+10 -4.789126e+08
2.093321e+10 1.640102e+10 -2.509930e+07
8.979939e+09 2.606110e+10 1.439357e+09
-2.859006e+10 -1.131866e+10 1.631548e+09
-1.421957e+10 2.238902e+10 2.460890e+08
-1.692797e+10 1.439959e+10 1.683851e+09
2.430095e+09 -3.334565e+10 -2.267162e+07
-2.441483e+09 -3.329227e+10 2.847357e+07
-8.957086e+09 -2.292693e+10 -7.915877e+08
8.954565e+09 -2.292217e+10 7.906475e+08
3.791340e+09 1.955838e+10 5.709940e+08
1.670716e+10 -2.266501e+10 2.322937e+07
-1.668462e+10 -2.264837e+10 -2.448921e+07
-1.076386e+10 1.926199e+10 -8.449287e+08
2.875408e+10 -1.306366e+10 -2.240364e+08
-2.098583e+10 -3.854525e+09 4.294463e+08
-2.021101e+10 6.019050e+09 1.293275e+09
1.309224e+10 3.283204e+10 -1.757659e+09
-7.208123e+09 2.008595e+10 1.635474e+09
2.871732e+10 2.973273e+09 7.256211e+08
2.195753e+10 -1.237773e+10 5.226560e+08
4.789201e+09 2.019976e+10 -4.627174e+08
2.363948e+10 1.226498e+10 3.713536e+08
2.260419e+10 8.910282e+08 3.075633e+09
-1.195099e+10 1.809365e+10 7.944188e+08
-2.097499e+10 3.051547e+09 -1.442677e+09
1.521853e+10 3.294960e+10 -1.292619e+08
-1.555822e+09 2.556086e+10 -5.111191e+08
1.760301e+10 -1.758552e+10 -2.521646e+08
-1.730439e+10 -1.747459e+10 2.033119e+08
2.773148e+10 7.207479e+09 -9.383677e+08
-5.173762e+09 2.900104e+10 -8.386714e+08
3.985889e+09 2.048738e+10 -1.783692e+08
-1.743002e+09 -2.819536e+10 8.350159e+07
6.552747e+08 -2.728415e+10 6.983005e+07
1.181498e+10 2.306978e+10 -2.938656e+08
7.310133e+09 3.240955e+10 1.695268e+09
1.704894e+10 -2.767908e+10 3.402071e+08
-1.704776e+10 -2.767747e+10 -3.409199e+08
2.416953e+10 -8.672418e+09 5.556268e+08
1.858066e+10 -1.085050e+10 1.121450e+09
8.556983e+09 2.510701e+10 1.339253e+09
-1.706369e+10 -1.808616e+10 -4.202256e+07
2.662066e+09 2.134901e+10 -1.874619e+08
1.758499e+10 -1.892333e+10 -2.662410e+08
2.502431e+10 5.611998e+09 3.075816e+08
-9.025129e+09 -2.789309e+10 -5.106407e+08
9.025625e+09 -2.789452e+10 5.096532e+08
-3.001903e+10 -2.236604e+09 9.142602e+08
3.051504e+10 6.696359e+09 -1.069542e+09
-2.003088e+10 -8.620003e+09 2.129953e+08
-2.000616e+10 -1.177294e+10 -1.827427e+08
2.653997e+10 -1.639647e+10 -1.323448e+09
-2.638086e+10 1.126226e+10 7.704117e+08
1.633299e+09 2.080245e+10 -3.406578e+08
3.150515e+09 2.108922e+10 1.002947e+09
-3.711192e+09 2.680008e+10 2.126553e+09
-2.409250e+10 -1.153243e+08 6.758255e+08
-2.256876e+10 -2.358496e+10 1.124956e+09
2.230655e+10 -2.330971e+10 -1.305632e+09
-3.299373e+10 4.415643e+08 1.505474e+09
-2.470887e+10 -1.100382e+10 4.232677e+08
-2.090362e+10 7.240366e+08 8.429218e+08
-2.110133e+10 1.971370e+10 6.484905e+08
-2.998107e+10 -2.837290e+09 -2.782932e+08
1.511438e+09 2.057745e+10 -1.942370e+09
2.347984e+10 -6.039450e+09 5.844727e+07
2.246985e+10 -4.723125e+09 2.860837e+08
-2.060251e+10 4.375091e+09 4.043337e+08
-7.687236e+09 1.904632e+10 4.867260e+08
-8.220987e+09 2.974255e+10 -1.068470e+09
-2.577951e+10 -1.670651e+10 -4.465774e+08
-2.170222e+10 -2.990560e+09 -4.386005e+07
-2.841458e+10 1.393327e+10 8.915056e+08
-2.648676e+10 -6.087430e+09 7.093831e+07
-7.440063e+09 -3.010716e+10 3.655501e+08
-4.415867e+08 2.004013e+10 -6.372099e+08
7.440692e+09 -3.010817e+10 -3.658443e+08
-2.112755e+10 2.203222e+10 -2.368964e+08
-3.108900e+10 1.313501e+09 -2.765050e+08
2.731773e+10 -4.793393e+09 -4.199822e+07
2.149058e+10 1.854784e+10 -4.164784e+08
-4.223828e+09 2.837768e+10 -9.367582e+08
-7.093956e+09 -1.998225e+10 1.395128e+08
7.092794e+09 -1.998151e+10 -1.398108e+08
-2.015209e+10 1.609503e+10 -7.584271e+08
-2.759204e+10 1.604943e+10 -4.889029e+08
-7.958273e+07 2.011824e+10 2.931460e+08
-2.072824e+10 2.344141e+10 -7.692237e+08
1.396415e+10 -2.099782e+10 7.771344e+08
-1.396110e+10 -2.099629e+10 -7.772992e+08
-2.047448e+10 -2.100113e+10 1.691299e+09
2.111592e+10 -2.133172e+10 -1.115252e+09
-2.645268e+10 9.445835e+09 -1.356431e+08
-9.289792e+08 2.814436e+10 -1.592658e+09
2.443689e+10 2.253916e+10 2.090493e+08
-1.257327e+10 2.167621e+10 -1.263651e+08
-1.852419e+10 -1.028106e+10 3.815954e+08
2.477146e+08 2.037155e+10 -1.508512e+08
1.920128e+10 -1.054993e+10 -7.808732e+08
-2.552929e+10 -9.263026e+09 1.370224e+08
2.547652e+09 -3.025243e+10 2.539494e+09
-2.564755e+09 -3.019229e+10 -2.569621e+09
2.695719e+10 -2.710619e+09 5.857460e+08
-1.286661e+10 -2.910204e+10 4.277177e+08
1.286660e+10 -2.910164e+10 -4.279103e+08
-2.210343e+10 -1.163596e+10 1.116573e+09
-2.223179e+10 -1.412503e+10 -5.479175e+08
9.744342e+09 -2.216287e+10 4.960981e+08
-1.322772e+09 2.116790e+10 9.771200e+08
-9.742146e+09 -2.216181e+10 -4.980204e+08
9.880192e+09 -2.378447e+10 -3.433309e+08
-9.880574e+09 -2.378069e+10 3.435060e+08
1.063083e+10 2.671094e+10 -5.303277e+08
-9.874018e+09 -2.042718e+10 -1.161903e+09
9.873545e+09 -2.042739e+10 1.162134e+09
1.501177e+10 -1.536626e+10 1.132720e+07
-1.548971e+10 -1.585561e+10 -4.250947e+07
2.114236e+10 3.733687e+09 -1.899604e+08
1.766000e+10 2.212003e+10 -1.265092e+05
-1.971684e+09 2.039407e+10 8.928153e+08
2.586235e+10 -1.070539e+10 -3.126211e+08
2.003711e+10 -6.984115e+09 1.613359e+08
2.057946e+10 8.876102e+09 1.018145e+09
-8.630306e+09 2.916532e+10 7.915119e+08
-2.077792e+10 -7.486744e+09 4.179988e+08
1.332789e+10 -2.907270e+10 -1.050267e+09
-1.332708e+10 -2.907200e+10 1.051207e+09
2.831995e+10 -1.416652e+10 1.097742e+08
2.320801e+10 1.051935e+10 -2.075583e+09
-1.672142e+10 1.303784e+10 1.368024e+09
-1.919370e+09 2.136273e+10 5.461639e+08
-2.561440e+10 -1.562442e+10 -1.013453e+09
4.108274e+09 2.252395e+10 -1.063191e+09
-2.134690e+10 -4.212403e+09 -6.153580e+08
2.215415e+10 1.113348e+10 -4.971970e+08
2.644420e+10 -1.989709e+10 -2.798846e+08
-1.299260e+09 -2.651435e+10 -1.743122e+09
1.330193e+09 -2.644277e+10 1.711861e+09
2.468352e+10 3.076228e+09 8.056842e+08
-1.590452e+10 -1.980720e+10 3.852529e+08
1.593670e+10 -1.985794e+10 -3.966156e+08
-3.094415e+09 2.294422e+10 9.107182e+08
-8.502103e+09 2.059567e+10 -8.168979e+08
-3.173075e+10 4.614599e+09 -1.165020e+08
5.890805e+09 -2.005019e+10 1.128125e+09
-5.890898e+09 -2.005097e+10 -1.128378e+09
2.141993e+10 -5.612198e+09 1.385697e+09
1.148642e+10 3.083593e+10 -8.671577e+08
7.343789e+09 2.965371e+10 -1.812995e+08
-3.080472e+09 -2.174515e+10 3.806722e+08
3.079691e+09 -2.174449e+10 -3.803235e+08
-2.054204e+10 1.396540e+10 -1.236265e+09
-4.746768e+09 2.006430e+10 -2.663283e+08
2.267171e+10 -1.749839e+10 7.226095e+08
-1.953273e+10 1.147169e+10 3.370804e+08
2.561339e+10 2.989758e+09 -1.593237e+09
-2.813976e+10 -1.361216e+10 7.077452e+08
-2.716591e+10 -9.520802e+09 9.567776e+08
-1.649652e+10 1.719512e+10 5.141866e+08
2.517189e+09 2.180042e+10 3.086836e+08
1.689670e+10 1.912373e+10 -9.782609e+07
-1.487155e+10 1.568062e+10 -5.354421e+08
-4.914326e+09 2.147985e+10 5.734300e+08
-4.678748e+09 1.960260e+10 1.618055e+09
-2.205015e+10 -2.965880e+09 -3.898992e+08
-2.377911e+10 5.373423e+09 4.534676e+08
-2.509377e+10 8.321866e+09 -8.511760e+07
-1.289249e+10 2.332693e+10 3.405837e+07
1.802431e+10 1.668489e+10 -7.479319e+08
2.294531e+10 -1.786596e+10 -9.925529e+08
-2.415388e+10 8.089389e+09 -1.271421e+09
2.897003e+10 1.073168e+10 -3.205665e+07
1.685609e+10 -1.395370e+10 4.544894e+08
-1.091000e+10 2.536320e+10 -7.903215e+08
-4.797502e+09 1.981253e+10 -7.880491e+08
1.602066e+10 -1.426120e+10 4.584596e+08
-1.586188e+10 -1.399750e+10 -6.939769e+08
2.908666e+10 8.405425e+08 1.244863e+09
-5.934899e+09 -2.843657e+10 -6.169226e+08
5.934891e+09 -2.843825e+10 6.164465e+08
-9.152531e+09 2.711087e+10 -6.268345e+08
-2.487391e+10 -4.500965e+09 8.782468e+07
1.669334e+10 2.493509e+10 5.275166e+08
8.144444e+09 -2.473399e+10 -3.708220e+08
-8.144172e+09 -2.473741e+10 3.699675e+08
-5.622018e+09 2.048883e+10 7.417945e+08
-1.890384e+10 8.302443e+09 -1.059952e+09
8.875438e+09 -1.995595e+10 -1.978486e+09
-8.875498e+09 -1.995823e+10 1.978838e+09
2.934829e+10 1.088642e+09 7.569900e+08
2.264953e+10 -1.247851e+09 9.854571e+08
2.094841e+10 -3.273178e+09 -1.078143e+09
1.074030e+10 1.764878e+10 -8.737139e+08
-2.691086e+10 -1.649892e+10 3.546585e+08
4.710670e+09 2.791958e+10 -7.943996e+07
-2.186661e+10 -2.231603e+09 1.302309e+09
-7.175139e+09 1.921933e+10 6.659002e+08
3.086041e+09 2.380656e+10 5.935563e+08
-1.101173e+10 -2.709597e+10 5.588651e+08
1.101464e+10 -2.709477e+10 -5.581436e+08
-6.749940e+09 2.315327e+10 -7.371694e+08
1.344239e+09 2.491601e+10 6.723893e+08
-8.515499e+09 -2.619678e+10 2.715451e+08
8.515008e+09 -2.619709e+10 -2.718350e+08
1.112771e+10 1.793462e+10 3.890334e+08
-2.928013e+10 -5.792783e+09 2.162600e+08
-2.765295e+10 9.749681e+09 -5.761234e+08
-7.568620e+09 1.961672e+10 3.602471e+08
-2.358780e+10 -1.336197e+10 -3.715549e+08
1.023414e+09 -2.471767e+10 8.180431e+08
-1.004747e+09 -2.473232e+10 -8.374223e+08
1.903973e+10 1.380922e+10 -9.773186e+08
-1.271311e+10 -1.713301e+10 1.558523e+08
1.270922e+10 -1.712960e+10 -1.591872e+08
1.495436e+10 1.484335e+10 5.765568e+07
-2.920434e+10 2.432367e+09 1.229047e+09
1.914414e+10 1.825072e+10 1.083062e+09
2.861089e+10 -2.038039e+09 -2.176344e+09
-7.701945e+09 1.877400e+10 -1.045333e+07
-3.382955e+09 3.017626e+10 -1.852289e+08
-5.727084e+09 2.298513e+10 8.250533e+08
-2.480346e+10 1.847721e+10 5.307505e+08
1.446001e+10 -3.312009e+10 1.370342e+08
-1.446075e+10 -3.312098e+10 -1.368533e+08
1.079059e+10 -1.822953e+10 1.066012e+09
-1.078428e+10 -1.823126e+10 -1.075992e+09
-1.001812e+10 1.838415e+10 -1.169907e+09
3.229888e+10 -7.945476e+09 1.538723e+09
-1.272261e+10 2.783142e+10 1.385810e+09
-8.489177e+09 1.853014e+10 2.745342e+08
-1.130237e+10 1.845595e+10 6.855424e+08
-1.637713e+10 1.932451e+10 -1.757181e+09
-1.343075e+10 2.206214e+10 3.113897e+08
-2.073136e+10 -1.521353e+10 -8.068600e+08
2.105062e+10 -1.457052e+10 5.953174e+08
1.776394e+10 2.333749e+10 -5.209071e+08
1.006696e+10 1.837495e+10 -2.197891e+08
1.832122e+10 1.888882e+10 2.068998e+08
-2.967673e+10 7.114865e+09 -1.510036e+08
1.804499e+10 1.116451e+10 -3.353660e+08
-8.380443e+09 1.881046e+10 -1.385370e+08
-2.012264e+10 -1.955428e+10 -3.618792e+07
1.991946e+10 -1.949464e+10 -9.487902e+08
-2.864840e+10 9.705552e+09 9.396800e+08
7.657865e+09 -2.175037e+10 1.084773e+09
-7.658750e+09 -2.175117e+10 -1.084470e+09
-1.812753e+10 2.660611e+10 -5.597295e+08
2.703546e+10 -1.441973e+10 -1.451043e+08
-2.338658e+10 -1.235632e+10 -3.777606e+08
-1.450946e+10 2.777348e+10 -3.851655e+08
-1.865789e+10 -1.008405e+10 -1.482260e+08
-9.324017e+09 1.818765e+10 -6.626443e+08
1.804779e+10 1.735645e+10 3.191919e+08
2.669851e+10 -1.912126e+10 7.746298e+08
-1.569334e+10 2.695463e+10 4.801200e+08
1.637895e+10 -1.969073e+10 4.506302e+08
-1.639760e+10 -1.970587e+10 -4.525258e+08
-2.566815e+10 -1.146252e+10 -1.608070e+09
2.936485e+10 -7.214078e+09 -1.669476e+09
-1.450276e+10 1.735145e+10 2.953849e+06
1.977476e+10 -4.200007e+09 7.185022e+08
2.074974e+10 -1.163694e+10 4.066332e+08
-1.038600e+10 1.912489e+10 -1.852349e+09
-2.769440e+10 -9.475659e+09 -7.369026e+08
-1.793816e+10 1.851757e+10 5.076240e+08
2.119841e+10 2.074889e+09 -9.062004e+08
-1.333396e+10 -2.260208e+10 -1.797481e+08
1.334235e+10 -2.260770e+10 1.792405e+08
-2.364767e+10 1.462225e+09 -2.023740e+08
1.359676e+10 -1.647506e+10 -3.450033e+08
-1.357325e+10 -1.646665e+10 3.118693e+08
1.572592e+10 1.561997e+10 1.727952e+08
2.120015e+10 -1.998050e+09 1.488566e+09
-1.175588e+10 1.684616e+10 -4.119651e+08
4.979181e+09 -2.603205e+10 -4.578585e+08
-4.977848e+09 -2.603355e+10 4.582239e+08
2.422613e+10 2.789866e+09 5.787879e+08
-1.113271e+10 2.140723e+10 7.102443e+08
-2.490466e+10 1.731639e+10 -1.408531e+09
-9.383457e+09 -2.792090e+10 6.404921e+07
9.383622e+09 -2.792006e+10 -6.524869e+07
2.492241e+09 3.228808e+10 1.310333e+09
1.972886e+10 6.570150e+09 1.156326e+09
1.813037e+09 -2.089258e+10 -4.445291e+08
-9.885486e+09 1.679553e+10 -2.562422e+08
-1.892791e+09 -2.095950e+10 3.576040e+08
-1.691434e+10 1.411929e+10 -1.842268e+08
-2.346353e+10 1.281040e+10 1.166028e+09
1.269471e+10 2.031030e+10 -8.490090e+08
2.355221e+10 8.775497e+09 5.706790e+08
3.871571e+09 2.075036e+10 4.070395e+07
1.870911e+10 1.218569e+10 1.490711e+08
2.102915e+10 -2.759786e+09 -4.489658e+08
-3.179787e+09 2.308293e+10 2.747446e+08
2.774153e+10 9.331373e+09 4.961538e+08
-1.139792e+10 1.840722e+10 8.605274e+08
-1.533262e+10 1.573324e+10 2.080592e+08
-2.200943e+10 2.578299e+09 1.277759e+09
-1.885333e+10 9.737179e+09 -1.649826e+08
-8.953426e+07 3.006411e+10 -6.083642e+08
3.041431e+09 3.019039e+10 6.600826e+08
-3.009916e+10 -5.063363e+09 1.739874e+08
3.066447e+10 -4.252797e+09 3.127899e+08
-2.621565e+10 3.879413e+09 1.554812e+07
2.257286e+10 2.104001e+10 1.357101e+09
-7.955518e+08 2.530092e+10 1.190852e+09
-1.359566e+10 1.864759e+10 -1.054135e+09
-3.175482e+10 -3.007516e+09 8.342250e+08
2.370458e+10 1.753731e+10 -8.680333e+08
1.398923e+10 -2.030590e+10 -5.841190e+08
-1.399405e+10 -2.030736e+10 5.831508e+08
1.781008e+08 2.817502e+10 2.409035e+08
-7.396724e+09 2.100982e+10 -2.345134e+08
-1.987603e+10 2.533697e+10 -5.699679e+08
-5.010620e+09 3.219322e+10 -4.933660e+08
-6.561382e+09 2.082344e+10 -1.643185e+09
2.001309e+10 1.104941e+10 -1.303676e+09
-1.375631e+10 1.645778e+10 -1.937508e+09
-1.577365e+10 2.120285e+10 -8.158137e+08
-1.380886e+10 -2.694939e+10 -1.929521e+09
1.380829e+10 -2.694983e+10 1.929692e+09
1.302541e+10 2.188591e+10 -9.971360e+08
-1.992583e+10 -6.941142e+09 4.688494e+08
1.855019e+10 2.378290e+10 -6.511320e+08
-4.903884e+09 -2.251956e+10 9.230221e+08
4.902968e+09 -2.251719e+10 -9.222512e+08
2.295715e+10 9.128266e+09 6.281068e+07
1.029555e+10 2.523341e+10 1.930345e+07
-1.412925e+10 1.550125e+10 3.325561e+08
-2.749543e+10 9.737397e+09 2.486956e+09
2.970318e+10 3.610834e+09 -1.176320e+08
-2.430611e+10 1.725592e+10 -8.714331e+08
-2.593410e+10 9.923276e+09 -8.660837e+08
1.584574e+10 -1.998840e+10 -5.582553e+08
-1.582579e+10 -1.998089e+10 5.513247e+08
1.928150e+10 -1.400617e+10 3.514878e+07
-1.980197e+10 -1.315702e+10 1.310297e+09
-1.669575e+10 2.510139e+10 -7.976652e+08
-1.545105e+10 -1.428398e+10 -7.503023e+08
-1.350438e+10 1.562138e+10 -1.253813e+09
1.608385e+10 -1.360923e+10 -6.418179e+08
-1.203235e+10 1.715698e+10 1.937502e+08
3.236354e+10 -4.114875e+09 6.187163e+08
2.141721e+10 9.675411e+09 3.327086e+08
-2.924637e+10 -3.395089e+09 7.795871e+07
2.040271e+10 5.747569e+09 1.156807e+08
-3.334025e+10 -7.078672e+08 -5.024656e+09
7.899828e+09 2.279381e+10 2.931174e+08
-2.085493e+10 -2.030201e+10 -1.383336e+09
2.066748e+10 -2.016097e+10 1.182713e+09
-1.418175e+10 1.558025e+10 -3.128635e+07
3.085120e+10 -7.203397e+09 9.730110e+08
2.465806e+10 -3.496871e+09 -1.412426e+08
-1.013778e+10 2.489166e+10 5.558992e+08
1.516420e+10 1.662733e+10 -2.011814e+07
1.198886e+10 1.805981e+10 -2.643831e+08
-1.753782e+10 -1.219816e+10 -4.716319e+07
2.556058e+10 -4.572342e+09 9.011038e+08