# vtk DataFile Version 2.0
Electric current density generated by TTH
ASCII
DATASET UNSTRUCTURED_GRID
POINTS 11271 double
3.402162e-05 2.259408e-05 -1.197569e-22
-3.524076e-05 -1.863167e-05 -8.717333e-09
-4.029029e-06 -4.034151e-05 4.503304e-07
-3.259493e-05 2.328644e-05 -3.912756e-07
-5.273577e-06 3.970576e-05 3.881565e-07
-1.831749e-05 3.570870e-05 4.371772e-07
-1.276224e-05 -3.804697e-05 -4.359500e-07
-1.558304e-05 -3.698128e-05 -4.359495e-07
-1.696143e-05 -3.636971e-05 4.359495e-07
-1.418265e-05 -3.754063e-05 4.359495e-07
-2.039652e-05 3.456051e-05 4.359532e-07
-4.795841e-06 -3.984279e-05 -4.359592e-07
-3.594326e-05 -1.723810e-05 -1.795486e-08
-4.004710e-05 -1.949384e-06 4.158040e-07
-3.967178e-05 -8.396826e-06 4.466552e-07
-2.119305e-05 -3.454410e-05 4.564495e-07
3.968681e-05 -5.271744e-06 -3.728153e-07
3.968681e-05 5.271744e-06 3.728153e-07
-3.993910e-05 -2.791316e-07 -2.637877e-07
4.673825e-06 3.967119e-05 2.721583e-07
-3.840217e-05 -1.205044e-05 -4.779107e-07
4.965486e-06 -3.959278e-05 -1.939750e-07
-2.293360e-05 3.375250e-05 1.793280e-07
-3.675991e-05 -1.566993e-05 -2.931680e-07
-1.287098e-05 3.772866e-05 2.924239e-08
-1.585152e-06 3.993105e-05 2.958787e-07
1.397393e-05 -3.834324e-05 -1.699066e-07
1.157976e-05 3.911656e-05 2.073495e-07
1.847278e-05 3.638999e-05 1.699066e-07
2.270482e-05 3.391115e-05 1.699066e-07
-3.515743e-05 2.016129e-05 -4.560601e-07
-6.288777e-06 -3.963348e-05 4.354133e-07
-1.696127e-05 3.636863e-05 -4.354133e-07
-1.971685e-05 -3.495294e-05 -4.360513e-07
-3.776674e-05 -1.376383e-05 -4.636849e-07
-8.401111e-06 3.924007e-05 -4.354128e-07
-3.534191e-05 1.901075e-05 4.360334e-07
-1.350382e-05 3.779036e-05 -4.360660e-07
-3.596588e-05 -1.928938e-05 1.648767e-07
-3.953986e-05 1.009726e-05 1.738199e-07
-2.002640e-06 4.075971e-05 1.735129e-07
2.912621e-05 -2.723032e-05 -9.748736e-08
-4.037284e-05 5.959675e-06 -1.696284e-07
8.977797e-07 -4.077916e-05 -2.187543e-07
-3.976679e-05 -3.778113e-06 2.726081e-07
-3.842026e-05 -1.172179e-05 -4.533442e-07
-1.402083e-06 4.078096e-05 1.832674e-07
2.820998e-06 4.010626e-05 4.665083e-07
1.031523e-05 3.860759e-05 -2.950320e-07
3.348163e-05 -2.330278e-05 -2.114191e-07
-4.051653e-05 -3.777322e-07 4.597096e-07
-1.739899e-07 -3.988847e-05 1.574150e-07
3.459767e-05 -1.987937e-05 1.923348e-07
3.459774e-05 1.987929e-05 -1.923843e-07
-2.587357e-05 3.093591e-05 4.884397e-07
-3.387396e-05 2.188667e-05 4.884397e-07
-3.936315e-05 -9.497203e-06 -4.682069e-07
-3.446164e-05 2.094916e-05 4.884397e-07
-3.885670e-05 9.626413e-06 3.693487e-07
-4.118032e-07 -4.013113e-05 4.374003e-07
2.324860e-05 -3.322261e-05 -4.473003e-07
-3.967026e-05 8.854196e-06 3.902268e-07
-4.078758e-05 6.850522e-07 -2.099515e-07
-3.252525e-05 -2.355880e-05 -4.502149e-07
3.491740e-05 1.934908e-05 2.295830e-07
3.491740e-05 -1.934908e-05 -2.295830e-07
-3.409491e-05 -2.065401e-05 9.033465e-09
-4.015583e-05 -6.852115e-06 -3.020468e-07
-3.155866e-05 -2.435368e-05 9.171490e-09
2.171962e-05 -3.452701e-05 -2.160251e-07
-2.671228e-05 3.021445e-05 4.884323e-07
-9.804835e-06 3.911935e-05 4.884321e-07
-2.701758e-05 -2.994176e-05 4.884321e-07
3.384908e-05 -2.220072e-05 -4.718209e-07
-3.623654e-05 1.758001e-05 4.830151e-07
-1.992404e-05 -3.483583e-05 -4.363018e-07
-3.545462e-05 1.880091e-05 4.363154e-07
-1.327977e-05 3.787018e-05 -4.363090e-07
-4.051424e-05 -4.125640e-06 -3.173105e-07
-3.623654e-05 -1.758000e-05 -4.830151e-07
-4.559899e-06 3.960212e-05 -3.070495e-08
3.245062e-05 -2.331967e-05 2.933710e-07
3.342071e-05 2.283894e-05 4.720598e-07
-2.180809e-05 3.390291e-05 -4.872667e-07
-3.799949e-05 -1.272737e-05 -4.025778e-07
3.595860e-05 1.787777e-05 -4.487554e-07
3.595860e-05 -1.787777e-05 4.487554e-07
4.049632e-05 -5.059561e-06 -1.673638e-07
4.049962e-05 5.031893e-06 1.677809e-07
-4.070696e-05 -1.380726e-06 -3.093903e-07
-3.790687e-05 1.253904e-05 -2.420169e-07
1.704764e-05 3.613923e-05 2.902753e-07
2.125989e-05 3.383316e-05 2.902753e-07
-1.553693e-07 -4.013292e-05 -4.373859e-07
2.380683e-05 -3.279606e-05 -4.568909e-07
-3.914321e-05 7.545704e-06 -3.221630e-08
-3.960467e-05 5.970157e-06 3.863764e-07
1.632120e-05 -3.674938e-05 -4.681490e-07
1.848501e-05 -3.570748e-05 -4.674713e-07
1.512034e-05 -3.790633e-05 -1.685884e-07
-3.952379e-05 -5.388147e-06 -1.589570e-07
1.281523e-05 3.874642e-05 1.685884e-07
1.682594e-05 -3.717673e-05 -1.780779e-07
1.901790e-05 -3.610865e-05 -1.685884e-07
-6.857244e-06 -4.022871e-05 -1.733004e-07
-1.425090e-05 3.823981e-05 1.733007e-07
3.891744e-05 -8.972711e-06 2.611682e-07
3.891744e-05 8.972711e-06 -2.611682e-07
-3.722657e-05 -1.566976e-05 4.874402e-07
8.280929e-06 -3.903650e-05 -1.990488e-07
-3.916859e-06 4.011928e-05 4.871606e-07
3.385085e-05 2.284914e-05 -1.197569e-22
-3.979684e-05 -2.695904e-06 -1.550590e-07
-3.933544e-05 7.403122e-06 -3.646511e-07
8.279748e-06 3.903685e-05 1.992601e-07
3.947778e-05 -5.681552e-06 -1.440784e-07
3.947778e-05 5.681552e-06 1.440784e-07
-3.339115e-05 2.346394e-05 -1.682335e-07
7.389255e-06 4.011901e-05 2.089106e-07
2.610527e-05 -3.042103e-05 -4.107102e-07
-2.340464e-06 4.073391e-05 1.927912e-07
-3.921220e-05 -8.203115e-06 3.931325e-07
8.246561e-06 -3.923650e-05 4.153255e-07
-3.908388e-05 -7.888845e-06 -9.480378e-08
-3.555559e-05 -1.802831e-05 -4.642502e-08
3.693165e-05 1.515969e-05 2.331140e-07
3.693165e-05 -1.515969e-05 -2.331140e-07
3.870939e-05 1.105961e-05 -4.799321e-07
3.870939e-05 -1.105961e-05 4.799321e-07
-3.928517e-05 -1.105566e-05 -1.673316e-07
-3.579025e-05 -1.789603e-05 3.545983e-07
-2.760257e-06 -3.980931e-05 -1.984388e-07
-3.579016e-05 1.789651e-05 -3.547308e-07
3.124648e-05 -2.585928e-05 -4.427783e-07
-3.987023e-05 -1.498285e-07 -8.641597e-08
3.124648e-05 2.585928e-05 4.427783e-07
2.766854e-05 2.947781e-05 4.828339e-07
3.487944e-05 -1.939899e-05 2.118743e-07
3.487944e-05 1.939899e-05 -2.118743e-07
3.756887e-05 1.354798e-05 2.590004e-07
3.756887e-05 -1.354798e-05 -2.590004e-07
4.077408e-05 -9.288924e-07 2.273047e-07
4.077408e-05 9.288924e-07 -2.273047e-07
-3.901463e-05 8.483158e-06 2.408485e-07
8.246640e-06 3.923673e-05 -4.154804e-07
-1.428213e-06 -3.984879e-05 -1.056781e-07
3.151562e-05 2.549119e-05 4.535623e-07
3.151562e-05 -2.549119e-05 -4.535623e-07
2.254718e-05 -3.313227e-05 -4.040787e-07
-2.636429e-05 2.995389e-05 1.958927e-07
-5.048038e-06 4.049774e-05 1.674166e-07
2.848222e-05 2.804721e-05 -3.098550e-07
1.078551e-05 -3.856500e-05 -3.805880e-07
2.077438e-05 -3.510677e-05 2.108717e-07
1.641285e-05 -3.734540e-05 2.108717e-07
1.413911e-05 3.826416e-05 -2.108717e-07
-3.850197e-05 -1.042409e-05 -1.553015e-07
1.862727e-05 -3.629166e-05 2.108717e-07
-4.000572e-05 2.262768e-07 3.460685e-07
3.996969e-05 8.154270e-06 2.106726e-07
3.996969e-05 -8.154270e-06 -2.106726e-07
2.914938e-05 -2.805523e-05 -4.774476e-07
-3.097282e-05 2.573249e-05 4.816402e-07
-2.443590e-05 3.200568e-05 4.816402e-07
-1.256383e-05 3.826012e-05 4.820887e-07
-5.124296e-07 4.007035e-05 4.021316e-07
-4.005799e-05 7.783633e-06 -1.778767e-07
-1.348938e-06 3.986944e-05 -1.670911e-07
3.713871e-05 1.635399e-05 4.324002e-07
3.713801e-05 -1.637725e-05 -4.276728e-07
1.375430e-05 -3.840532e-05 2.085636e-07
1.142167e-05 3.916242e-05 -2.085636e-07
1.866810e-05 3.627191e-05 -2.085636e-07
2.288457e-05 3.377049e-05 -2.085636e-07
1.142535e-05 -3.843271e-05 -4.161218e-07
3.824720e-05 -1.319365e-05 -4.770671e-07
3.824720e-05 1.319365e-05 4.770671e-07
3.850268e-05 -1.220632e-05 -4.873499e-07
-2.843785e-06 3.976131e-05 -7.676283e-09
3.850268e-05 1.220632e-05 4.873499e-07
4.121141e-06 -3.972980e-05 2.682503e-07
9.097422e-06 3.963376e-05 -3.758796e-07
-2.918392e-05 -2.720468e-05 1.804182e-07
-3.292694e-05 2.253646e-05 1.889960e-07
2.885355e-05 2.864043e-05 -3.838151e-07
-3.701082e-05 -1.657591e-05 4.455238e-07
-5.066804e-06 3.995006e-05 -4.820746e-07
3.074315e-05 -2.684203e-05 1.645021e-07
3.074315e-05 2.684203e-05 -1.645021e-07
-4.317297e-06 3.962877e-05 2.047093e-08
-1.522458e-05 3.701674e-05 3.640164e-07
-8.035443e-06 -3.921035e-05 -3.639436e-07
-3.502865e-05 -2.019646e-05 -4.819889e-07
-2.727253e-05 -3.010074e-05 -4.099103e-07
-2.992201e-05 2.775361e-05 1.660809e-07
-2.295983e-05 -3.374071e-05 1.660800e-07
-1.046404e-05 -3.944735e-05 -1.660781e-07
-3.912501e-05 1.159395e-05 -1.791864e-07
-3.966045e-05 -9.596201e-06 1.837084e-07
2.967890e-05 2.665864e-05 1.714622e-07
-5.821353e-06 3.943580e-05 1.795423e-08
-3.979789e-05 -7.302795e-06 4.762696e-07
-4.027592e-05 -6.482110e-06 2.081077e-07
2.633234e-05 3.091392e-05 4.160183e-07
3.869295e-05 1.170962e-05 -4.832794e-07
3.869295e-05 -1.170962e-05 4.832794e-07
9.273518e-06 3.974381e-05 1.667883e-07
2.720096e-05 -2.957632e-05 4.587952e-07
-3.713417e-05 -1.449961e-05 4.162869e-08
4.077874e-05 1.369885e-06 -1.912600e-07
4.078322e-05 -1.358257e-06 1.813497e-07
-7.298846e-06 3.918925e-05 1.795487e-08
1.111978e-05 3.893653e-05 -4.680252e-07
2.967055e-05 -2.666717e-05 -1.700827e-07
-8.335612e-07 -4.036729e-05 -4.883484e-07
-9.133092e-06 -3.896229e-05 -3.577022e-07
2.818616e-05 2.929248e-05 -3.866299e-07
2.351236e-05 -3.334475e-05 -1.935132e-07
-3.919977e-05 1.057712e-05 -4.202368e-07
9.273538e-06 -3.974390e-05 -1.665405e-07
1.009192e-05 -3.953504e-05 -1.888290e-07
2.610535e-05 -3.104286e-05 -4.421809e-07
3.367816e-05 2.310291e-05 -1.197569e-22
-8.766034e-06 3.888736e-05 -1.791847e-08
-2.665293e-06 -4.053021e-05 -4.102614e-07
-3.557271e-06 -4.010604e-05 4.809116e-07
2.564597e-05 3.071937e-05 -3.567876e-07
-3.678335e-05 -1.544390e-05 -1.717369e-07
3.806714e-05 -1.394779e-05 -4.504455e-07
3.806752e-05 1.394777e-05 4.502972e-07
-3.915285e-05 9.668332e-06 4.884114e-07
-2.645960e-05 2.981503e-05 -5.554021e-09
-3.055575e-05 2.584441e-05 -3.590191e-07
-2.400437e-05 3.202152e-05 -3.590194e-07
-1.018120e-05 3.854082e-05 -9.575688e-09
-2.097724e-05 -3.408142e-05 -3.590261e-07
1.764055e-05 -3.679670e-05 -1.791686e-07
1.428324e-05 3.822416e-05 1.819034e-07
1.981978e-05 -3.567019e-05 -1.791686e-07
-3.981308e-05 2.979661e-06 -2.376025e-07
-3.290017e-05 2.321644e-05 4.815273e-07
-2.905252e-05 -2.788145e-05 4.815273e-07
-2.663521e-05 -2.988376e-05 -3.689494e-07
[...]
POINT_DATA 11271
VECTORS 10.000GHz_fone_imag double
4.721406e+10 -6.744874e+10 9.106101e+08
-4.030710e+10 7.492985e+10 -2.301407e+08
-8.078969e+10 8.694255e+09 1.994355e+09
4.800532e+10 6.878535e+10 -6.026985e+08
8.299957e+10 1.064910e+10 8.503814e+08
7.686190e+10 4.138029e+10 7.647582e+07
-7.966750e+10 2.577117e+10 1.742645e+08
-7.742868e+10 3.240275e+10 3.244698e+08
-7.574222e+10 3.612093e+10 2.437665e+08
-7.854776e+10 2.940530e+10 -3.044359e+08
7.200588e+10 4.207365e+10 3.028153e+08
-8.354797e+10 1.046362e+10 -1.972554e+07
-3.698594e+10 7.715145e+10 -2.164774e+08
-4.999805e+09 8.467521e+10 -8.402512e+08
-1.717235e+10 8.043760e+10 7.266528e+08
-7.171567e+10 4.194560e+10 7.015343e+08
-1.236666e+10 -8.516798e+10 -6.918284e+08
1.217528e+10 -8.386929e+10 -2.446598e+08
7.583151e+08 8.560055e+10 -8.364833e+08
8.564295e+10 -1.022551e+10 -3.802168e+08
-2.512825e+10 8.054559e+10 -2.336118e+08
-8.559742e+10 -1.095652e+10 -1.527851e+08
6.751540e+10 4.710979e+10 -3.080024e+08
-3.271736e+10 7.855952e+10 -7.852234e+08
8.148321e+10 2.872125e+10 5.131430e+07
8.612751e+10 3.665819e+09 1.999073e+08
-7.550850e+10 -2.685460e+10 -1.529911e+09
7.668333e+10 -2.306116e+10 2.083888e+08
7.144508e+10 -3.664063e+10 1.067912e+09
6.656762e+10 -4.496600e+10 1.060547e+09
4.081537e+10 7.081734e+10 -8.801487e+08
-8.349851e+10 1.199573e+10 -2.400985e+07
7.854541e+10 3.618624e+10 -1.831322e+07
-7.368665e+10 4.195123e+10 -1.194439e+08
-2.859120e+10 8.085859e+10 -2.602263e+08
8.256600e+10 1.645454e+10 1.371221e+08
3.933635e+10 7.353099e+10 -2.856168e+07
7.971875e+10 2.907910e+10 -4.495483e+07
-3.794996e+10 7.037664e+10 7.272726e+07
2.162441e+10 7.891032e+10 -3.703666e+08
8.474146e+10 3.392712e+09 -6.663926e+08
-5.675188e+10 -6.183909e+10 1.779237e+08
1.108828e+10 7.978957e+10 -8.322542e+08
-7.989258e+10 -1.404002e+09 3.347921e+08
-8.203396e+09 8.557901e+10 8.290746e+08
-2.490050e+10 8.145475e+10 -2.535756e+07
7.754897e+10 3.299495e+09 5.483875e+08
8.339474e+10 -5.670222e+09 -9.449601e+07
8.475888e+10 -2.266235e+10 -2.209258e+09
-4.409693e+10 -6.631998e+10 -2.756997e+08
9.013010e+08 8.100741e+10 -8.562838e+08
-8.721324e+10 -4.940497e+08 -2.618499e+08
-4.215605e+10 -7.494112e+10 -1.641685e+08
4.244025e+10 -7.503951e+10 -9.702881e+08
6.407484e+10 5.322250e+10 -6.572942e+08
4.322149e+10 7.109972e+10 -7.136549e+08
-1.712216e+10 8.093261e+10 9.779992e+06
4.410517e+10 6.983186e+10 5.635831e+08
2.116327e+10 8.279312e+10 -3.512784e+08
-8.377257e+10 8.424249e+08 1.116870e+09
-6.756193e+10 -4.703314e+10 -1.425728e+09
1.615642e+10 7.969499e+10 1.536852e+09
2.943844e+09 7.978398e+10 5.206118e+08
-5.036560e+10 6.889960e+10 -4.892504e+08
4.120960e+10 -7.664664e+10 -2.023723e+08
-4.073426e+10 -7.593599e+10 -1.385476e+08
-4.397824e+10 7.352037e+10 -1.248408e+09
-1.452006e+10 7.960438e+10 4.954901e+08
-5.198233e+10 6.854263e+10 -4.600168e+08
-6.984871e+10 -4.351278e+10 4.068214e+08
6.339026e+10 5.367799e+10 2.872498e+08
8.033495e+10 1.908104e+10 9.489485e+07
-6.080713e+10 5.372988e+10 1.761476e+08
-4.648386e+10 -6.837125e+10 -1.272680e+09
3.555780e+10 7.313980e+10 -4.746287e+08
-7.379555e+10 4.413139e+10 2.209897e+09
3.800204e+10 7.500235e+10 2.238555e+09
8.099193e+10 2.818093e+10 1.380733e+09
-8.538907e+09 8.224571e+10 3.231557e+08
-3.569120e+10 7.367239e+10 -3.632684e+08
8.597647e+10 9.963945e+09 -2.166753e+07
-4.966267e+10 -6.962657e+10 2.937094e+09
4.628559e+10 -6.801650e+10 1.186426e+09
7.244742e+10 4.674728e+10 3.629260e+08
-2.567157e+10 7.994376e+10 1.045090e+09
3.753252e+10 -7.536711e+10 -1.227363e+09
-3.758972e+10 -7.527901e+10 -1.269500e+09
-9.353456e+09 -7.576857e+10 -5.401518e+08
1.001556e+10 -7.696799e+10 -4.166244e+08
-2.505841e+09 8.088277e+10 -1.657258e+07
2.690163e+10 8.008838e+10 -1.715138e+09
8.050156e+10 -3.807832e+10 6.650203e+08
7.535907e+10 -4.744037e+10 6.931613e+08
-8.205819e+10 3.241409e+08 9.015341e+08
-6.614759e+10 -4.694153e+10 8.154299e+08
1.859823e+10 8.526194e+10 -2.055768e+07
1.237838e+10 8.187834e+10 -8.036319e+08
-7.564859e+10 -3.329639e+10 -1.964770e+09
-7.374780e+10 -3.802046e+10 -2.247120e+09
-7.496133e+10 -3.087242e+10 -1.000973e+09
-1.249040e+10 8.517710e+10 1.823208e+08
7.663538e+10 -2.628318e+10 -1.029417e+09
-7.378900e+10 -3.271019e+10 5.147364e+08
-7.193430e+10 -3.709939e+10 3.959686e+08
-7.889348e+10 1.412715e+10 -2.956914e+08
7.531978e+10 2.656076e+10 -5.432633e+08
-2.062425e+10 -8.348806e+10 1.208468e+09
2.065212e+10 -8.352695e+10 1.219076e+09
-3.094944e+10 7.675992e+10 -2.325643e+08
-8.289763e+10 -1.694907e+10 -7.275277e+08
8.328788e+10 8.028835e+09 -1.828579e+08
4.423435e+10 -6.923038e+10 -2.641754e+08
-3.999206e+09 8.482902e+10 -1.173354e+08
1.626152e+10 8.418943e+10 -5.621590e+08
8.415894e+10 -1.740402e+10 -5.243004e+08
-1.190015e+10 -8.272632e+10 5.707249e+08
1.249492e+10 -8.566221e+10 1.028666e+09
4.651308e+10 6.583156e+10 -6.028463e+08
7.914949e+10 -1.352434e+10 8.327735e+08
-6.137367e+10 -5.424610e+10 1.612985e+09
8.164126e+10 5.832489e+09 9.176880e+08
-1.701045e+10 8.240379e+10 9.731385e+08
-8.196204e+10 -1.693659e+10 -2.382286e+09
-1.487778e+10 8.330733e+10 4.171373e+08
-3.701189e+10 7.654653e+10 3.303809e+08
3.082268e+10 -7.802163e+10 -8.485667e+08
-3.119996e+10 -7.911312e+10 -2.192448e+09
2.547827e+10 -8.171104e+10 -1.554164e+08
-2.450971e+10 -8.090280e+10 5.269377e+08
-2.196951e+10 7.818365e+10 -9.071594e+06
-3.851394e+10 7.715506e+10 3.130757e+08
-8.678092e+10 5.013502e+09 7.100186e+08
3.767845e+10 7.560711e+10 2.500291e+08
-5.089830e+10 -6.389643e+10 -1.659087e+08
-1.089637e+09 8.583833e+10 3.366211e+08
5.139201e+10 -6.377696e+10 -2.313306e+08
6.148344e+10 -5.656203e+10 -1.418337e+09
-4.185289e+10 -7.478447e+10 6.823103e+08
4.140396e+10 -7.465845e+10 1.504428e+09
3.064422e+10 -8.091725e+10 -9.887543e+08
-2.951155e+10 -8.105998e+10 -2.376449e+09
-7.115999e+08 -8.150346e+10 -1.652757e+09
5.051837e+08 -8.051421e+10 -2.095331e+09
1.903746e+10 7.959263e+10 1.651841e+09
8.176756e+10 -1.767835e+10 -1.963231e+09
-8.415839e+10 4.941590e+08 -1.658697e+08
5.378507e+10 -6.370596e+10 1.437581e+09
-5.342932e+10 -6.376052e+10 1.072342e+09
-7.010680e+10 -4.734354e+10 -5.796100e+08
6.424135e+10 5.449015e+10 1.082560e+09
8.056517e+10 1.023061e+10 -1.362222e+09
5.983852e+10 -6.057389e+10 -1.676631e+08
-8.077897e+10 -2.370166e+10 5.045141e+08
-6.836022e+10 -4.252100e+10 3.489367e+08
-7.302537e+10 -3.395394e+10 1.102117e+09
7.522279e+10 -2.823915e+10 1.733421e+09
-2.199862e+10 8.258457e+10 1.276412e+09
-7.067504e+10 -3.822144e+10 1.032947e+09
-1.687055e+09 8.398115e+10 -1.934837e+08
1.825631e+10 -7.990278e+10 1.232530e+08
-1.815127e+10 -7.991712e+10 3.141440e+08
-5.635749e+10 -5.912490e+10 6.487822e+08
5.443107e+10 6.387324e+10 6.468068e+08
6.743725e+10 5.015845e+10 6.430516e+08
8.112452e+10 2.765282e+10 -6.259088e+08
8.186251e+10 2.325237e+09 -4.517724e+08
1.556051e+10 7.824702e+10 -5.242659e+08
8.561571e+10 1.462119e+09 -2.167384e+08
3.413416e+10 -7.476698e+10 -7.410660e+08
-3.410120e+10 -7.414294e+10 -4.132190e+08
-7.781807e+10 -2.530920e+10 -2.098054e+08
7.828089e+10 -2.074261e+10 -8.888315e+07
7.173074e+10 -3.919606e+10 8.286847e+08
6.651988e+10 -4.751564e+10 8.319420e+08
-8.146481e+10 -2.338699e+10 -1.635245e+09
-2.718460e+10 -7.801920e+10 -7.305653e+08
2.674303e+10 -7.615340e+10 -1.585007e+09
-2.456172e+10 -7.924369e+10 7.968727e+08
8.601142e+10 4.627318e+09 4.730005e+08
2.487370e+10 -7.944607e+10 8.742810e+08
-8.665736e+10 -8.823010e+09 -1.773783e+08
7.981647e+10 -1.659282e+10 2.543850e+09
-5.828387e+10 6.218116e+10 -2.567339e+08
4.881017e+10 7.169486e+10 4.076501e+08
5.693842e+10 -5.624992e+10 -9.099086e+08
-3.337174e+10 7.485516e+10 2.426406e+09
8.424405e+10 1.009354e+10 -1.119234e+09
-5.410506e+10 -5.925137e+10 -1.052571e+09
5.480335e+10 -5.987609e+10 -7.728725e+08
8.669655e+10 1.067546e+10 -1.160495e+08
8.290524e+10 3.517507e+10 -3.042647e+09
-8.220955e+10 1.705745e+10 -2.092104e+09
-4.037937e+10 6.957293e+10 -1.010759e+09
-6.059812e+10 5.625126e+10 -8.953834e+08
5.475799e+10 6.104991e+10 -6.305702e+08
-6.691147e+10 4.423554e+10 -7.284801e+07
-7.739332e+10 2.282210e+10 -5.559733e+08
2.376159e+10 7.656673e+10 8.370863e+08
-1.680163e+10 7.747136e+10 -6.981641e+08
5.820989e+10 -6.553594e+10 -1.066266e+09
8.548703e+10 1.343164e+10 -3.734469e+08
-1.657850e+10 8.485719e+10 9.028600e+08
-1.202074e+10 7.954493e+10 -1.018169e+09
6.235515e+10 -5.206269e+10 -8.084450e+08
2.414082e+10 -7.900966e+10 3.550552e+08
-2.449772e+10 -7.966341e+10 2.029400e+08
7.688537e+10 -1.746669e+10 1.390485e+08
-6.187341e+10 -5.554199e+10 -2.548451e+08
-3.163284e+10 7.938190e+10 1.171566e+09
2.710327e+09 -7.917584e+10 -7.798519e+07
-3.124540e+09 -8.700111e+10 1.163048e+09
8.483373e+10 1.512852e+10 1.423749e+09
7.981202e+10 -2.334438e+10 1.300399e+09
-5.867434e+10 -6.447698e+10 -5.575073e+08
-8.378182e+10 1.493161e+09 -1.592594e+08
-8.282441e+10 1.974882e+10 3.537303e+08
5.786781e+10 -5.659055e+10 4.193372e+08
-6.530596e+10 -4.653533e+10 4.229657e+08
2.105327e+10 7.881680e+10 -1.002080e+09
-7.814620e+10 -1.706281e+10 -2.518959e+06
-7.684401e+10 -2.093167e+10 -8.461602e+08
-6.390282e+10 -5.076362e+10 -3.496091e+08
4.579802e+10 -6.826367e+10 -1.562008e+08
8.596949e+10 1.994921e+10 -1.524402e+09
-7.899831e+10 6.444354e+09 3.344456e+09
-8.403778e+10 6.805516e+09 -1.528190e+09
6.711053e+10 -5.580009e+10 1.152252e+09
-3.187893e+10 7.810380e+10 -4.947329e+07
-2.754883e+10 -7.742427e+10 -1.130781e+09
2.914453e+10 -7.961624e+10 -7.965565e+08
1.999719e+10 8.215508e+10 -1.211758e+09
6.270945e+10 5.812319e+10 7.820854e+08
5.560915e+10 6.614748e+10 7.824458e+08
6.894726e+10 5.195011e+10 8.045786e+08
8.215232e+10 2.310453e+10 2.211792e+07
-7.287748e+10 4.447519e+10 -4.326971e+08
-7.201088e+10 -3.269410e+10 8.272595e+08
7.730176e+10 -2.756875e+10 1.885270e+09
-6.884488e+10 -3.632952e+10 1.573433e+08
9.801963e+09 8.379960e+10 -2.042911e+09
4.743995e+10 6.893963e+10 -1.277684e+09
-5.856744e+10 6.109122e+10 1.314747e+09
-6.374037e+10 5.649412e+10 -5.080910e+08
-7.256580e+10 4.287162e+10 -9.053972e+08
-6.957004e+10 -4.068631e+10 4.645643e+08
8.105067e+10 2.515747e+10 9.553063e+08
5.420664e+10 6.595241e+10 3.010621e+08
6.726695e+10 5.198857e+10 1.569843e+08
-3.871070e+10 7.715543e+10 2.366872e+08
4.854775e+10 7.089570e+10 -5.671667e+08
-5.951390e+10 6.264754e+10 4.441237e+08
8.517862e+10 2.745456e+10 8.455003e+07
-5.870785e+10 6.251273e+10 2.647639e+08
5.188990e+10 6.626851e+10 -1.453181e+09
8.413947e+10 1.415873e+10 -2.148993e+09
-8.194817e+10 3.647771e+09 8.623198e+08
8.319122e+10 2.757097e+10 5.001551e+08
-5.674780e+10 -5.767256e+10 -7.201597e+08
-2.268475e+10 8.266378e+10 8.958022e+08
-1.181178e+10 -8.478410e+10 -1.334747e+09
-9.019398e+09 -8.287383e+10 3.200017e+08
8.945548e+09 -8.292305e+10 2.451129e+08
1.271251e+10 -8.283797e+10 -1.698534e+09
-1.076444e+10 8.440976e+10 -4.006062e+08
8.425440e+10 8.349489e+08 1.537200e+08
-3.563694e+10 -7.295588e+10 -1.571470e+09
3.566851e+10 -7.309766e+10 -1.660769e+09
7.897677e+10 2.889411e+10 3.150512e+08
5.137969e+10 -5.870883e+10 -6.787533e+08
-4.122148e+10 -6.854138e+10 4.602290e+08
4.087811e+10 -6.815831e+10 -5.433226e+08
-2.340065e+10 7.701488e+10 -2.293127e+08
-7.294024e+10 3.611919e+10 2.221960e+09
-8.408124e+10 -3.933175e+09 1.392696e+09
-1.692028e+10 7.885284e+10 3.500722e+08
8.348191e+10 -1.290883e+10 5.375738e+08
5.141489e+10 -6.799075e+10 2.187378e+09
-5.141708e+10 -6.824129e+10 2.064583e+09
7.876375e+10 3.394993e+10 1.701465e+09
2.076852e+10 -8.438207e+10 -1.298905e+09
-2.072655e+10 -8.422977e+10 -1.269769e+09
-3.873442e+10 7.245469e+10 4.647197e+08
-4.173588e+10 -7.398291e+10 -1.923169e+08
4.086931e+10 -7.150048e+10 -4.305796e+08
-2.712782e+10 -8.003556e+10 -1.572900e+09
2.714058e+10 -7.845279e+10 -1.559501e+09
1.358301e+10 8.049631e+10 5.677383e+08
1.552521e+10 7.962339e+10 8.273930e+08
7.126736e+10 4.284829e+10 5.265003e+08
7.651301e+10 3.659851e+10 -1.264338e+09
-1.377254e+10 -8.173565e+10 7.049362e+08
1.328470e+10 -8.314466e+10 1.063091e+09
-3.902738e+10 -7.117561e+10 -9.651309e+08
3.990455e+10 -7.163312e+10 -8.164852e+08
-7.489190e+10 3.586225e+10 7.758461e+08
-7.597484e+10 -3.139954e+10 -1.046157e+09
7.771065e+10 -2.679049e+10 -1.036982e+09
6.509861e+10 -5.340244e+10 -1.790580e+09
8.023892e+10 1.831096e+10 -2.229105e+08
4.912367e+10 -6.370275e+10 -5.811042e+08
7.753420e+10 3.930417e+10 5.974423e+08
-4.986762e+10 -6.503464e+10 -1.796959e+08
9.560428e+09 8.694384e+10 -9.566150e+08
5.357426e+10 -6.696333e+10 2.612635e+08
-5.356595e+10 -6.708476e+10 3.177895e+08
5.980764e+10 -5.424772e+10 -4.389028e+08
-3.094023e+10 -7.593521e+10 -1.515647e+09
3.113054e+10 -7.532678e+10 -1.344249e+09
3.606448e+10 7.702161e+10 2.985340e+08
7.612972e+10 -3.845200e+10 1.817820e+09
7.097548e+10 -4.722410e+10 1.875910e+09
7.601610e+10 4.172678e+10 -6.932523e+08
-6.865119e+10 5.055265e+10 1.231026e+09
-5.895622e+10 -5.589384e+10 7.468897e+08
-9.507842e+10 3.602499e+09 4.600470e+08
2.263810e+10 7.932244e+10 -1.280518e+09
-7.300282e+10 -4.086078e+10 -1.051242e+09
5.561818e+10 -5.864241e+10 9.599454e+08
-2.933323e+10 -7.558928e+10 -9.132765e+08
2.941563e+10 -7.602485e+10 -8.908263e+08
-7.875982e+10 2.559068e+09 -2.218949e+08
-3.764801e+10 -7.562942e+10 -1.805040e+08
7.172157e+10 4.577460e+10 1.596708e+09
3.763294e+10 -7.564413e+10 -1.917692e+08
7.630285e+10 4.076928e+10 4.845298e+08
1.894576e+10 -7.817943e+10 1.059998e+08
-1.904530e+10 -7.818142e+10 1.943135e+08
5.505596e+10 -5.393127e+10 2.107157e+09
4.207413e+10 7.610930e+10 -4.054172e+08
-3.124255e+09 8.311215e+10 6.216992e+08
-7.803970e+10 2.556809e+10 -2.177172e+08
-7.589541e+10 3.185256e+10 -3.668619e+08
-7.691859e+10 2.885681e+10 3.819273e+08
4.638148e+10 -6.577522e+10 -1.937761e+08
6.893139e+10 4.960639e+10 -3.023072e+08
-8.187449e+10 1.009147e+10 5.065110e+08
-8.333322e+10 -1.332027e+10 -6.387556e+08
5.790642e+10 -5.714748e+10 5.193928e+08
8.460272e+10 2.274989e+09 6.081394e+08
7.909235e+10 2.222532e+10 -5.548349e+08
-6.044380e+10 5.813825e+10 1.121268e+08
-5.434396e+10 6.181306e+10 -5.300631e+08
5.386782e+09 -8.552713e+10 8.652106e+08
-6.360949e+09 -8.431621e+10 1.274337e+09
8.184188e+10 -4.987199e+09 -2.802246e+08
6.921012e+10 5.324857e+10 -2.380985e+08
-8.260625e+10 1.266570e+10 -6.192889e+08
7.713909e+10 3.550515e+10 2.773217e+08
-1.359197e+10 -8.046171e+10 7.908982e+08
1.382778e+10 -8.569775e+10 -6.380477e+08
-5.802412e+10 -6.080339e+10 9.860512e+08
4.423884e+10 -6.640597e+10 2.155346e+09
-5.658287e+10 -6.345925e+10 2.255198e+09
7.516822e+10 -2.847896e+10 9.099123e+07
7.080273e+10 -3.700627e+10 2.467804e+08
6.608612e+10 -4.526482e+10 5.599666e+08
6.427795e+10 5.211490e+10 4.031243e+06
-7.182300e+10 4.118987e+10 -1.682861e+09
3.840539e+10 7.220715e+10 -1.483317e+09
-2.456630e+10 7.978017e+10 -1.135769e+09
7.790867e+10 2.729790e+10 -4.735234e+08
5.439812e+10 -6.310815e+10 1.451252e+08
-5.438338e+10 -6.308288e+10 1.731447e+08
-7.897721e+10 -1.724693e+10 1.654228e+09
-8.338296e+10 -2.330112e+09 9.553897e+08
2.403499e+10 8.118640e+10 8.012994e+08
8.069376e+10 -3.957074e+09 -2.002370e+09
6.776254e+10 5.658816e+10 4.740462e+08
-8.065021e+10 -9.740334e+09 -7.201514e+08
2.412646e+09 8.560300e+10 -8.530214e+07
5.898270e+10 -6.044545e+10 1.865119e+08
-6.515691e+10 4.537871e+10 -1.030457e+09
3.671440e+10 7.073799e+10 5.047512e+08
8.266915e+10 -2.074095e+10 3.010460e+08
-6.883460e+10 5.106912e+10 3.782694e+08
-1.880089e+10 -7.862394e+10 -1.009549e+09
1.876404e+10 -7.831499e+10 -1.015270e+09
1.138550e+10 8.131002e+10 -1.990049e+09
6.435857e+10 5.827745e+10 1.359309e+09
4.643597e+10 -6.740842e+10 -1.947884e+08
-4.687326e+10 -6.734761e+10 1.975549e+08
-1.249757e+10 -8.597847e+10 -9.192165e+08
1.370405e+10 -8.556846e+10 -9.914205e+08
6.077383e+10 5.902008e+10 -1.587004e+09
-7.272264e+10 4.687839e+10 1.261498e+09
-6.730953e+10 5.420160e+10 -1.427263e+09
-8.200070e+10 2.249436e+10 6.421160e+08
5.798873e+10 6.418197e+10 1.440791e+09
8.222121e+10 -3.193931e+09 -1.363110e+09
5.770681e+10 6.200755e+10 1.327414e+09
-6.393768e+10 -5.543886e+10 3.652979e+08
7.475344e+10 4.469657e+10 1.243823e+09
2.519422e+10 8.261064e+10 3.154942e+09
-7.340371e+10 -4.500585e+10 -5.479839e+08
3.695370e+10 7.479077e+10 8.812101e+08
-6.689969e+10 -4.483714e+10 3.947043e+08
-7.665729e+10 -2.367467e+10 4.282881e+07
2.596294e+10 7.671458e+10 -4.055657e+08
2.538604e+10 8.157108e+10 1.218156e+07
-7.665694e+10 1.735585e+10 -1.270722e+09
5.594312e+10 6.384028e+10 -7.605492e+07
-8.230281e+10 -1.590801e+10 -1.442672e+09
6.111495e+10 -5.906430e+10 9.736427e+08
-8.252070e+10 -2.894736e+09 2.671797e+08
-8.108508e+10 1.998504e+10 -1.968470e+08
-4.215418e+10 -7.119354e+10 1.966096e+09
4.185137e+10 -7.210174e+10 4.144204e+08
-5.771935e+10 -6.319858e+10 1.445317e+08
-6.733668e+10 -4.661649e+10 9.844203e+08
7.084370e+10 5.031043e+10 1.463489e+09
-5.465559e+10 6.813802e+10 1.347314e+09
5.555139e+10 6.736969e+10 -2.049052e+08
-4.699837e+10 7.450259e+10 1.344862e+09
-5.190842e+10 -6.222452e+10 -6.203527e+08
5.285037e+10 -6.285478e+10 -5.267513e+08
-8.755504e+10 1.426589e+10 -5.218191e+08
8.087186e+10 2.892781e+10 -9.686751e+08
8.253204e+10 -1.638070e+10 -8.384529e+08
5.670285e+10 6.389411e+10 2.341646e+09
6.936033e+10 4.949240e+10 2.355048e+09
-7.285116e+10 4.595493e+10 1.685640e+09
7.028648e+09 8.521259e+10 1.154316e+09
5.117064e+10 6.534455e+10 5.298341e+08
-8.071126e+10 2.991544e+09 -6.408301e+08
-3.450577e+10 7.845181e+10 -3.074353e+08
-2.651260e+10 -7.745096e+10 -9.253545e+08
2.672610e+10 -7.854221e+10 -9.522881e+08
-7.822613e+10 -3.116243e+10 -2.666437e+08
7.980912e+10 -2.629292e+10 -2.436037e+08
-2.810665e+10 7.731796e+10 9.490454e+08
8.612271e+10 -5.581756e+09 2.065914e+08
-7.892969e+10 -2.214944e+10 8.549077e+08
-6.688135e+10 5.551174e+10 -1.923727e+09
5.146101e+10 6.905773e+10 -7.346300e+08
-5.077743e+08 8.355695e+10 -2.445586e+09
-5.478064e+10 6.621966e+10 1.296051e+09
-4.737340e+10 7.259020e+10 3.622108e+08
2.005740e+10 -8.153580e+10 1.824438e+09
-1.974075e+10 -8.148612e+10 1.594908e+09
3.561599e+10 7.994547e+10 1.696951e+09
-2.553612e+10 7.779174e+10 -8.370935e+07
8.077574e+10 -4.546407e+09 -3.095145e+08
-3.149119e+10 7.602627e+10 -1.177730e+09
4.162534e+10 -6.879427e+10 7.012709e+08
4.650560e+10 -6.555065e+10 4.044739e+08
5.059407e+10 7.219613e+10 -2.937492e+08
6.856091e+10 -4.830528e+10 8.204701e+08
5.015664e+10 -6.226925e+10 3.536883e+08
-5.020400e+10 -6.246148e+10 4.887262e+08
3.312835e+10 7.342538e+10 -3.317820e+08
-7.614762e+10 -2.839711e+10 1.219254e+09
7.859169e+10 -2.233152e+10 -3.659877e+08
7.250537e+10 -3.753793e+10 1.956952e+08
6.755252e+10 -4.600551e+10 1.935488e+08
8.631812e+10 4.313699e+09 5.069843e+08
7.999780e+10 7.086733e+09 1.005514e+09
4.565118e+10 7.235623e+10 3.902070e+08
-3.444674e+10 8.005407e+10 7.162446e+08
-5.125252e+10 -6.769847e+10 1.736627e+08
5.143408e+10 -6.741752e+10 1.678858e+08
-1.865966e+08 8.157960e+10 1.906436e+08
-8.666719e+10 -2.130803e+09 -2.580720e+07
7.560013e+10 -3.224758e+10 1.771565e+09
7.222722e+10 -4.005832e+10 1.257334e+09
1.224079e+10 -7.866167e+10 9.103674e+08
7.635313e+10 2.320221e+10 1.236692e+09
-5.446477e+10 5.996175e+10 2.513886e+08
4.405757e+10 7.442518e+10 -6.994996e+07
-3.847857e+10 7.079696e+10 1.121049e+09
-7.738182e+09 -7.943336e+10 -1.306748e+09
-7.015994e+10 4.200720e+10 -8.424249e+08
6.441433e+10 4.787856e+10 -7.602281e+08
5.211046e+10 6.106523e+10 -7.827864e+08
-4.028309e+10 -7.156617e+10 2.338374e+07
4.161247e+10 -7.217037e+10 -6.487456e+08
-2.655606e+10 7.950505e+10 4.998707e+08
4.499596e+10 -6.679652e+10 1.883367e+08
-2.455783e+10 8.264962e+10 -1.789100e+09
3.792213e+10 7.354658e+10 3.823916e+08
-2.682034e+10 8.437863e+10 -1.816890e+09
-4.571116e+10 -6.380070e+10 9.008161e+08
4.725579e+10 -6.422919e+10 2.169551e+09
-5.740723e+10 6.558138e+10 -3.740008e+08
6.647222e+10 5.864598e+10 -1.289043e+09
2.099384e+10 7.867494e+10 5.011129e+08
-4.933911e+10 6.963481e+10 7.023079e+08
-6.437145e+10 5.782746e+10 -1.713367e+09
-6.239149e+10 -5.998637e+10 -1.320502e+08
-8.571886e+10 -5.057738e+09 2.382610e+09
3.785544e+10 7.830916e+10 -2.823512e+08
-4.784528e+10 7.387750e+10 1.290410e+09
-5.557057e+10 6.749355e+10 1.369728e+09
7.133119e+10 5.050630e+10 3.750731e+08