# vtk DataFile Version 2.0
Electric current density generated by TTH
ASCII
DATASET UNSTRUCTURED_GRID
POINTS 3953 double
3.264523e-05 -7.995774e-21 -2.528065e-22
3.212719e-05 5.792646e-06 -2.528065e-22
-1.245542e-05 3.017571e-05 -2.528065e-22
-5.693219e-06 3.102795e-05 -1.029976e-06
-2.461292e-05 1.973244e-05 -1.029995e-06
-3.059456e-05 4.450854e-06 -7.617839e-07
-2.072729e-05 2.375394e-05 -1.028458e-06
-1.999251e-05 2.526002e-05 8.388796e-07
1.921015e-06 3.095192e-05 8.387178e-07
-3.226435e-05 2.618597e-19 -8.007415e-07
-2.898363e-05 1.096997e-05 8.230217e-07
3.027559e-05 -5.518031e-06 -6.015761e-07
3.027559e-05 5.518031e-06 -6.015761e-07
-1.305104e-05 2.992292e-05 -2.528065e-22
-3.023360e-05 -4.732266e-06 2.062098e-07
7.570328e-06 -2.968279e-05 3.236224e-07
3.992054e-06 -3.037194e-05 3.243011e-07
-3.276350e-06 -3.045746e-05 3.243082e-07
-1.036029e-05 -2.882804e-05 3.243083e-07
-1.686087e-05 -2.557543e-05 3.243083e-07
-1.370740e-05 -2.739523e-05 3.243083e-07
-2.241209e-05 -2.088276e-05 3.243083e-07
-2.670137e-05 -1.501427e-05 3.243083e-07
-1.977617e-05 -2.339433e-05 3.243083e-07
-1.364153e-05 2.965838e-05 -2.528065e-22
-2.829414e-05 -1.174025e-05 3.243083e-07
-2.473142e-05 -1.807619e-05 3.243083e-07
-2.948721e-05 -8.300378e-06 3.243083e-07
-6.866820e-06 -2.985362e-05 3.243083e-07
3.604029e-07 -3.063106e-05 3.243084e-07
-1.515868e-05 2.829808e-05 -9.087686e-07
2.515567e-05 -1.780447e-05 -6.593256e-07
2.515567e-05 1.780447e-05 -6.593256e-07
1.495106e-05 2.686541e-05 -5.591515e-07
2.819491e-05 -1.259044e-05 7.249389e-07
-1.422666e-05 2.938219e-05 -2.528065e-22
2.819491e-05 1.259044e-05 7.249389e-07
1.222090e-05 2.805882e-05 -2.203872e-07
9.870656e-06 3.074621e-05 7.776247e-07
2.634164e-05 -1.604819e-05 -6.897370e-07
2.634164e-05 1.604819e-05 -6.897370e-07
-2.848148e-05 1.502643e-05 -8.474406e-07
-3.221904e-05 1.918080e-06 -7.910551e-07
-1.169705e-05 3.000512e-05 -8.459261e-07
-1.261250e-05 2.971773e-05 -7.848489e-07
-4.293460e-06 3.191699e-05 -8.459260e-07
-1.480621e-05 2.909445e-05 -2.528065e-22
-3.353322e-06 3.210879e-05 -7.848489e-07
-2.413643e-05 2.132046e-05 -8.459115e-07
-2.355109e-05 2.208083e-05 -7.848728e-07
-2.898818e-05 1.421363e-05 -7.832139e-07
7.621037e-06 3.131311e-05 8.295880e-07
3.042025e-05 -1.062802e-05 -8.323837e-07
3.042025e-05 1.062802e-05 -8.323837e-07
-3.001712e-05 1.185335e-05 7.938425e-07
2.504786e-05 -1.843968e-05 8.975115e-07
2.504786e-05 1.843968e-05 8.975115e-07
-1.537994e-05 2.879528e-05 -2.528065e-22
-3.096172e-05 8.925526e-06 -8.329922e-07
3.141894e-05 6.900424e-06 -8.704351e-07
3.141894e-05 -6.900424e-06 -8.704351e-07
-3.006724e-05 1.155870e-05 -8.402895e-07
-2.975353e-05 1.249776e-05 -7.946554e-07
3.386812e-06 3.201066e-05 8.563129e-07
2.446756e-05 -1.887817e-05 -7.499007e-07
2.446756e-05 1.887817e-05 -7.499007e-07
-1.994763e-05 2.528649e-05 -8.438955e-07
-1.651112e-05 2.721835e-05 -1.008058e-06
-1.594762e-05 2.848481e-05 -2.528065e-22
-3.195339e-05 4.535496e-06 7.930673e-07
-1.623748e-05 -2.777916e-05 -8.647067e-07
-1.941863e-05 -2.565646e-05 -8.647067e-07
-3.068889e-05 -9.681337e-06 -8.626827e-07
-3.164907e-05 -6.110904e-06 -8.247758e-07
-2.235913e-05 -2.313348e-05 -8.672145e-07
-2.541126e-05 -1.974810e-05 -8.608051e-07
-2.901226e-05 -1.391495e-05 -8.647067e-07
-9.282465e-06 -3.080462e-05 -8.672145e-07
-2.442157e-06 -3.208695e-05 -8.626827e-07
-1.650904e-05 2.816314e-05 -2.528065e-22
2.111324e-06 -3.210732e-05 -8.647055e-07
5.855412e-06 -3.163547e-05 -8.672133e-07
-5.542258e-07 3.222783e-05 8.255514e-07
-3.071737e-05 2.547083e-06 -6.639391e-07
2.731952e-05 1.482544e-05 -8.856256e-07
2.731952e-05 -1.482544e-05 -8.856256e-07
2.098392e-05 -2.344522e-05 -1.021387e-06
2.098392e-05 2.344522e-05 -1.021387e-06
2.903397e-06 3.098014e-05 -9.045295e-07
3.144428e-05 6.951088e-06 8.466603e-07
-1.706398e-05 2.783040e-05 -2.528065e-22
3.144428e-05 -6.951088e-06 8.466603e-07
3.170807e-05 -6.072517e-06 7.840780e-07
3.170807e-05 6.072517e-06 7.840780e-07
2.476541e-05 -2.066013e-05 -8.109345e-07
2.476541e-05 2.066013e-05 -8.109345e-07
-1.927150e-05 2.589686e-05 -7.872343e-07
1.279675e-05 -2.953154e-05 -8.592691e-07
-3.080857e-05 1.827278e-06 7.087457e-07
-3.036417e-05 5.781786e-06 7.554355e-07
-2.943661e-05 1.016265e-05 9.181457e-07
-1.761221e-05 2.748674e-05 -2.528065e-22
-2.746827e-05 -1.677353e-05 -8.593858e-07
-1.295960e-05 -2.946025e-05 -8.593858e-07
-6.081830e-06 -3.160489e-05 -8.593858e-07
2.929564e-05 1.345470e-05 8.217696e-07
2.929564e-05 -1.345470e-05 8.217696e-07
9.061764e-06 3.095382e-05 -8.098579e-07
3.209598e-05 -3.282108e-06 -8.015468e-07
3.209598e-05 3.282108e-06 -8.015468e-07
-2.156090e-05 2.398371e-05 8.118565e-07
-1.508277e-05 2.850682e-05 8.113959e-07
3.200607e-05 6.428252e-06 -2.528065e-22
-1.815353e-05 2.713227e-05 -2.528065e-22
3.010054e-05 6.775850e-06 6.991498e-07
3.010054e-05 -6.775850e-06 6.991498e-07
3.220908e-05 8.294182e-07 8.350356e-07
3.220908e-05 -8.294182e-07 8.350356e-07
1.684782e-05 -2.755666e-05 7.713607e-07
1.947390e-05 2.573050e-05 -7.968982e-07
1.947390e-05 -2.573050e-05 -7.968982e-07
1.198534e-05 -2.992493e-05 8.231017e-07
1.924659e-05 -2.586627e-05 8.190245e-07
1.924659e-05 2.586627e-05 8.190245e-07
-1.868771e-05 2.676715e-05 -2.528065e-22
2.164658e-05 2.393443e-05 -7.951075e-07
2.164658e-05 -2.393443e-05 -7.951075e-07
2.657896e-05 1.839105e-05 7.507586e-07
2.657896e-05 -1.839105e-05 7.507586e-07
1.118103e-05 -3.031749e-05 -7.580733e-07
1.312185e-05 2.940625e-05 -8.482796e-07
3.195471e-05 -4.427466e-06 8.042823e-07
3.195471e-05 4.427466e-06 8.042823e-07
-2.811154e-05 1.322617e-05 -8.762004e-07
-2.846816e-05 1.238269e-05 -8.615132e-07
-1.921455e-05 2.639151e-05 -2.528065e-22
3.046981e-05 5.423172e-06 7.898911e-07
3.046981e-05 -5.423172e-06 7.898911e-07
-2.749909e-05 1.675726e-05 8.472505e-07
-2.580185e-05 1.730789e-05 -8.772800e-07
-2.524581e-05 1.802505e-05 -8.449096e-07
-2.172055e-05 2.221531e-05 -8.773169e-07
-2.232538e-05 2.153819e-05 -8.456261e-07
-1.259399e-05 2.840235e-05 -8.773201e-07
-1.339717e-05 2.797906e-05 -8.455789e-07
-8.180911e-06 2.997290e-05 -8.773201e-07
-1.973384e-05 2.600551e-05 -2.528065e-22
-7.290898e-06 3.015220e-05 -8.455788e-07
-1.881321e-06 3.101230e-05 -8.773201e-07
-2.781757e-06 3.089618e-05 -8.455788e-07
-2.901558e-05 1.406874e-05 8.149771e-07
9.480745e-06 -3.077733e-05 -8.459219e-07
-3.199047e-05 -4.209216e-06 -7.992279e-07
-9.815917e-06 3.067281e-05 8.454329e-07
-6.262671e-06 3.159039e-05 8.454328e-07
-2.541142e-05 1.978468e-05 8.454292e-07
2.735085e-05 1.400584e-05 5.316670e-07
-2.024538e-05 2.560928e-05 -2.528065e-22
2.735085e-05 -1.400584e-05 5.316670e-07
-3.207035e-05 2.983894e-06 8.428413e-07
3.105399e-05 2.831894e-06 9.382255e-07
3.105399e-05 -2.831894e-06 9.382255e-07
2.279025e-05 -2.042854e-05 2.257507e-07
2.279025e-05 2.042854e-05 2.257507e-07
-3.020606e-05 7.044189e-06 8.423374e-07
-2.224359e-05 2.335016e-05 -8.128704e-07
-1.425469e-05 2.892771e-05 -8.128560e-07
-1.533943e-06 3.221266e-05 -8.128560e-07
-2.074896e-05 2.520300e-05 -2.528065e-22
-5.601070e-07 3.225298e-05 -8.059858e-07
-7.269613e-06 3.142089e-05 -8.115028e-07
-8.895484e-06 3.099805e-05 -8.128560e-07
1.802876e-05 2.492475e-05 -5.834774e-07
1.802876e-05 -2.492475e-05 -5.834774e-07
-2.606148e-05 1.899839e-05 -8.112624e-07
-2.701367e-05 1.761456e-05 -8.128216e-07
-2.754145e-05 1.679581e-05 -8.052147e-07
2.370953e-05 2.191694e-05 -7.811924e-07
2.370953e-05 -2.191694e-05 -7.811924e-07
-2.124440e-05 2.478682e-05 -2.528065e-22
-9.830155e-06 3.072611e-05 -8.040313e-07
-6.276019e-06 3.164392e-05 -8.040312e-07
1.394168e-05 -2.767414e-05 8.210334e-07
-2.545641e-05 1.981686e-05 -8.038976e-07
-1.783707e-05 2.690524e-05 7.870342e-07
-2.329489e-05 1.981646e-05 -7.165158e-08
-4.641827e-06 3.022908e-05 -7.155736e-08
-1.057498e-05 2.869692e-05 -7.155738e-08
-2.153483e-05 2.402649e-05 -8.003259e-07
-2.755997e-05 1.392009e-05 7.224457e-07
-2.173149e-05 2.436090e-05 -2.528065e-22
3.052303e-05 -4.112055e-06 6.342547e-07
3.052303e-05 4.112055e-06 6.342547e-07
1.445673e-05 2.884504e-05 8.001685e-07
-2.677441e-05 1.479041e-05 -1.207691e-07
-2.269656e-05 2.091858e-05 7.123950e-07
-3.467986e-06 3.067073e-05 7.123972e-07
-1.181589e-05 2.851500e-05 7.123972e-07
-1.549272e-05 2.637609e-05 -1.335457e-07
-3.053993e-05 1.035957e-05 8.128651e-07
2.221935e-05 -2.160706e-05 -8.251337e-07
-2.221004e-05 2.392540e-05 -2.528065e-22
2.221935e-05 2.160706e-05 -8.251337e-07
-1.578411e-06 -3.224262e-05 -7.867120e-07
-3.051174e-05 -1.054093e-05 -7.867120e-07
-1.023677e-05 -3.067267e-05 -7.368905e-07
-2.314705e-05 -2.257915e-05 -7.368905e-07
-1.350001e-05 2.788836e-05 8.183438e-07
-3.068888e-05 3.526151e-06 7.373448e-07
-1.946203e-05 2.360130e-05 -1.419770e-07
2.539838e-06 3.220759e-05 7.635515e-07
1.112063e-05 3.034968e-05 -7.493024e-07
-2.267987e-05 2.348051e-05 -2.528065e-22
7.315356e-06 3.144793e-05 -7.812891e-07
-2.703635e-06 3.222585e-05 7.336727e-07
-2.155961e-05 2.243903e-05 9.056586e-07
2.070881e-05 -2.478332e-05 7.734285e-07
2.070881e-05 2.478332e-05 7.734285e-07
1.577882e-05 -2.619664e-05 3.830821e-08
1.577882e-05 2.619664e-05 3.830821e-08
-1.615788e-06 3.106674e-05 9.005547e-07
3.189752e-05 5.076030e-06 -7.713695e-07
3.189752e-05 -5.076030e-06 -7.713695e-07
3.187238e-05 7.061333e-06 -2.528065e-22
-2.314078e-05 2.302640e-05 -2.528065e-22
-1.321473e-05 2.950836e-05 7.403876e-07
-2.314703e-05 2.257405e-05 7.403849e-07
-3.185362e-05 -5.093669e-06 8.056145e-07
-3.105059e-05 -8.834335e-06 7.852995e-07
-7.148529e-06 -3.148148e-05 7.852995e-07
-1.083314e-05 -3.041098e-05 7.852995e-07
-1.769338e-05 -2.700239e-05 7.852995e-07
-1.429526e-06 -3.225122e-05 7.852995e-07
-2.355737e-05 -2.207340e-05 7.852995e-07
-2.898171e-05 -1.422129e-05 7.852995e-07
-2.359261e-05 2.256324e-05 -2.528065e-22
-1.436472e-05 -2.891089e-05 7.852995e-07
9.907538e-06 -3.069917e-05 8.056141e-07
4.701691e-07 -3.227946e-05 7.852995e-07
-2.978313e-05 -1.245592e-05 7.852995e-07
-2.218986e-05 -2.344770e-05 7.852995e-07
-2.077209e-05 -2.471245e-05 7.852995e-07
4.296629e-06 -3.199568e-05 7.852995e-07
[...]
POINT_DATA 3953
VECTORS 10.000GHz_fone_imag double
2.058892e-06 2.602385e-06 1.790010e-02
3.862331e-04 2.764118e-04 1.784801e-02
-9.567974e-05 -3.548577e-04 1.801587e-02
-3.288581e-03 2.005932e-02 -1.977653e-03
-1.561045e-02 1.303008e-02 -1.998991e-03
-1.564166e-02 2.379014e-03 -1.543275e-02
-1.338316e-02 1.531039e-02 -2.780253e-03
9.759030e-03 -1.237058e-02 1.037197e-02
-1.181897e-03 -1.746279e-02 -1.331787e-02
-1.480718e-02 -1.532817e-04 1.130389e-02
1.576269e-02 -6.242045e-03 -1.373832e-02
1.315243e-02 -2.227866e-03 -1.824955e-02
1.315251e-02 2.228672e-03 -1.825048e-02
-2.549187e-05 3.828610e-04 1.787053e-02
4.314790e-03 8.324640e-04 -2.233842e-02
-1.662664e-03 6.873097e-03 -2.168173e-02
-8.044531e-04 6.907005e-03 -2.186561e-02
4.106876e-04 6.495872e-03 -2.183318e-02
2.418597e-03 6.422432e-03 -2.184642e-02
3.326297e-03 5.563338e-03 -2.186968e-02
3.030508e-03 5.876223e-03 -2.208815e-02
5.057088e-03 4.585371e-03 -2.170389e-02
5.841963e-03 3.295530e-03 -2.174576e-02
4.344380e-03 5.105212e-03 -2.198248e-02
-2.282013e-04 -1.053949e-04 1.796083e-02
5.887599e-03 2.757499e-03 -2.188116e-02
5.606662e-03 4.021097e-03 -2.184108e-02
6.454014e-03 1.726700e-03 -2.189419e-02
1.541610e-03 6.538466e-03 -2.189989e-02
-3.567678e-04 6.501371e-03 -2.188021e-02
-8.098342e-03 1.490408e-02 8.667778e-03
1.165736e-02 -8.138113e-03 -1.723161e-02
1.165782e-02 8.138539e-03 -1.723270e-02
6.135559e-03 1.077154e-02 -1.899939e-02
-1.393991e-02 6.383530e-03 -1.600487e-02
1.856379e-04 -1.299053e-04 1.788007e-02
-1.394016e-02 -6.383814e-03 -1.600615e-02
1.989202e-03 4.422955e-03 -2.247629e-02
-4.264266e-03 -1.357097e-02 1.147257e-02
1.236041e-02 -7.437371e-03 -1.678867e-02
1.236070e-02 7.438347e-03 -1.678884e-02
-1.403994e-02 7.373945e-03 1.033650e-02
-1.454733e-02 8.098935e-04 1.127984e-02
-5.698402e-03 1.470602e-02 1.015391e-02
-5.806970e-03 1.359900e-02 1.149565e-02
-2.173655e-03 1.547858e-02 1.033670e-02
1.111194e-04 2.312605e-04 1.788201e-02
-1.576087e-03 1.463613e-02 1.136767e-02
-1.178139e-02 1.028109e-02 1.033781e-02
-1.074841e-02 1.006084e-02 1.139980e-02
-1.304271e-02 6.242861e-03 1.193161e-02
-3.676154e-03 -1.483274e-02 1.070892e-02
1.460634e-02 -5.085119e-03 1.066851e-02
1.460572e-02 5.084994e-03 1.066843e-02
1.386818e-02 -5.639308e-03 1.124194e-02
-1.471468e-02 1.123879e-02 -1.129290e-02
-1.471618e-02 -1.123973e-02 -1.129123e-02
-2.843054e-04 4.844374e-04 1.778918e-02
-1.495061e-02 4.381559e-03 1.075258e-02
1.562407e-02 3.347212e-03 9.613415e-03
1.562410e-02 -3.348063e-03 9.614104e-03
-1.468873e-02 5.611346e-03 1.048676e-02
-1.369313e-02 5.926071e-03 1.143378e-02
-1.473623e-03 -1.573577e-02 1.003170e-02
1.252462e-02 -9.569080e-03 -1.545068e-02
1.252489e-02 9.571561e-03 -1.545011e-02
-9.507140e-03 1.223574e-02 1.027383e-02
-1.025824e-02 1.670056e-02 3.573219e-03
-2.024491e-04 -4.001729e-04 1.800360e-02
1.446781e-02 -2.027746e-03 1.125215e-02
-8.145288e-03 -1.387427e-02 9.936001e-03
-9.552900e-03 -1.269474e-02 1.023532e-02
-1.520076e-02 -4.774737e-03 1.006132e-02
-1.516162e-02 -3.065355e-03 1.070453e-02
-1.098724e-02 -1.133059e-02 9.870821e-03
-1.272749e-02 -9.855005e-03 1.012436e-02
-1.449612e-02 -6.896187e-03 9.975018e-03
-4.693163e-03 -1.517209e-02 9.812977e-03
-1.226772e-03 -1.590167e-02 1.006404e-02
1.808947e-04 -4.755563e-04 1.800172e-02
9.857541e-04 -1.601965e-02 9.965193e-03
2.897295e-03 -1.582092e-02 1.001146e-02
2.256470e-04 -1.538389e-02 1.071460e-02
-1.410681e-02 1.039873e-03 -1.698878e-02
1.596922e-02 8.591597e-03 -1.160855e-02
1.596840e-02 -8.591432e-03 -1.160813e-02
1.362212e-02 -1.523853e-02 -4.050743e-03
1.361936e-02 1.524132e-02 -4.050305e-03
1.604073e-03 1.839012e-02 -1.093357e-02
-1.564259e-02 -3.396919e-03 1.013055e-02
3.665002e-04 -2.500703e-04 1.794549e-02
-1.564371e-02 3.397308e-03 1.013251e-02
-1.413828e-02 2.755692e-03 1.170377e-02
-1.413805e-02 -2.755382e-03 1.170298e-02
1.148721e-02 -9.757244e-03 1.078580e-02
1.148884e-02 9.757999e-03 1.078345e-02
-8.640892e-03 1.152689e-02 1.145565e-02
6.332735e-03 -1.459097e-02 9.883707e-03
1.472155e-02 -8.384957e-04 -1.650890e-02
1.573643e-02 -3.254219e-03 -1.524797e-02
1.784089e-02 -5.605528e-03 -1.017020e-02
1.127423e-04 7.701649e-05 1.797049e-02
-1.353602e-02 -8.452562e-03 1.018880e-02
-6.403226e-03 -1.450768e-02 1.014965e-02
-2.836575e-03 -1.567714e-02 1.019472e-02
-1.405922e-02 -6.625128e-03 1.081303e-02
-1.405925e-02 6.625569e-03 1.081244e-02
4.145810e-03 1.436506e-02 1.110441e-02
1.491114e-02 -1.344931e-03 1.085877e-02
1.491243e-02 1.339729e-03 1.086339e-02
1.008939e-02 -1.129899e-02 1.107467e-02
7.121166e-03 -1.317110e-02 1.144897e-02
2.161811e-04 8.524019e-05 1.782202e-02
-1.178947e-04 2.308755e-04 1.806664e-02
-1.471813e-02 -3.275934e-03 -1.663132e-02
-1.471793e-02 3.276353e-03 -1.663195e-02
-1.560068e-02 -4.893657e-04 1.038593e-02
-1.564019e-02 4.868589e-04 1.051056e-02
-7.261483e-03 1.202284e-02 1.192692e-02
9.149070e-03 1.194146e-02 1.114806e-02
9.154279e-03 -1.194902e-02 1.115550e-02
-5.696105e-03 1.423961e-02 1.087093e-02
-8.895685e-03 1.211320e-02 1.076603e-02
-8.877909e-03 -1.211256e-02 1.077672e-02
2.179796e-04 -5.470813e-05 1.799749e-02
9.794150e-03 1.075923e-02 1.128222e-02
9.796731e-03 -1.075789e-02 1.128352e-02
-1.125583e-02 -7.748063e-03 1.242351e-02
-1.125649e-02 7.748466e-03 1.242238e-02
4.849883e-03 -1.309541e-02 1.196550e-02
6.314995e-03 1.425988e-02 1.025071e-02
-1.462500e-02 2.013487e-03 1.148052e-02
-1.462510e-02 -2.014292e-03 1.147839e-02
-1.653823e-02 7.730175e-03 -1.235791e-02
-1.645291e-02 7.168294e-03 -1.246808e-02
-3.275818e-05 6.966037e-05 1.789037e-02
-1.631759e-02 -2.860579e-03 -1.492863e-02
-1.631913e-02 2.860831e-03 -1.492802e-02
1.335024e-02 -8.114752e-03 1.020319e-02
-1.499044e-02 9.958036e-03 -1.206817e-02
-1.416679e-02 1.013356e-02 -1.309003e-02
-1.240294e-02 1.325009e-02 -1.181333e-02
-1.281379e-02 1.216072e-02 -1.320327e-02
-7.302911e-03 1.647960e-02 -1.204959e-02
-7.450227e-03 1.583117e-02 -1.313427e-02
-4.701119e-03 1.722234e-02 -1.225989e-02
4.907314e-05 -1.321511e-04 1.787617e-02
-4.061942e-03 1.703520e-02 -1.297868e-02
-6.316226e-04 1.819182e-02 -1.169829e-02
-1.684662e-03 1.758318e-02 -1.316219e-02
1.266059e-02 -6.900774e-03 1.099260e-02
4.379339e-03 -1.472661e-02 1.059722e-02
-1.467056e-02 -1.639090e-03 1.159563e-02
4.368925e-03 -1.494187e-02 1.067398e-02
3.260395e-03 -1.520051e-02 1.042398e-02
1.239417e-02 -9.377371e-03 1.041476e-02
-9.971004e-03 -5.031629e-03 -1.958809e-02
1.465871e-04 -4.527016e-05 1.789554e-02
-9.974599e-03 5.034736e-03 -1.958767e-02
1.549483e-02 -1.606993e-03 1.051133e-02
-1.911570e-02 -1.588486e-03 -9.731882e-03
-1.912105e-02 1.595553e-03 -9.735822e-03
-3.354582e-03 3.297418e-03 -2.250091e-02
-3.355597e-03 -3.297197e-03 -2.250023e-02
1.724013e-02 -4.030045e-03 -1.270407e-02
-1.043725e-02 1.095029e-02 1.098048e-02
-6.847814e-03 1.379581e-02 1.107691e-02
-7.186459e-04 1.502942e-02 1.109381e-02
-2.563948e-05 -2.272063e-04 1.797994e-02
-2.283411e-04 1.500307e-02 1.109329e-02
-3.223636e-03 1.498035e-02 1.094470e-02
-4.272132e-03 1.465398e-02 1.094224e-02
7.276424e-03 1.008188e-02 -1.876214e-02
7.293628e-03 -1.004329e-02 -1.877534e-02
-1.231264e-02 9.300423e-03 1.093406e-02
-1.272501e-02 8.247568e-03 1.098797e-02
-1.278004e-02 7.751457e-03 1.117006e-02
1.021972e-02 9.820803e-03 1.188063e-02
1.021829e-02 -9.820083e-03 1.188257e-02
3.030030e-04 -5.218123e-05 1.791201e-02
-4.642867e-03 1.393476e-02 1.127554e-02
-2.875734e-03 1.466037e-02 1.136548e-02
-7.419864e-03 1.524030e-02 -1.381376e-02
-1.178440e-02 9.223926e-03 1.137610e-02
7.952820e-03 -1.183010e-02 1.115401e-02
-9.850337e-04 1.000222e-03 -2.297347e-02
-8.611352e-05 1.405052e-03 -2.297652e-02
-7.241587e-04 1.352920e-03 -2.279428e-02
-9.923768e-03 1.107740e-02 1.116099e-02
1.359021e-02 -7.064136e-03 -1.651061e-02
-3.766821e-05 8.624231e-05 1.787602e-02
-1.323026e-02 1.619604e-03 -1.813499e-02
-1.323013e-02 -1.616102e-03 -1.813427e-02
-6.524168e-03 -1.334670e-02 1.151851e-02
-2.016129e-03 9.240302e-04 -2.279257e-02
1.061190e-02 -9.038012e-03 -1.672453e-02
2.109250e-03 -1.377566e-02 -1.674587e-02
5.368739e-03 -1.357213e-02 -1.638915e-02
-1.771316e-03 2.753269e-03 -2.294002e-02
1.431339e-02 -4.936597e-03 1.103574e-02
1.232797e-02 -1.189229e-02 -1.404523e-02
-4.059929e-04 6.445594e-05 1.784875e-02
1.232780e-02 1.189232e-02 -1.404377e-02
-7.412811e-04 -1.469506e-02 1.153117e-02
-1.391194e-02 -4.781412e-03 1.152062e-02
-4.181575e-03 -1.298848e-02 1.229416e-02
-9.768418e-03 -9.620652e-03 1.219182e-02
6.987272e-03 -1.505225e-02 -1.433606e-02
1.501692e-02 -1.542526e-03 -1.636600e-02
-2.529200e-03 2.841042e-03 -2.266929e-02
-1.222432e-03 -1.427910e-02 1.184293e-02
4.510742e-03 1.306094e-02 1.232139e-02
-1.409106e-05 -1.669310e-04 1.789268e-02
3.351609e-03 1.378164e-02 1.194653e-02
1.232805e-03 -1.349851e-02 1.248301e-02
1.287881e-02 -1.356041e-02 -1.101637e-02
-9.051203e-03 1.108988e-02 1.165977e-02
-9.031629e-03 -1.105914e-02 1.168979e-02
-8.888708e-04 1.062838e-03 -2.287348e-02
-3.591588e-04 -6.546245e-04 -2.278136e-02
7.375398e-04 -1.874471e-02 -1.095796e-02
1.345891e-02 2.262060e-03 1.214651e-02
1.345842e-02 -2.262876e-03 1.214610e-02
1.373346e-04 9.883761e-05 1.776736e-02
2.168911e-04 -5.875107e-05 1.786326e-02
5.274160e-03 -1.245236e-02 1.250456e-02
9.858802e-03 -9.481736e-03 1.234765e-02
1.459482e-02 2.330020e-03 1.102020e-02
1.393234e-02 3.750730e-03 1.156068e-02
3.332015e-03 1.406311e-02 1.158948e-02
4.822174e-03 1.360820e-02 1.140081e-02
8.101937e-03 1.190518e-02 1.163368e-02
8.372782e-04 1.420480e-02 1.159274e-02
1.057829e-02 9.872023e-03 1.140911e-02
1.291340e-02 6.165214e-03 1.154438e-02
1.586814e-04 1.357752e-04 1.781014e-02
6.471084e-03 1.305649e-02 1.164394e-02
-4.703276e-03 1.396683e-02 1.111744e-02
3.962798e-05 1.437214e-02 1.164155e-02
1.336350e-02 5.322977e-03 1.164168e-02
9.884307e-03 1.021254e-02 1.158068e-02
9.374288e-03 1.087803e-02 1.166289e-02
-1.820302e-03 1.416731e-02 1.154254e-02
-2.652100e-03 1.415160e-02 1.146614e-02
1.167009e-02 8.490493e-03 1.138465e-02
-9.300364e-04 1.426751e-02 1.156804e-02
1.526597e-05 8.273295e-05 1.804103e-02
1.209098e-02 8.014871e-03 1.141517e-02
8.622935e-03 1.140974e-02 1.150144e-02
1.799194e-03 1.427364e-02 1.158702e-02
1.103129e-02 9.382178e-03 1.139910e-02
2.216539e-03 1.432282e-02 1.143363e-02
1.263077e-02 6.991698e-03 1.159444e-02
7.235947e-03 1.235312e-02 1.154896e-02
-3.583173e-03 1.399730e-02 1.141855e-02
5.732935e-03 1.316310e-02 1.148223e-02
1.350113e-02 4.515448e-03 1.160436e-02
-2.887810e-05 -2.911186e-04 1.778782e-02
4.090115e-03 1.376696e-02 1.148027e-02
1.403487e-02 3.233643e-03 1.143672e-02
1.477058e-02 1.192026e-03 1.108436e-02
1.681460e-02 9.806160e-03 -8.382637e-03
1.681408e-02 -9.805347e-03 -8.382483e-03
1.743147e-02 -5.130886e-03 -1.204801e-02
2.977558e-03 5.833472e-03 -2.163105e-02
-6.985156e-03 1.564935e-02 -1.337258e-02
-2.272257e-04 3.242510e-03 -2.280098e-02
1.371974e-02 7.154999e-03 1.076794e-02
1.557938e-04 -2.745423e-04 1.786564e-02
1.372034e-02 -7.155092e-03 1.077037e-02
9.619062e-04 1.398665e-02 1.205902e-02
2.443969e-03 1.320612e-02 1.279693e-02
-1.404223e-02 -3.684199e-03 1.176371e-02
-1.404438e-02 3.682760e-03 1.176664e-02
-5.480600e-03 -2.985996e-03 -2.196087e-02
-5.480741e-03 2.986117e-03 -2.196032e-02
8.610151e-03 1.222101e-02 1.116653e-02
8.637196e-03 -1.225412e-02 1.117689e-02
8.847404e-03 -1.201699e-02 1.140963e-02
1.196331e-04 -6.402143e-05 1.789017e-02
-1.770969e-02 -3.635682e-04 -1.260868e-02
5.911589e-03 -1.825166e-03 -2.207951e-02
-5.963099e-04 3.225281e-04 -2.298040e-02
5.910937e-03 1.825619e-03 -2.208133e-02
-6.244332e-04 -3.317592e-04 -2.299052e-02
1.168743e-02 -5.094623e-03 1.336990e-02
1.168863e-02 5.094882e-03 1.336993e-02
-3.073334e-03 -1.770304e-02 -1.175494e-02
2.441188e-03 1.625950e-02 -1.425650e-02
1.153390e-02 -7.812657e-03 1.261773e-02
2.848240e-05 -4.654739e-04 1.766905e-02
-1.155045e-02 9.379739e-03 -1.638333e-02
-1.155096e-02 -9.379832e-03 -1.638207e-02
3.484999e-03 -1.351207e-02 1.266662e-02
-6.349534e-03 -1.590636e-02 -1.349845e-02
9.666631e-03 -9.827254e-03 1.240758e-02
9.668410e-03 9.829863e-03 1.240439e-02
-5.303444e-03 -1.803380e-02 -1.066177e-02
1.511057e-04 -3.698054e-04 -2.305310e-02
-5.371621e-03 1.769521e-02 -1.051430e-02
-7.818749e-04 5.004781e-04 -2.276833e-02
4.583289e-04 -7.678868e-05 1.785991e-02
-1.916023e-02 6.689616e-03 -2.552160e-03
5.696184e-04 -8.919274e-04 -2.303139e-02
-1.172269e-02 -5.981774e-03 1.279852e-02
-1.335267e-02 -3.403260e-03 1.230906e-02
-1.116645e-02 -7.906917e-03 1.241977e-02
-9.213349e-03 -1.008687e-02 1.227985e-02
-1.017457e-02 -9.186064e-03 1.240064e-02
-1.291024e-02 -4.748497e-03 1.228097e-02
-8.036416e-03 -1.118791e-02 1.226005e-02
-6.649499e-03 -1.201779e-02 1.216747e-02
6.472376e-05 -7.604614e-06 1.805041e-02
-4.623187e-03 -1.254057e-02 1.272973e-02
-3.452082e-03 -1.271837e-02 1.281596e-02
-1.819168e-03 -1.347610e-02 1.244037e-02
-3.918876e-04 -1.375139e-02 1.228875e-02
1.476022e-03 -1.362066e-02 1.233859e-02
-7.643085e-03 2.548297e-03 -2.152984e-02
-1.082022e-02 -8.834109e-03 1.220617e-02
-1.081902e-02 8.834655e-03 1.220783e-02
3.201524e-03 -1.303877e-02 1.260750e-02
-2.006472e-02 -2.814853e-03 -5.961740e-03
4.775113e-04 -1.616472e-04 1.802985e-02
6.744536e-03 8.679371e-03 -1.998302e-02
6.746188e-03 -8.675778e-03 -1.998038e-02
-5.764471e-03 1.155895e-02 1.343633e-02
-2.976683e-03 1.877393e-02 -1.003393e-02
-8.232303e-04 1.903199e-02 -1.003942e-02
1.428850e-03 1.900326e-02 -1.005951e-02
3.551101e-03 1.839292e-02 -1.022112e-02
8.172663e-03 1.730892e-02 -9.993487e-03
5.745558e-03 1.798744e-02 -1.009005e-02
9.960870e-03 1.620711e-02 -1.005766e-02
-6.954279e-05 1.789537e-04 1.794638e-02
8.503586e-05 1.724300e-05 1.793093e-02
1.735772e-02 7.849796e-03 -1.002128e-02
1.476664e-02 1.157169e-02 -1.012550e-02
1.156453e-02 1.471049e-02 -1.027396e-02
1.616401e-02 9.861440e-03 -1.012265e-02
1.308059e-02 1.351902e-02 -1.056239e-02
1.807330e-02 5.678214e-03 -1.008211e-02
1.845216e-02 3.523160e-03 -1.034845e-02
-7.226016e-03 1.339980e-02 1.098184e-02
7.260319e-04 -1.469523e-02 1.133971e-02
7.759446e-04 -1.391612e-02 1.222820e-02
4.648583e-05 -9.673292e-05 1.799764e-02
2.366086e-03 -1.356020e-02 1.243804e-02
-8.615878e-03 -1.110017e-02 1.231883e-02
-7.169622e-03 -1.199387e-02 1.222731e-02
-1.159931e-02 -9.533813e-03 1.134412e-02
-1.442395e-02 -3.192565e-03 1.164068e-02
-1.262913e-02 -5.913341e-03 1.222066e-02
1.100040e-02 1.579043e-02 -9.415438e-03
1.102118e-02 -1.577697e-02 -9.501971e-03
-1.331100e-02 -4.230212e-03 1.218559e-02
-1.331152e-02 4.230585e-03 1.218605e-02
4.587935e-05 -9.924244e-05 1.787522e-02
1.170784e-02 -8.748317e-03 1.159167e-02
1.170657e-02 8.747316e-03 1.159221e-02
1.346196e-02 -2.955110e-03 1.212033e-02
-8.880032e-03 1.556899e-02 -1.222031e-02
-9.291519e-03 -1.556889e-02 -1.131799e-02
-2.049364e-02 -1.320317e-03 -3.038359e-03
-2.050934e-02 1.340152e-03 -3.051437e-03
6.026553e-03 2.372534e-03 -2.195127e-02
6.026800e-03 -2.371782e-03 -2.195093e-02
-1.242070e-02 6.136649e-03 1.262631e-02
2.342702e-04 -3.924074e-04 1.788045e-02
-1.242187e-02 -6.137000e-03 1.262660e-02
-1.130231e-02 8.660091e-03 1.224261e-02
-1.130207e-02 -8.659380e-03 1.224258e-02
-2.006016e-02 2.988867e-03 -1.601205e-03
1.003913e-02 -1.062069e-02 1.163770e-02
6.760971e-03 -1.307923e-02 1.153382e-02
4.351522e-03 6.405886e-03 -2.146855e-02
4.134235e-03 -6.900041e-03 -2.148932e-02
-8.843320e-03 6.882784e-03 -1.952950e-02
-2.211042e-03 1.102155e-02 -1.952870e-02
4.416903e-04 -3.856461e-04 1.788215e-02
-3.571163e-03 1.105613e-02 -1.961367e-02
-9.527929e-03 5.731634e-03 -1.962794e-02
4.298095e-03 1.387835e-02 1.170651e-02
8.135424e-03 -3.664557e-03 -2.105888e-02
6.887777e-03 -1.106831e-02 1.310080e-02
-7.128026e-03 8.495021e-03 -1.952128e-02
1.363606e-02 -9.935756e-03 -1.399363e-02
3.830061e-03 -1.650565e-02 -1.396566e-02
4.363666e-03 -1.563212e-02 -1.486759e-02
1.357596e-02 -8.906580e-03 -1.472068e-02
6.463712e-04 -1.287549e-04 1.787096e-02
-6.665787e-03 -1.259126e-02 1.237750e-02
-1.964915e-02 3.879523e-03 -7.180713e-03
-1.106787e-02 2.601979e-03 -1.949810e-02
1.028210e-02 -1.513917e-02 -1.192549e-02
-2.374839e-03 -1.315058e-02 1.288131e-02
5.482952e-03 1.262741e-02 1.247370e-02
5.835933e-03 -1.805112e-03 -2.237890e-02
-1.272501e-02 4.561836e-03 1.273945e-02
-1.272430e-02 -4.561860e-03 1.273936e-02
-1.265450e-02 -5.114308e-03 1.266930e-02
-3.689448e-05 -2.792777e-04 1.756525e-02
-1.265488e-02 5.113958e-03 1.267011e-02
-5.951266e-03 1.006137e-02 -1.897566e-02
-9.609254e-04 2.177044e-03 -2.308828e-02
2.914948e-03 9.546594e-03 -2.051405e-02
1.185692e-02 6.742232e-03 1.255827e-02
1.185754e-02 -6.741965e-03 1.255895e-02
2.135163e-03 -4.369349e-03 -2.248906e-02
-5.016722e-04 1.172770e-02 -1.913055e-02
-1.365251e-05 -2.003766e-02 -6.411750e-03
-4.710061e-03 -1.950727e-02 -6.430026e-03
2.955684e-04 -1.864424e-04 1.776669e-02
-1.671932e-02 -1.129761e-02 -6.097275e-03
-1.312434e-02 -1.514525e-02 -6.401154e-03
-1.761012e-02 -9.607497e-03 -6.403373e-03
-9.115455e-03 -1.775926e-02 -6.462883e-03
-1.859133e-02 -7.435083e-03 -6.412617e-03
-1.951439e-02 -4.727980e-03 -6.173466e-03
-1.519136e-02 -1.304476e-02 -6.545398e-03
-1.124005e-02 -1.653971e-02 -6.445618e-03
-7.425905e-03 -1.854121e-02 -7.001673e-03
-2.837300e-03 -1.992715e-02 -6.078213e-03
2.286190e-04 -6.264158e-05 1.782557e-02
2.423359e-03 -1.991246e-02 -6.367293e-03
3.366152e-03 1.563860e-02 -1.502211e-02
-9.044196e-04 -1.285231e-02 1.316876e-02
1.518191e-02 -4.555457e-04 -1.634665e-02
1.519204e-02 4.649091e-04 -1.638222e-02
1.223458e-02 -3.775702e-03 1.331226e-02
-2.087740e-03 -1.265891e-02 1.352005e-02
-5.033607e-03 -1.105746e-02 1.386948e-02
-1.081382e-02 -7.008397e-03 1.351212e-02
4.688221e-03 -1.973741e-02 -6.162748e-03
4.099448e-04 1.740708e-04 1.756202e-02
2.979184e-03 -1.180710e-02 1.379580e-02
-1.854024e-02 4.784025e-03 -1.003461e-02
-1.252600e-02 1.352269e-03 1.364498e-02
-1.252383e-02 -1.353515e-03 1.364099e-02
1.910841e-02 6.493862e-03 -5.074366e-03
1.910809e-02 -6.493969e-03 -5.075167e-03
5.816443e-03 -1.020406e-02 1.394527e-02
5.470435e-03 9.954843e-03 1.420613e-02
1.175811e-02 -1.230496e-02 -1.388162e-02
1.175686e-02 1.230480e-02 -1.388134e-02
-1.942588e-04 -1.737135e-04 1.780927e-02
3.663340e-04 -1.227496e-04 1.778175e-02
-7.100675e-04 -2.011657e-02 -5.963498e-03
9.044648e-03 -1.145728e-02 -1.677630e-02
1.135821e-02 -6.154058e-03 1.310830e-02
4.739322e-03 1.933249e-02 -6.254016e-03
-5.136077e-03 -1.283005e-02 1.228279e-02
-3.766310e-03 -1.820988e-02 -1.114715e-02
-1.372709e-02 -7.769274e-04 1.262486e-02
1.029538e-02 -1.612927e-02 -9.918294e-03
-1.853941e-02 -1.654238e-03 -1.148102e-02
-1.877688e-02 -6.244074e-03 -6.723880e-03
2.493165e-04 4.079680e-05 1.784809e-02
-1.877697e-02 6.244077e-03 -6.725674e-03
-7.476516e-03 -2.314298e-04 -2.170950e-02
1.437827e-02 -1.453561e-02 -4.380344e-03
1.437602e-02 1.453293e-02 -4.384003e-03
1.659721e-03 1.479778e-02 1.135288e-02
1.320629e-02 8.471035e-04 1.303567e-02
1.322544e-02 -8.722940e-04 1.299427e-02
8.265608e-03 1.733868e-02 -9.671681e-03
5.110736e-03 -1.145394e-02 1.357906e-02
-7.095112e-03 1.050830e-02 1.344945e-02
-1.100507e-04 1.002884e-04 1.791949e-02
-1.376380e-02 6.743093e-03 -1.576330e-02
-1.278688e-02 1.914400e-03 1.279033e-02
-5.319792e-03 1.119764e-02 1.372502e-02
-9.348776e-03 1.024119e-02 1.222050e-02
-9.346339e-03 -1.024311e-02 1.222036e-02
-5.732552e-04 -4.849552e-03 -2.255242e-02
2.006837e-02 -2.944111e-03 -3.993811e-03
-1.314159e-02 -7.796172e-03 1.110482e-02
-1.314285e-02 7.796780e-03 1.110368e-02
-1.192891e-02 1.055819e-02 -1.561257e-02
-9.777296e-05 -5.943911e-05 1.782998e-02
-5.720509e-03 1.469560e-02 -1.555593e-02
-2.105637e-03 1.580536e-02 -1.561495e-02
1.202364e-03 -6.719825e-03 -2.185115e-02
-4.814019e-04 -1.012564e-02 -2.070634e-02
-2.746006e-03 -7.420740e-03 -2.133147e-02
-6.339327e-03 -3.033185e-03 -2.183601e-02
-8.314499e-03 -4.962977e-03 -2.065604e-02
-8.017175e-03 -6.215310e-03 -2.043163e-02
-4.932981e-03 -5.098361e-03 -2.181426e-02
-4.777617e-03 -6.298298e-03 -2.145757e-02
2.444475e-04 -3.277421e-04 1.784777e-02
-3.531133e-03 -6.054033e-03 -2.181943e-02
-3.373894e-03 -7.313822e-03 -2.151919e-02