# vtk DataFile Version 2.0
Electric current density generated by TTH
ASCII
DATASET UNSTRUCTURED_GRID
POINTS 1569 double
1.660302e-05 -4.066566e-21 -5.132439e-22
1.425284e-05 8.515674e-06 -5.132439e-22
1.554432e-05 -5.833882e-06 -5.132439e-22
1.023916e-05 -9.735291e-06 2.060923e-06
5.966685e-07 -1.533715e-05 -1.919213e-06
1.129546e-05 1.195778e-05 -7.880456e-07
1.242489e-05 2.511284e-06 1.018323e-06
-7.700731e-07 1.445408e-05 -2.095218e-06
-3.087950e-06 -1.210025e-05 -5.592165e-07
-1.424740e-05 1.196450e-06 2.084930e-06
-1.201646e-05 -3.910947e-06 9.442880e-07
1.202481e-05 1.020029e-05 1.673707e-06
4.493523e-06 1.213131e-05 1.386995e-06
1.586539e-05 -4.893825e-06 -5.132439e-22
-9.044051e-06 8.939470e-06 -1.087729e-06
1.390481e-06 -1.236750e-05 -3.724380e-07
-4.720207e-06 1.496153e-05 -1.731028e-06
9.309419e-06 -1.120062e-05 2.094708e-06
-1.888423e-06 -1.239179e-05 7.067932e-07
1.241641e-05 7.888136e-07 -3.496822e-07
1.727587e-06 -1.567645e-05 1.671460e-06
1.196305e-05 -1.009120e-05 1.756141e-06
-7.408719e-06 1.319834e-05 -1.999153e-06
-1.201263e-05 -4.378194e-06 -1.194154e-06
1.612966e-05 -3.936249e-06 -5.132439e-22
-1.573877e-05 4.854769e-06 7.333157e-07
1.560098e-05 2.146630e-06 1.688889e-06
1.561059e-05 -2.094942e-06 1.687002e-06
1.145609e-05 5.001346e-06 6.014026e-07
-1.124392e-05 -5.617992e-06 -7.964368e-07
6.837143e-06 -1.063774e-05 9.611134e-07
1.051687e-05 -6.625106e-06 2.710627e-07
3.181002e-06 1.311817e-05 1.836451e-06
-1.024549e-05 1.289403e-05 7.375056e-07
-1.623435e-06 1.521791e-05 -1.938109e-06
1.633620e-05 -2.964583e-06 -5.132439e-22
1.640777e-05 8.597164e-07 8.331213e-07
1.640777e-05 -8.597164e-07 8.331213e-07
1.449076e-05 -6.974159e-07 2.095477e-06
-3.068850e-06 -1.317568e-05 -1.852628e-06
1.499718e-05 3.852019e-06 -1.854076e-06
-3.005006e-06 -1.402829e-05 2.089283e-06
-1.850216e-06 1.553347e-05 1.761000e-06
1.138501e-05 -1.190778e-05 7.221859e-07
-4.229595e-06 -1.262013e-05 1.719601e-06
3.181057e-06 1.368843e-05 -2.045628e-06
1.648425e-05 -1.982304e-06 -5.132439e-22
-9.014907e-06 -1.372042e-05 -8.630848e-07
-1.365299e-05 -9.208433e-06 7.396597e-07
1.490656e-05 5.161178e-06 1.668876e-06
-1.184454e-05 -1.134378e-05 -8.988638e-07
-9.243978e-06 1.172281e-05 2.052653e-06
4.487636e-06 1.490732e-05 -1.807246e-06
9.958411e-06 -8.525576e-06 -1.560811e-06
-1.218064e-05 1.008286e-05 -1.639619e-06
9.025694e-06 1.061452e-05 2.015204e-06
1.274057e-05 8.796681e-06 1.854922e-06
1.657330e-05 -9.929293e-07 -5.132439e-22
4.693725e-06 1.296208e-05 -1.967240e-06
5.861752e-06 -1.094664e-05 -1.478951e-07
9.274465e-06 -1.359580e-05 7.663050e-07
8.031673e-07 1.643707e-05 7.693362e-07
7.275812e-06 -1.366388e-05 -1.856016e-06
-1.442519e-05 -7.370872e-07 -2.094514e-06
-1.859560e-06 -1.366454e-05 1.968977e-06
-1.307261e-05 -1.688053e-06 -1.622256e-06
7.280661e-06 1.364694e-05 -1.862600e-06
-7.680608e-06 1.142110e-05 -1.958927e-06
1.639550e-05 -4.015739e-21 9.091936e-07
4.836483e-06 -1.159927e-05 7.912884e-07
1.019768e-05 -7.185256e-06 -5.089233e-07
7.770936e-07 -1.642858e-05 -7.935353e-07
-9.194319e-06 -1.068241e-05 -2.054328e-06
1.024924e-05 7.323272e-06 -8.601151e-07
5.311481e-06 1.146616e-05 9.438061e-07
-3.307811e-06 -1.279220e-05 1.647746e-06
4.523155e-06 -1.284999e-05 -1.899551e-06
-1.401316e-05 8.621787e-06 -7.783953e-07
-1.450870e-05 -4.415914e-07 2.095463e-06
1.581405e-05 -3.873324e-21 1.638310e-06
3.738484e-07 -1.571026e-05 1.712827e-06
1.229249e-05 2.327032e-06 -6.357053e-07
-5.888855e-06 -1.096475e-05 -3.759337e-07
1.182171e-05 -1.043920e-05 -1.671605e-06
2.106127e-06 1.521212e-05 -1.915478e-06
1.485437e-05 -7.153485e-06 -6.872788e-07
7.771817e-08 -1.401042e-05 2.035710e-06
-1.153181e-05 7.601873e-06 -1.976675e-06
1.567548e-05 -4.928349e-06 -8.292364e-07
-1.336139e-05 -8.094000e-06 -1.774691e-06
1.497383e-05 -3.667529e-21 2.042939e-06
-1.446461e-05 6.510324e-06 1.598727e-06
-4.586839e-06 1.347555e-05 2.077653e-06
-1.549519e-05 2.898060e-07 1.846675e-06
1.213363e-05 1.113075e-05 -7.461358e-07
9.539532e-06 9.859703e-06 1.941532e-06
1.488643e-05 -5.175421e-06 1.679681e-06
7.970822e-06 1.438905e-05 -7.878217e-07
-7.101062e-06 -1.174565e-05 1.944021e-06
-7.111733e-06 1.017827e-05 -1.390878e-07
1.333091e-05 2.606998e-06 -1.880706e-06
1.404125e-05 -3.439114e-21 2.042939e-06
1.453083e-05 -2.717825e-06 2.077317e-06
6.142921e-06 1.082573e-05 -3.819359e-07
1.308868e-05 7.127520e-06 2.057721e-06
1.233007e-05 3.464489e-06 -1.225180e-06
1.355236e-05 -7.618567e-07 -1.875923e-06
-1.176618e-05 6.148669e-06 -1.695305e-06
-1.644141e-05 8.957602e-08 8.063679e-07
1.206293e-05 9.984560e-06 -1.750732e-06
1.261085e-05 -3.703103e-06 1.590563e-06
1.108711e-05 -5.815440e-06 -6.630317e-07
1.371805e-05 9.352811e-06 -5.132439e-22
1.320103e-05 -3.233320e-21 1.638310e-06
-1.645767e-05 9.860019e-07 -6.870528e-07
-1.059702e-05 1.049189e-05 -2.056014e-06
1.357052e-05 7.834707e-07 -1.885434e-06
1.369728e-05 -4.552588e-06 -2.094188e-06
9.764834e-06 -1.261529e-05 1.517147e-06
6.487469e-07 1.645919e-05 -7.293902e-07
-1.573090e-05 -1.381641e-06 1.656070e-06
8.183815e-06 -9.332601e-06 4.687860e-08
-1.362666e-05 7.787055e-06 1.726741e-06
-1.474484e-05 5.436186e-06 1.712591e-06
1.261958e-05 -3.090905e-21 9.091936e-07
1.099740e-05 -1.110622e-05 -1.769614e-06
1.351810e-05 4.493873e-06 2.079027e-06
-1.274481e-05 -6.794061e-06 2.094472e-06
1.208792e-05 -1.121595e-05 -6.792899e-07
-1.435964e-05 -8.009962e-06 -8.041125e-07
-7.684340e-06 1.062336e-05 -1.562496e-06
-5.455682e-06 -1.370792e-05 2.080969e-06
-5.328150e-06 1.211973e-05 1.668053e-06
7.458570e-06 -1.469181e-05 -7.167054e-07
8.950289e-06 1.298518e-05 1.671777e-06
1.241206e-05 -3.040078e-21 -5.326851e-21
-1.241410e-05 9.793476e-07 4.105345e-07
-1.221193e-05 3.804154e-06 -1.201494e-06
-7.764703e-07 -1.582892e-05 -1.610691e-06
5.256402e-06 -1.145895e-05 -8.826804e-07
-1.028240e-05 -1.289372e-05 6.739167e-07
1.568532e-05 4.910539e-06 -8.197622e-07
6.045259e-06 1.237206e-05 1.961393e-06
6.728161e-06 -1.106212e-05 -1.399079e-06
-1.545491e-05 -2.942694e-06 1.700098e-06
1.643147e-05 8.086958e-07 -7.826727e-07
1.261958e-05 -3.090905e-21 -9.091936e-07
1.643147e-05 -8.086958e-07 -7.826727e-07
-5.728195e-06 -1.142849e-05 1.191366e-06
-1.424262e-07 1.584804e-05 -1.610082e-06
6.521364e-06 1.341178e-05 2.055834e-06
-1.458426e-05 7.663119e-06 7.213129e-07
6.105734e-06 -1.318326e-05 -2.095372e-06
-1.177366e-05 -1.024381e-05 1.784341e-06
-1.597486e-05 -3.961937e-06 7.638520e-07
-7.225685e-06 -1.280098e-05 -2.086665e-06
-1.868138e-06 -1.634355e-05 -7.861071e-07
1.320103e-05 -3.233320e-21 -1.638310e-06
-7.098487e-07 -1.277472e-05 1.206767e-06
9.893239e-06 -1.319710e-05 -6.681876e-07
-5.096825e-06 -1.568641e-05 6.680546e-07
-1.335998e-05 -4.814848e-06 -2.072953e-06
8.722116e-06 1.393154e-05 8.182814e-07
6.484016e-06 1.118426e-05 -1.376852e-06
5.519228e-06 1.449300e-05 -1.841031e-06
-1.384941e-05 -3.181312e-06 -2.074261e-06
-4.855946e-06 -1.574952e-05 -7.042584e-07
-1.317716e-05 5.864606e-06 2.093783e-06
1.404125e-05 -3.439114e-21 -2.042939e-06
1.572946e-05 -2.026604e-06 -1.601025e-06
1.572946e-05 2.026604e-06 -1.601025e-06
-1.621498e-05 2.881274e-06 7.373986e-07
1.060156e-05 6.561684e-06 4.805828e-07
2.363962e-07 1.339894e-05 -1.779511e-06
-8.473378e-06 1.214788e-05 -2.073371e-06
-8.840611e-06 8.713523e-06 -6.182361e-08
-1.250681e-05 -5.801696e-08 -6.234358e-07
1.099508e-05 9.201444e-06 -2.088552e-06
1.215362e-05 -8.181849e-06 2.090558e-06
1.497383e-05 -3.667529e-21 -2.042939e-06
1.069944e-05 1.249943e-05 7.776405e-07
1.332999e-05 5.747885e-06 -2.095458e-06
3.103469e-06 1.207519e-05 -4.793760e-07
4.792456e-06 1.507498e-05 1.634810e-06
-1.070197e-05 7.907757e-06 1.717176e-06
1.281532e-05 -6.101321e-06 2.071828e-06
1.417061e-05 -6.722250e-06 1.733907e-06
-1.307883e-05 -8.630084e-07 -1.558938e-06
8.278942e-06 -9.562951e-06 9.674383e-07
-1.079821e-05 -6.139525e-06 1.992482e-07
1.581405e-05 -3.873324e-21 -1.638310e-06
5.547220e-06 -1.551969e-05 -7.038261e-07
-1.245589e-05 -1.711005e-06 8.049951e-07
-1.395196e-05 -8.755224e-06 7.306017e-07
8.140181e-06 -1.432277e-05 -7.229436e-07
-2.276832e-06 1.492740e-05 -2.009967e-06
-1.105670e-05 5.684951e-06 -2.926314e-07
9.895428e-06 1.320003e-05 -6.572380e-07
-7.665055e-06 -1.457422e-05 7.427453e-07
-1.149476e-05 6.689062e-06 1.712115e-06
4.712615e-06 -1.501266e-05 -1.698378e-06
1.639550e-05 -4.015739e-21 -9.091936e-07
-1.222059e-05 -2.504211e-06 5.078271e-07
7.309679e-06 1.472526e-05 -8.109654e-07
1.248943e-05 5.102501e-06 1.832689e-06
-1.173680e-05 1.044594e-05 1.714654e-06
9.326475e-06 -8.410426e-06 7.698468e-07
1.643394e-06 1.478778e-05 2.062324e-06
1.201127e-05 -4.622175e-06 -1.307387e-06
1.133649e-05 -8.108306e-06 -2.016522e-06
4.423200e-06 -1.159892e-05 8.248443e-08
1.357507e-05 4.179678e-06 -2.073369e-06
6.881133e-06 1.178558e-05 -1.910780e-06
5.724580e-06 -1.456524e-05 -1.756757e-06
-1.317813e-05 -3.084800e-06 1.855790e-06
-6.297059e-06 1.104249e-05 -1.079951e-06
1.070904e-05 -8.136978e-06 1.808858e-06
1.185732e-05 -1.143244e-05 7.317744e-07
1.423436e-05 -1.859540e-06 -2.089941e-06
-8.249288e-06 -1.171628e-05 -2.087863e-06
1.808488e-06 -1.581934e-05 -1.545720e-06
-7.025774e-06 -1.023462e-05 -9.160588e-08
2.476760e-06 1.627630e-05 -7.513902e-07
1.313416e-05 1.015647e-05 -5.132439e-22
6.803342e-06 -1.178450e-05 -1.892268e-06
-1.260062e-05 3.026245e-06 -1.411672e-06
-1.372921e-05 7.621417e-06 -1.721174e-06
1.300977e-05 6.046180e-06 2.089249e-06
-1.115692e-05 9.152294e-06 2.094063e-06
-6.545178e-06 -1.457705e-05 1.491880e-06
1.216386e-05 4.101532e-06 1.264709e-06
1.061792e-05 -1.181335e-05 1.580159e-06
-1.560512e-05 2.665482e-07 -1.783628e-06
-1.114905e-05 5.659676e-06 6.116844e-07
1.197022e-05 -6.071175e-06 -1.792274e-06
-3.007716e-06 -1.526999e-05 -1.810033e-06
-2.665233e-06 1.238957e-05 -1.012669e-06
9.502384e-07 1.258864e-05 9.192404e-07
-1.227293e-05 2.307134e-06 -5.586497e-07
-7.059257e-06 1.049360e-05 -9.642298e-07
1.236657e-05 1.811113e-06 5.955941e-07
-4.084799e-06 -1.521530e-05 1.684385e-06
4.464897e-06 1.381735e-05 2.095435e-06
-7.907650e-06 1.165653e-05 2.052569e-06
[...]
POINT_DATA 1569
VECTORS 10.000GHz_fone_imag double
8.257945e-04 2.844570e-04 2.138243e-02
-2.542457e-04 7.534483e-05 2.435856e-02
-1.889214e-04 3.434914e-04 2.325425e-02
-2.946717e-02 2.826417e-02 -9.931878e-03
1.465919e-03 -2.744947e-02 8.655223e-03
5.812518e-03 6.800524e-03 2.313233e-02
-2.546589e-02 -6.432342e-03 -4.554367e-02
-1.098827e-03 3.673340e-02 -4.199478e-03
-2.780680e-03 -1.609355e-02 -5.864867e-02
3.825151e-02 -3.388030e-03 -5.593351e-03
2.508799e-02 6.719236e-03 -4.698954e-02
-1.899829e-02 -1.588198e-02 1.620882e-02
-1.102805e-02 -3.153937e-02 -4.097148e-02
-1.175770e-03 -3.787400e-04 2.265281e-02
-2.016805e-02 1.928984e-02 -4.623606e-02
9.626243e-04 -7.432428e-03 -5.456363e-02
-6.683606e-03 2.288592e-02 1.606117e-02
-2.387490e-02 2.877746e-02 -3.177031e-04
3.890975e-03 1.492744e-02 -5.140986e-02
7.173328e-03 1.625436e-03 -5.543284e-02
-2.538710e-03 2.469482e-02 1.619818e-02
-1.878212e-02 1.642916e-02 1.484391e-02
-1.367340e-02 2.572129e-02 8.183356e-03
-2.803701e-02 -8.410312e-03 -4.142595e-02
4.375161e-04 -3.765800e-04 2.411015e-02
8.953950e-03 -2.872229e-03 2.300356e-02
-2.414293e-02 -3.026224e-03 1.656143e-02
-2.214464e-02 2.786991e-03 1.322185e-02
-1.510771e-02 -6.451934e-03 -5.597341e-02
-1.887027e-02 -9.181825e-03 -5.456862e-02
-1.387028e-02 2.052182e-02 -5.278151e-02
-7.707158e-03 5.299735e-03 -5.526732e-02
-1.048414e-02 -4.139411e-02 -2.500422e-02
5.407366e-03 -6.832590e-03 2.282428e-02
-2.994698e-03 3.066724e-02 1.062004e-02
5.226558e-04 -1.655744e-05 2.396685e-02
-9.791735e-03 -1.238729e-04 2.078537e-02
-1.076697e-02 -4.447747e-04 2.229056e-02
-3.840958e-02 1.831479e-03 -1.392417e-03
-7.531713e-03 -3.504491e-02 -2.371707e-02
2.725370e-02 8.414878e-03 1.205624e-02
6.831496e-03 3.587201e-02 -5.180323e-03
3.263864e-03 -2.316932e-02 1.432008e-02
-6.383534e-03 5.585099e-03 2.185672e-02
1.286633e-02 3.706067e-02 -3.097682e-02
9.395296e-03 3.941170e-02 -9.681080e-03
4.783227e-04 1.968329e-04 2.216254e-02
-6.012053e-03 -8.282549e-03 1.962675e-02
6.960855e-03 5.203381e-03 2.252459e-02
-2.237906e-02 -8.019191e-03 1.648795e-02
-7.780045e-03 -7.709341e-03 1.994423e-02
1.970015e-02 -2.533021e-02 3.984168e-03
7.987845e-03 2.578603e-02 1.332492e-02
2.809547e-02 -2.454348e-02 -3.711819e-02
-1.785871e-02 1.478667e-02 1.734476e-02
-2.562437e-02 -3.136781e-02 -1.384339e-02
-2.231314e-02 -1.399954e-02 1.087166e-02
5.279818e-04 -2.562901e-04 2.347887e-02
1.375735e-02 3.774653e-02 -1.447231e-02
-1.001908e-03 3.865992e-04 -5.664796e-02
-4.709502e-03 9.028876e-03 2.202501e-02
-4.272995e-04 -1.007819e-02 2.220098e-02
1.196716e-02 -2.299128e-02 1.189779e-02
-3.892186e-02 -1.857230e-03 -2.749016e-03
5.771401e-03 4.127679e-02 -1.688750e-02
-3.481653e-02 -3.248892e-03 -3.104657e-02
1.342878e-02 2.506500e-02 1.212623e-02
-2.326772e-02 3.543165e-02 -1.750530e-02
-1.077641e-02 -4.202433e-05 2.294357e-02
-9.265115e-03 1.713484e-02 -4.955201e-02
1.119488e-02 -1.018151e-02 -5.770273e-02
7.732605e-04 -9.053012e-03 2.274914e-02
-2.488589e-02 -3.047457e-02 -1.206161e-02
1.574183e-02 1.261115e-02 -4.835700e-02
-7.137953e-03 -2.076416e-02 -4.965218e-02
1.078644e-02 3.741915e-02 -3.308080e-02
1.551011e-02 -3.701061e-02 -2.095404e-02
-8.489615e-03 4.298039e-03 2.037150e-02
3.762837e-02 3.667415e-03 -2.638723e-03
-2.419429e-02 6.263667e-05 1.695935e-02
-5.754575e-05 2.422873e-02 1.696872e-02
1.817600e-02 2.468057e-03 -5.180126e-02
-3.889400e-03 -9.904981e-03 -5.343644e-02
1.846982e-02 -1.656403e-02 1.516249e-02
4.432066e-03 2.933655e-02 1.068645e-02
6.049816e-03 -3.685470e-03 2.124794e-02
1.423114e-03 3.874621e-02 -1.147510e-02
-3.365051e-02 2.261291e-02 -1.524883e-02
1.018148e-02 -2.470779e-03 2.178077e-02
-2.275068e-02 -1.338708e-02 1.503317e-02
-3.142344e-02 2.957061e-05 2.978724e-03
1.861542e-02 -9.137898e-03 1.640614e-02
1.342512e-02 -3.480341e-02 -7.028914e-03
2.894138e-02 -1.114325e-04 1.350119e-02
6.994469e-03 6.716012e-03 2.345616e-02
-2.961195e-02 -3.006487e-02 -1.872194e-02
-2.340459e-02 8.508900e-03 1.670218e-02
3.955921e-03 7.955809e-03 2.284041e-02
2.113543e-02 3.422510e-02 -1.881947e-02
7.405101e-04 4.238986e-03 -5.961917e-02
3.992906e-02 9.765025e-03 -2.196461e-02
-4.000067e-02 -2.694115e-04 -9.872064e-03
-3.486622e-02 5.038604e-03 3.669550e-03
6.808503e-03 9.384557e-03 -5.955688e-02
-2.929419e-02 -1.570576e-02 3.751817e-03
2.698701e-02 1.063992e-02 -4.607996e-02
3.935251e-02 -7.311448e-04 -2.386340e-02
-3.209756e-02 1.876923e-02 -2.808609e-02
9.127123e-03 3.207095e-04 2.075565e-02
1.976028e-02 1.604689e-02 1.570330e-02
-3.603238e-02 1.104496e-02 -3.571812e-02
1.784316e-02 -8.909543e-03 -5.008190e-02
-4.190259e-04 -6.662735e-04 2.333298e-02
-3.835729e-02 -3.481390e-05 -3.229105e-02
-9.001570e-03 1.711787e-04 2.057517e-02
-2.504623e-02 2.274003e-02 3.700709e-03
3.894729e-02 -2.911894e-05 -2.229735e-02
3.594836e-02 -1.149329e-02 -2.529183e-03
-1.300014e-02 1.658111e-02 1.823768e-02
3.246071e-04 9.486175e-03 2.242625e-02
2.181236e-02 1.587945e-03 1.486916e-02
-1.117742e-03 1.178215e-03 -6.180774e-02
1.928929e-02 -1.216224e-02 1.538543e-02
2.107417e-02 -6.473289e-03 1.536743e-02
-2.320332e-02 4.338014e-04 -5.296500e-02
1.857059e-02 -1.913764e-02 1.516686e-02
-3.877658e-02 -1.279481e-02 -6.679769e-03
3.178816e-02 1.671386e-02 -3.493708e-03
6.587971e-03 -4.866303e-03 2.266437e-02
-7.425141e-03 -4.190395e-03 2.057139e-02
-2.088861e-02 2.804835e-02 -3.331672e-02
1.412092e-02 3.423603e-02 1.323948e-03
1.538654e-02 -3.531031e-02 -3.386973e-02
4.788510e-03 -7.154456e-03 2.230792e-02
-1.415463e-02 -1.819341e-02 1.595760e-02
1.931101e-03 1.606635e-03 -5.496607e-02
1.169181e-02 -3.131592e-03 -5.632379e-02
-2.411987e-02 5.876230e-03 -4.720983e-02
-8.364522e-04 -2.276026e-02 1.806460e-02
1.085169e-02 -2.109953e-02 -5.121105e-02
4.461092e-03 5.938902e-03 2.308103e-02
1.000647e-02 3.277399e-03 2.226607e-02
-1.866305e-02 -3.737479e-02 -1.574783e-02
1.775754e-02 -3.022651e-02 -4.064651e-02
2.409723e-02 5.479768e-03 1.563264e-02
9.545888e-03 -1.268825e-03 2.160527e-02
2.178563e-02 -1.891813e-03 -5.341211e-02
8.674103e-03 3.402657e-04 2.120498e-02
1.486530e-02 2.874381e-02 -4.602596e-02
-6.233349e-04 2.073195e-02 1.627285e-02
-1.314628e-02 -2.906557e-02 3.311307e-03
8.046562e-03 -3.939739e-03 2.328853e-02
1.544342e-02 -3.556979e-02 -1.683909e-03
1.935932e-02 1.672565e-02 1.562722e-02
9.165443e-03 2.162421e-03 2.069076e-02
-1.785071e-02 -3.201514e-02 1.111341e-03
-8.394011e-04 -7.215826e-03 2.105352e-02
3.887105e-02 3.406474e-04 -3.307222e-02
6.686486e-04 2.814725e-02 -4.344970e-02
6.019675e-03 -6.344962e-03 2.155989e-02
3.381710e-03 7.731529e-03 2.182482e-02
-3.923308e-02 -1.444937e-02 -8.876370e-03
-5.017726e-03 -8.406198e-03 2.293290e-02
1.639270e-02 2.862469e-02 -3.860110e-02
1.080192e-02 2.491901e-02 1.350056e-02
-3.650851e-02 -8.478808e-03 -9.489762e-03
-3.284964e-03 -7.848506e-03 2.088128e-02
3.603138e-02 -1.591471e-02 -4.727224e-03
3.787857e-02 -1.081589e-04 -6.529568e-03
2.245127e-02 -2.809008e-03 1.695195e-02
2.065808e-02 1.259297e-03 1.571304e-02
8.932966e-03 -3.754484e-04 2.066698e-02
-1.113624e-02 -7.590823e-03 -5.915506e-02
-1.460235e-03 3.979298e-02 -2.585140e-02
-1.897572e-02 2.772275e-02 4.100479e-03
-1.152710e-03 6.004204e-04 -6.160601e-02
-1.583781e-02 -1.634073e-04 -5.816246e-02
2.829748e-02 2.344501e-02 -4.773022e-03
-2.803087e-02 1.865784e-02 1.779595e-03
3.320708e-02 -7.852016e-04 4.015380e-03
-6.705528e-03 -6.063070e-03 2.220485e-02
3.357322e-02 1.476581e-02 -3.656499e-03
3.023621e-03 1.516678e-02 -5.744771e-02
-6.526510e-03 -2.124255e-02 1.718262e-02
3.126415e-02 -2.456545e-02 -2.888863e-02
-3.352104e-02 1.615693e-02 -7.370816e-03
-2.220784e-02 1.081541e-02 1.605198e-02
-3.667970e-02 -2.691672e-03 -3.199798e-02
-1.639825e-02 1.936278e-02 -4.665590e-02
4.060046e-03 2.152508e-03 -5.369406e-02
2.369836e-02 -1.704097e-06 1.719411e-02
3.175673e-03 -7.755918e-03 2.291219e-02
1.831540e-02 -3.140168e-05 -5.166638e-02
7.091568e-03 4.698035e-03 2.086487e-02
4.532232e-03 -7.700640e-03 2.269674e-02
-4.703677e-03 3.265394e-02 7.313326e-03
-4.589945e-03 1.229538e-03 -5.766913e-02
4.596744e-03 5.994933e-03 2.189886e-02
4.223207e-03 7.846124e-03 2.267950e-02
3.128203e-02 -1.790869e-02 -2.619272e-02
6.786213e-03 -2.069607e-02 1.541406e-02
9.986121e-03 3.304239e-04 2.232706e-02
1.240733e-02 3.059986e-03 -5.238452e-02
4.192086e-03 8.157131e-03 2.239216e-02
-3.861142e-02 -1.626215e-02 -2.605412e-02
1.919184e-02 -1.550095e-02 1.592448e-02
-1.501519e-02 1.457314e-02 -5.452369e-02
-3.879500e-03 -3.534291e-02 4.016245e-03
3.045045e-02 -1.152148e-02 -3.924643e-02
3.447517e-02 -2.432619e-02 -1.412931e-02
-2.113340e-03 4.188156e-03 -5.649770e-02
3.648666e-02 8.549800e-03 -8.941751e-03
1.825372e-02 3.508542e-02 -2.220583e-02
8.875934e-03 -2.362254e-02 1.437881e-02
3.601259e-02 7.686775e-03 -2.427980e-02
-1.134604e-02 2.276181e-02 -4.288192e-02
-3.099840e-02 2.527132e-02 -2.633294e-02
-6.244122e-03 5.768354e-03 2.239909e-02
3.907002e-02 -5.319931e-03 -4.167196e-03
-2.306215e-02 -3.258565e-02 -5.107152e-03
2.444876e-03 -2.115710e-02 1.745796e-02
-1.398280e-03 -4.307917e-03 -6.011834e-02
1.456157e-03 9.385045e-03 2.217053e-02
-4.630443e-04 6.915865e-05 2.369088e-02
1.799960e-02 -3.174993e-02 -2.062265e-02
-2.829597e-02 6.278853e-03 -3.850688e-02
-2.155064e-02 1.222066e-02 1.528524e-02
-3.553107e-02 -1.558053e-02 -4.967014e-03
2.658705e-02 -2.247973e-02 -3.468383e-03
6.874850e-03 1.817932e-02 1.844433e-02
-2.673006e-02 -7.842668e-03 -4.004249e-02
-1.322369e-02 1.500878e-02 1.628190e-02
-2.465421e-02 8.979153e-04 1.267663e-02
1.325210e-02 -5.948243e-03 -5.671621e-02
3.536115e-02 -1.831857e-02 -2.694188e-02
-5.334301e-03 -2.507835e-02 1.523418e-02
-5.959266e-03 2.587192e-02 -5.128407e-02
4.964487e-04 -2.297547e-02 -4.887225e-02
-1.639766e-02 2.979727e-03 -5.710648e-02
-1.297047e-02 1.965496e-02 -4.731034e-02
-2.000142e-02 -1.583691e-03 -5.309619e-02
6.189107e-03 2.294333e-02 1.701708e-02
-1.174530e-02 -3.620192e-02 -3.016228e-03
2.202524e-02 -3.397304e-02 -1.019466e-02
3.364773e-02 3.628861e-03 -3.522283e-02
9.318130e-03 -1.358154e-02 -5.765125e-02
-1.276789e-02 -6.470235e-03 1.958231e-02
-1.513178e-02 3.288098e-02 3.654198e-03
-5.328663e-03 5.978648e-03 2.314991e-02
4.448423e-03 -3.807929e-02 -8.147553e-04
1.330403e-02 2.041172e-02 1.228501e-02
1.495745e-02 -2.060168e-02 1.404307e-02
4.073047e-02 -8.404272e-03 -2.046431e-02
2.266736e-02 -2.374193e-02 -3.873516e-02
-2.536962e-02 -1.729753e-02 -3.872050e-02
-2.342062e-03 3.222852e-02 -4.297020e-02
-2.164238e-02 -2.662280e-02 -1.372798e-03
-6.931678e-03 2.180237e-03 2.131848e-02
9.439075e-03 2.446112e-02 1.413878e-02
3.973525e-02 8.827108e-03 -8.148325e-03
-8.239767e-03 5.803993e-03 -6.050027e-02
1.919686e-03 1.848859e-02 -5.787518e-02
-2.007184e-03 1.275351e-02 -5.948475e-02
-1.693269e-02 3.213566e-02 2.129825e-03
-2.147875e-02 -5.422497e-03 1.785741e-02
-1.925151e-02 6.306811e-03 1.916002e-02
-4.487196e-03 -2.399426e-02 1.564274e-02
-3.994999e-02 1.435364e-02 -1.950608e-02
-7.385358e-03 1.733714e-02 1.725424e-02
-7.325867e-03 6.062458e-03 2.309876e-02
-7.037780e-03 -3.418667e-02 -3.736161e-03
-1.808273e-02 1.626632e-02 1.275168e-02
-3.363936e-03 -9.120642e-03 2.276806e-02
-1.828198e-02 -8.198190e-03 1.728650e-02
9.711756e-04 2.342244e-02 1.707775e-02
2.340555e-02 3.206607e-02 -2.032102e-02
-2.353916e-02 1.180413e-02 1.119226e-02
1.952193e-02 -9.685095e-04 1.761926e-02
2.711484e-02 -2.711227e-02 -2.919793e-03
-2.443268e-02 -2.189555e-03 -5.412067e-02
-1.317852e-02 -1.031682e-02 -5.755850e-02
-7.764188e-03 -1.987674e-03 2.326823e-02
-2.028958e-02 -7.394917e-04 1.881279e-02
-2.005422e-02 1.943113e-04 1.817262e-02
2.138061e-02 -2.397777e-02 4.312679e-03
-1.038224e-02 3.685368e-02 -3.488360e-03
-4.898037e-03 -6.255411e-03 2.153307e-02
3.070504e-02 2.508790e-02 -6.618600e-03
-2.481694e-02 -2.436518e-02 -5.682179e-04
-1.649427e-02 -9.107402e-03 1.901955e-02
-1.356745e-02 1.136968e-02 -5.860324e-02
-2.716012e-02 1.528096e-02 -4.398304e-02
3.075069e-02 2.114093e-02 -7.253773e-03
-2.852445e-02 -4.395148e-03 8.349952e-03
1.699782e-02 -1.227373e-02 -5.526340e-02
7.892785e-03 3.320800e-03 2.149174e-02
3.232963e-02 -2.161690e-02 -3.191023e-03
-2.496766e-03 -7.617543e-03 2.293594e-02
8.231007e-03 3.894990e-02 -3.055735e-02
-4.972511e-03 -2.318473e-02 1.441628e-02
-1.755574e-02 -1.450985e-02 -5.368579e-02
-3.328303e-03 -7.996328e-03 -5.902839e-02
-2.239378e-02 -8.724837e-03 1.427262e-02
-8.443989e-03 4.028388e-02 -2.756936e-02
2.636815e-02 -7.620515e-03 1.378471e-02
-1.936205e-02 4.107455e-03 1.803972e-02
1.542607e-02 -2.704843e-02 -3.937153e-02
-9.126954e-03 1.895002e-02 1.456886e-02
-2.826777e-02 -2.406071e-02 -3.653746e-02
1.816904e-02 7.990235e-03 1.731478e-02
1.772619e-02 -3.274451e-02 -3.626409e-02
3.101465e-03 -5.727120e-03 2.159455e-02
-2.277444e-02 1.339234e-02 1.059850e-02
7.753015e-03 1.907176e-03 2.286816e-02
-5.220450e-03 2.638806e-02 9.993724e-03
1.614034e-03 -6.458459e-03 -5.993127e-02
1.875618e-03 -7.423502e-03 2.248617e-02
2.079799e-02 -7.103654e-04 1.788229e-02
-1.782581e-02 -1.626439e-02 1.638033e-02
9.171707e-03 -3.281064e-03 2.301105e-02
2.923113e-02 2.855980e-02 -2.367810e-02
1.101241e-02 1.841994e-02 1.415210e-02
3.703874e-02 1.301451e-02 -1.070570e-02
-2.334414e-02 -1.471479e-02 1.199748e-02
2.278049e-02 -3.026637e-03 1.756502e-02
2.524740e-02 1.620433e-02 -4.744915e-02
4.028036e-02 5.728367e-03 -1.156193e-02
-1.259047e-02 -1.181745e-02 -5.220116e-02
-1.628694e-02 -2.413957e-02 8.936028e-03
1.553682e-02 1.186255e-02 1.829995e-02
-2.162495e-02 -3.038081e-02 -9.290624e-04
9.275757e-03 -3.179148e-02 8.223232e-03
3.505419e-02 2.229771e-02 -2.150080e-02
7.271027e-05 -9.241073e-03 -5.957110e-02
-1.251292e-03 -6.376007e-04 2.205112e-02
2.588245e-02 1.471943e-02 1.214069e-02
2.702478e-02 -2.321268e-02 -2.401080e-03
-3.716327e-02 -1.919883e-04 -7.947840e-03
9.248049e-03 9.719001e-03 -5.972080e-02
2.108432e-02 -1.347926e-02 -4.530593e-02
2.524796e-02 1.780102e-02 -4.826891e-02
1.625609e-02 9.728381e-03 1.820905e-02
1.557609e-03 9.030562e-03 2.257622e-02
6.603933e-03 -5.578809e-03 2.055717e-02
2.017189e-02 -1.153971e-02 1.732257e-02
-6.484647e-03 -1.924648e-02 -5.425328e-02
2.577360e-02 -1.473820e-02 1.160426e-02
-7.823281e-03 -2.477819e-02 1.534449e-02
-1.845564e-02 -9.854843e-03 1.912036e-02
-2.110331e-02 3.316912e-02 -2.519787e-02
-1.154672e-03 -8.719629e-03 2.226598e-02
1.820513e-02 3.013102e-02 4.574902e-03
-8.849420e-03 1.035113e-03 2.237299e-02
-5.192047e-03 -6.686437e-03 2.319218e-02
-2.771962e-02 2.954279e-02 -1.271311e-02
-1.934128e-02 -3.254396e-02 -1.385397e-02
-1.644818e-02 -3.530908e-02 -2.095081e-02
8.672396e-04 6.386582e-03 -5.838418e-02
-4.388162e-03 -4.368068e-03 2.130675e-02
1.942905e-02 -2.948829e-02 3.403455e-03
8.344713e-03 1.980456e-02 1.774684e-02
8.272381e-03 4.349049e-03 2.299419e-02
-2.264141e-02 7.425572e-03 -4.560864e-02
-3.037419e-03 -9.889588e-03 2.224779e-02
-2.625504e-02 3.190284e-02 -1.749882e-02
2.699463e-02 -2.067827e-02 -3.444507e-02
9.652248e-03 1.741691e-02 1.866299e-02
1.736496e-02 -2.931546e-02 6.431257e-04
2.335961e-02 -2.908635e-02 -9.299712e-03
-7.955546e-03 3.254093e-03 2.219598e-02
-7.257164e-03 -1.268723e-03 2.113867e-02
9.116447e-03 -2.435562e-02 -4.867400e-02
-2.096729e-02 2.999719e-02 -8.041597e-03
1.200382e-02 -1.498021e-02 1.871566e-02
4.453090e-04 -3.688406e-02 5.625201e-04
-8.492433e-03 -3.527333e-04 2.270097e-02
1.942587e-03 -9.016841e-03 2.229930e-02
-1.075020e-02 -3.565229e-02 -2.769170e-03
-1.389423e-02 -2.036247e-02 -4.481153e-02
2.403679e-02 3.201950e-02 -7.041374e-03
2.428750e-02 -3.266670e-02 -2.574293e-02
4.103074e-03 -8.124536e-03 2.169199e-02
-2.124428e-02 -9.995369e-03 1.763816e-02
1.792947e-02 3.367875e-02 -3.488880e-02
-1.402291e-02 2.074648e-02 1.411080e-02
-1.487469e-02 -1.705037e-02 -4.527496e-02
2.456455e-02 2.108285e-02 -3.454702e-02
-2.871568e-02 2.134623e-02 -2.675766e-03
3.545572e-02 -4.586081e-04 -3.446409e-02
1.667216e-02 -1.212722e-02 1.561217e-02
-2.332036e-03 1.311018e-02 -5.891125e-02
-5.117326e-03 -4.110551e-02 -2.262629e-02
2.045022e-02 1.285120e-02 1.614103e-02
3.229491e-02 -1.516112e-02 2.240520e-04
6.414959e-04 -2.819565e-02 -4.563640e-02
3.382403e-02 -2.231607e-02 -2.322477e-02
1.294889e-04 6.482907e-04 -5.612003e-02
1.427125e-03 -2.417969e-02 -4.576458e-02
-1.418931e-02 3.881915e-02 -2.181079e-02
1.779817e-02 6.112745e-03 1.767662e-02
-2.679891e-02 6.997154e-03 1.293206e-02
1.963009e-02 1.025300e-02 -5.495432e-02
3.780633e-02 -1.504021e-02 -1.175756e-02
3.642117e-02 1.907891e-02 -2.087065e-02
-7.349438e-03 1.689946e-03 2.161728e-02
-7.487827e-03 -2.029276e-03 2.136923e-02
-3.983519e-02 -6.387966e-03 -7.472600e-03
1.275127e-03 3.732946e-02 1.215188e-03
3.180773e-03 -1.781337e-02 1.821867e-02
-1.364727e-04 -2.203437e-02 1.821521e-02
1.334665e-02 1.563366e-02 1.911757e-02
1.230815e-02 -6.000348e-03 -5.715661e-02
2.669501e-02 -7.280041e-03 -5.017886e-02
-6.593695e-03 -1.971690e-02 1.588809e-02
-3.182851e-02 -1.855006e-02 -6.412597e-03
2.029571e-02 5.199326e-03 1.798470e-02
-3.933552e-02 7.106181e-04 -2.218913e-02
7.587391e-04 -5.911556e-03 2.141638e-02
-1.495093e-03 -1.076272e-03 -5.980216e-02
-5.172203e-03 -3.681352e-02 -3.702609e-02
1.643371e-02 -2.137485e-02 -4.571618e-02
1.699758e-02 1.018143e-03 -5.415430e-02
-6.650454e-03 -5.383104e-03 2.182801e-02
-2.227398e-02 3.986050e-03 -4.761565e-02
-7.580717e-03 -3.353418e-02 6.534404e-03
7.570576e-03 2.113245e-02 -5.060945e-02
-9.011695e-03 2.946884e-02 9.442260e-03
-2.611849e-03 -5.821163e-03 2.294772e-02
1.152493e-02 1.658778e-02 1.658194e-02
3.234070e-03 2.088781e-02 1.520542e-02
-4.517849e-03 -1.921211e-02 1.733990e-02
-3.719378e-02 6.080585e-03 1.993711e-04
-8.080532e-03 3.136127e-02 8.884027e-03
2.897970e-02 1.472088e-02 2.057241e-03
-2.451802e-02 -6.651146e-03 -5.194201e-02
-2.357879e-02 -2.442367e-02 6.556946e-03
-3.815190e-03 -4.152556e-02 -1.719890e-02
-8.375460e-03 1.087632e-03 2.304165e-02
-6.933703e-03 -8.843017e-04 2.072447e-02
-2.720597e-02 1.193116e-02 1.066155e-02
-5.950671e-03 2.461023e-03 2.139171e-02
3.981828e-02 5.549053e-03 -6.509409e-03
1.924597e-02 2.186256e-02 8.242866e-03
4.046857e-03 -2.159661e-02 1.674226e-02
-2.980244e-03 1.149445e-02 -5.730828e-02
5.240957e-04 -3.937617e-04 2.128883e-02
8.368183e-03 2.663641e-02 -4.776468e-02
2.765222e-03 -2.709576e-02 1.091725e-02
-3.923325e-02 -9.639260e-04 -2.211269e-02
7.623485e-03 -1.696624e-02 1.710965e-02
1.725979e-02 1.514669e-02 1.564195e-02
4.075863e-03 7.153211e-03 2.248437e-02
-2.592258e-02 -7.500265e-03 1.359887e-02
-5.728712e-03 -1.796199e-02 -5.573911e-02
1.226727e-02 1.100821e-02 -5.802235e-02
-9.381919e-03 -1.670501e-02 1.891696e-02
6.809419e-03 -2.331126e-03 2.067998e-02
1.618276e-02 4.583583e-03 1.873300e-02
-2.902478e-03 -6.573447e-03 2.283638e-02
4.336911e-04 1.309022e-03 -6.199188e-02
-8.319172e-03 -3.913681e-03 2.195204e-02
-6.847878e-03 4.348986e-03 2.295495e-02
5.083288e-04 -4.111086e-02 -1.446350e-02
-3.066202e-02 -9.407550e-03 7.160912e-03
2.223558e-02 2.980385e-02 -4.990522e-03
3.162699e-03 -3.535865e-02 4.212304e-03
1.553581e-02 -1.768927e-02 1.630525e-02
2.677766e-02 -4.345911e-03 1.102905e-02
1.611383e-02 -4.170782e-03 2.047355e-02
1.479918e-02 2.211344e-02 1.246577e-02
1.303060e-02 1.337160e-02 1.918500e-02
-7.457221e-03 3.656321e-02 -1.679340e-02
3.209928e-02 -2.632504e-02 -1.900944e-02
3.665307e-02 -1.134887e-02 -3.995958e-03
1.022703e-03 -6.273339e-03 -6.001971e-02
2.898414e-02 -5.984701e-03 -4.793272e-02
-5.860330e-03 -1.173307e-03 2.161006e-02
4.422680e-03 1.074512e-03 -6.048849e-02
-5.792979e-03 -1.777244e-03 2.164731e-02
1.125181e-02 -2.126577e-02 -4.985468e-02
-9.068269e-03 1.574035e-03 2.194948e-02
3.794255e-02 -7.738114e-03 -6.352223e-03
1.694060e-02 2.878243e-02 -4.346329e-02
-1.707783e-02 3.721146e-02 -2.362840e-02
-5.475261e-03 4.357645e-03 2.286767e-02
9.989636e-03 -1.747254e-02 1.629770e-02
8.618434e-03 5.197385e-03 -5.470510e-02
2.212897e-02 1.359735e-02 1.437052e-02
-2.858927e-02 -2.880147e-02 -1.417632e-02
2.680457e-02 2.016602e-02 6.659434e-03
-3.442336e-02 -1.116193e-02 -2.869394e-02
-3.206771e-02 1.002105e-02 2.074538e-03