# vtk DataFile Version 2.0
Electric current density generated by TTH
ASCII
DATASET UNSTRUCTURED_GRID
POINTS 2891 double
2.933216e-05 -7.184307e-21 -3.065925e-22
2.848703e-05 6.990355e-06 -3.065925e-22
-2.581649e-05 1.392425e-05 -3.065925e-22
-2.585369e-05 -1.306533e-05 8.831490e-07
-2.617081e-05 -6.009218e-06 -2.399507e-07
-7.943913e-07 -2.726123e-05 -9.563915e-07
1.114302e-05 -2.542594e-05 1.210192e-06
3.993687e-06 2.876466e-05 -8.030998e-07
-1.322015e-05 -2.458895e-05 -1.241118e-06
1.635907e-05 2.211242e-05 -1.112172e-06
1.639261e-05 -2.390314e-05 -8.661607e-07
-2.731531e-05 2.940693e-06 1.094598e-06
-9.321192e-07 -2.896768e-05 -8.676429e-07
-2.617951e-05 1.322910e-05 -3.065925e-22
2.591697e-06 -2.887084e-05 -8.631949e-07
1.777620e-07 2.901485e-05 8.322769e-07
-2.851129e-06 2.889978e-05 -8.036937e-07
1.610692e-05 -2.263571e-05 1.215532e-06
-1.853733e-05 2.062602e-05 1.202304e-06
-2.192958e-05 1.700362e-05 1.207205e-06
-1.419396e-05 2.384452e-05 1.207205e-06
-9.667285e-06 2.595315e-05 1.191007e-06
-2.470703e-05 1.273797e-05 1.219338e-06
-2.687422e-05 7.049120e-06 -1.215999e-06
-2.652381e-05 1.252450e-05 -3.065925e-22
-1.850314e-05 -2.053331e-05 1.171820e-06
-1.105177e-05 -2.678309e-05 -8.768808e-07
-8.103767e-06 -2.652189e-05 1.202390e-06
-2.759737e-05 8.837665e-06 8.725700e-07
2.215508e-05 1.618106e-05 -1.072493e-06
2.215508e-05 -1.618106e-05 -1.072493e-06
-6.483612e-06 -2.615735e-05 -5.353855e-07
-5.704950e-06 -2.679937e-05 1.050605e-06
-2.864883e-05 4.649155e-06 8.229589e-07
2.872233e-05 -3.786744e-06 -8.797461e-07
-2.684916e-05 1.181094e-05 -3.065925e-22
2.872233e-05 3.786744e-06 -8.797461e-07
-2.836001e-05 6.171064e-06 8.229108e-07
-2.173353e-05 -1.738068e-05 1.226183e-06
-2.889841e-05 1.880449e-06 8.910857e-07
-2.656105e-05 -4.343853e-06 -4.540763e-07
-2.702821e-05 4.149510e-06 -1.012873e-06
-1.355602e-06 -2.895110e-05 8.674944e-07
1.562776e-05 2.286372e-05 1.190738e-06
-1.574976e-05 -2.281936e-05 -1.200792e-06
-2.751392e-05 9.106585e-06 -8.685366e-07
-2.715531e-05 1.108894e-05 -3.065925e-22
1.295674e-06 -2.695397e-05 6.059618e-07
2.331371e-06 -2.675244e-05 2.498548e-07
1.222995e-05 -2.640877e-05 -7.216894e-07
2.855130e-05 5.012503e-06 8.621112e-07
2.855130e-05 -5.012503e-06 8.621112e-07
-9.975097e-06 2.576298e-05 -1.166637e-06
-1.386536e-05 2.389716e-05 -1.167260e-06
-1.870259e-05 2.033360e-05 -1.166696e-06
-2.165322e-05 1.715778e-05 -1.166762e-06
-2.485116e-05 1.207234e-05 -1.167253e-06
-2.744206e-05 1.035901e-05 -3.065925e-22
-2.656983e-05 6.206452e-06 -9.666321e-07
-2.405485e-05 -1.442932e-05 -1.251406e-06
-2.345379e-05 1.701056e-05 -8.775099e-07
-2.548673e-05 1.376775e-05 -8.830036e-07
-1.560938e-05 2.440708e-05 -8.789358e-07
-1.868918e-05 2.213433e-05 -8.814531e-07
-9.286091e-06 2.744238e-05 -8.796769e-07
-2.191160e-05 -1.896127e-05 -8.738354e-07
-2.676677e-05 7.227541e-06 1.200360e-06
1.890943e-05 -2.190252e-05 -9.137876e-07
-2.770919e-05 9.621678e-06 -3.065925e-22
1.891348e-05 2.187922e-05 -9.275915e-07
-2.656753e-05 3.774638e-06 1.192199e-07
-2.640958e-05 -9.010952e-06 -1.239343e-06
-2.108795e-06 -2.765851e-05 -1.204240e-06
-2.384636e-06 -2.767359e-05 1.214218e-06
-2.461736e-05 -1.078107e-05 3.361746e-07
-2.819369e-05 6.826556e-06 -8.400983e-07
2.676573e-05 2.317664e-06 -3.030723e-07
2.676573e-05 -2.317664e-06 -3.030723e-07
2.659389e-05 -7.954305e-06 -1.209525e-06
-2.795651e-05 8.877468e-06 -3.065925e-22
2.659389e-05 7.954305e-06 -1.209525e-06
4.001177e-06 2.756798e-05 1.231630e-06
-1.712695e-05 2.229868e-05 1.251225e-06
-2.408755e-05 1.448934e-05 1.251418e-06
-2.014895e-05 1.963278e-05 1.250682e-06
-1.157536e-05 2.564053e-05 1.250683e-06
-1.947332e-05 -1.876573e-05 -7.015673e-07
1.564547e-05 2.279747e-05 -1.175326e-06
-3.087063e-06 2.776662e-05 1.243598e-06
1.167746e-05 -2.417417e-05 2.127629e-07
-2.818384e-05 8.126912e-06 -3.065925e-22
7.784613e-06 -2.666883e-05 -1.215614e-06
1.542139e-05 2.455414e-05 8.543639e-07
1.879232e-05 2.213617e-05 8.070657e-07
-1.648283e-05 -2.387959e-05 -8.317882e-07
6.764009e-06 -2.635765e-05 9.012702e-07
5.003398e-06 2.636322e-05 1.136685e-07
-2.861766e-05 4.258714e-06 -9.166881e-07
-2.754830e-05 3.550584e-06 -1.214225e-06
-2.041485e-05 -2.060074e-05 8.463211e-07
1.090211e-06 -2.727945e-05 -9.796878e-07
-2.839103e-05 7.370547e-06 -3.065925e-22
1.717941e-05 2.221779e-05 -1.251751e-06
-1.159745e-05 -2.439091e-05 -6.451848e-07
2.438040e-05 -1.146284e-05 -5.176411e-07
2.438040e-05 1.146284e-05 -5.176411e-07
-1.092394e-05 -2.595062e-05 -1.249466e-06
2.798210e-05 7.646784e-06 -8.403715e-07
2.798210e-05 -7.646784e-06 -8.403715e-07
1.048733e-05 2.478808e-05 -4.576099e-07
-1.854810e-05 -2.231845e-05 8.273709e-07
-2.501022e-05 -1.043280e-05 -7.769783e-07
2.828996e-05 7.749422e-06 -3.065925e-22
-2.857793e-05 6.608913e-06 -3.065925e-22
1.489281e-06 2.679827e-05 1.653866e-07
-2.781359e-05 -8.309996e-06 -8.173605e-07
2.889114e-05 2.432480e-06 -8.563943e-07
2.889114e-05 -2.432480e-06 -8.563943e-07
-1.498072e-05 -2.226342e-05 1.192879e-07
-1.631623e-05 2.396330e-05 8.592455e-07
-2.394833e-05 1.633820e-05 8.592454e-07
-2.195870e-05 1.892815e-05 8.592454e-07
-1.351739e-05 2.564643e-05 8.592450e-07
2.739707e-05 2.072816e-06 1.095829e-06
-2.874439e-05 5.842555e-06 -3.065925e-22
2.739707e-05 -2.072816e-06 1.095829e-06
-2.489806e-05 1.165167e-05 1.103533e-06
7.935862e-06 2.795245e-05 -7.828657e-07
-8.181323e-06 -2.789197e-05 -7.702834e-07
-2.279688e-05 -1.580655e-05 -1.204776e-06
-2.644408e-05 5.101266e-06 4.971937e-07
-2.666516e-05 -5.480293e-06 9.115332e-07
1.570533e-05 -2.441716e-05 8.132823e-07
2.423101e-05 -1.387952e-05 -1.242024e-06
2.423101e-05 1.387952e-05 -1.242024e-06
-2.889031e-05 5.072021e-06 -3.065925e-22
4.024423e-06 2.724563e-05 -1.129694e-06
-9.283140e-06 -2.633827e-05 1.242244e-06
-2.666454e-05 3.007238e-06 1.111464e-07
1.717423e-05 -2.232582e-05 -1.248740e-06
1.489748e-05 2.340629e-05 1.206010e-06
1.750653e-06 -2.900257e-05 7.850865e-07
-2.535721e-05 1.089894e-05 1.156018e-06
-1.273475e-05 2.448936e-05 1.156974e-06
-2.080719e-05 1.813735e-05 1.156974e-06
-3.129482e-06 2.666007e-05 1.898420e-07
-2.901558e-05 4.297861e-06 -3.065925e-22
1.045428e-05 2.703290e-05 -8.663114e-07
9.283819e-06 2.755483e-05 -7.577463e-07
-1.628164e-05 -2.400376e-05 8.441418e-07
2.552537e-05 1.090060e-05 1.208858e-06
2.552537e-05 -1.090060e-05 1.208858e-06
-1.223234e-05 2.403640e-05 -5.777686e-07
-2.017395e-05 1.789946e-05 -5.777696e-07
-2.839276e-05 -5.790699e-06 8.732508e-07
8.683542e-06 -2.772435e-05 -7.887172e-07
2.131039e-05 -1.667083e-05 -7.199651e-07
-2.912011e-05 3.520629e-06 -3.065925e-22
2.131039e-05 1.667083e-05 -7.199651e-07
-2.486297e-05 1.053806e-05 -6.390209e-07
-1.592632e-05 -2.159373e-05 -8.647442e-08
2.327612e-05 1.493762e-05 -1.177980e-06
2.327612e-05 -1.493762e-05 -1.177980e-06
-2.252132e-05 -1.830429e-05 -8.251877e-07
-2.684984e-05 1.088273e-06 3.261600e-07
-9.462913e-06 -2.511019e-05 1.166907e-07
-7.848705e-06 2.692333e-05 1.251230e-06
-2.655284e-05 -7.373000e-06 -1.137300e-06
-2.920382e-05 2.740880e-06 -3.065925e-22
-1.778905e-05 -2.194228e-05 1.240573e-06
-2.165464e-05 -1.735669e-05 -1.207934e-06
-5.455886e-06 -2.849308e-05 8.374942e-07
-1.362972e-06 2.679417e-05 2.069391e-08
7.514826e-06 2.802750e-05 8.299508e-07
-1.046708e-06 2.772605e-05 1.206210e-06
-1.601247e-05 2.286944e-05 1.241169e-06
-2.326564e-05 1.543115e-05 1.241169e-06
-1.133047e-06 2.759418e-05 -1.162995e-06
2.185323e-05 -1.905010e-05 8.590457e-07
-2.926666e-05 1.959172e-06 -3.065925e-22
2.185323e-05 1.905010e-05 8.590457e-07
-2.603306e-05 -7.385849e-06 7.257504e-07
3.580973e-06 2.659682e-05 1.427327e-07
9.846969e-06 2.510579e-05 -5.736360e-07
2.880563e-05 7.790710e-07 1.012694e-06
2.880563e-05 -7.790710e-07 1.012694e-06
-2.518878e-05 -9.248921e-06 -1.059187e-07
-2.308045e-05 -1.368571e-05 -1.034452e-07
1.695013e-05 2.087502e-05 -3.871666e-07
1.709654e-05 2.074692e-05 3.667202e-07
-2.930857e-05 1.176064e-06 -3.065925e-22
1.455374e-05 2.509238e-05 8.409911e-07
-2.482843e-05 -1.240219e-05 -1.208361e-06
-2.696565e-05 -8.272156e-06 -1.245448e-06
-2.654607e-05 1.168109e-05 8.466070e-07
-2.073085e-05 -2.033985e-05 -8.005700e-07
5.415076e-06 -2.719107e-05 -1.200254e-06
5.231060e-06 2.853118e-05 -8.418756e-07
1.578246e-05 -2.266317e-05 -1.162872e-06
2.689626e-05 8.051731e-07 4.394309e-07
2.689626e-05 -8.051731e-07 4.394309e-07
-2.932954e-05 3.921147e-07 -3.065925e-22
2.815175e-05 2.161201e-06 -1.242227e-06
2.815175e-05 -2.161201e-06 -1.242227e-06
-2.487168e-05 -1.228946e-05 1.205213e-06
7.348554e-06 2.663137e-05 -1.166617e-06
6.508471e-06 2.687674e-05 -1.176735e-06
8.875712e-06 -2.761216e-05 8.453238e-07
-5.143648e-06 2.645252e-05 -5.333819e-07
-5.598312e-06 2.847118e-05 -8.311943e-07
1.211236e-06 2.886714e-05 -9.525400e-07
2.264517e-06 2.755610e-05 -1.175069e-06
-2.932954e-05 -3.921147e-07 -3.065925e-22
1.392360e-06 2.761953e-05 -1.177112e-06
-1.054599e-05 -2.566181e-05 1.205793e-06
-1.224880e-06 2.901826e-05 -7.988633e-07
-6.037076e-06 2.844062e-05 7.609532e-07
1.830254e-05 -1.977904e-05 -5.333989e-07
1.831579e-05 1.977535e-05 -5.465627e-07
-1.938899e-05 -2.116598e-05 -1.085248e-06
2.551647e-06 2.895321e-05 -7.724075e-07
-2.690843e-05 2.487905e-06 -6.702408e-07
-1.585668e-05 -2.272266e-05 1.195194e-06
2.807268e-05 8.502950e-06 -3.065925e-22
-2.930857e-05 -1.176064e-06 -3.065925e-22
-6.684725e-06 -2.809492e-05 -9.637271e-07
-2.894590e-06 2.750675e-05 -1.178562e-06
-3.764701e-06 2.739050e-05 -1.174707e-06
2.822040e-05 -6.839514e-06 8.068918e-07
2.822040e-05 6.839514e-06 8.068918e-07
3.294678e-06 2.886936e-05 7.833484e-07
4.749497e-06 -2.745858e-05 1.233315e-06
-8.979202e-06 2.763514e-05 7.826606e-07
-2.766802e-05 1.328996e-06 -1.192533e-06
2.671331e-05 -1.137878e-05 -8.087735e-07
-2.926666e-05 -1.959172e-06 -3.065925e-22
2.671331e-05 1.137878e-05 -8.087735e-07
-2.702217e-07 2.766980e-05 -1.182959e-06
1.928325e-05 -1.877131e-05 4.467383e-07
1.928325e-05 1.877131e-05 4.467383e-07
1.228126e-05 -2.519864e-05 1.250828e-06
1.429778e-05 -2.366499e-05 -1.175012e-06
1.360792e-05 -2.404544e-05 -1.167514e-06
[...]
POINT_DATA 2891
VECTORS 10.000GHz_fone_imag double
-5.214380e-06 9.460194e-06 1.748295e-02
-3.071115e-05 -1.275854e-04 1.765241e-02
-5.634569e-05 -1.504803e-04 1.757205e-02
1.159739e-02 5.921804e-03 1.285396e-02
-4.146047e-03 -8.185953e-04 -2.403976e-02
-1.013059e-03 -1.708708e-02 -1.552025e-02
-8.498665e-03 1.871050e-02 -6.738054e-03
1.472433e-03 1.207375e-02 1.352516e-02
-9.971227e-03 -1.827988e-02 -2.594948e-03
1.143294e-02 1.611710e-02 -1.057295e-02
7.589771e-03 -1.062258e-02 1.283886e-02
1.896489e-02 -2.210737e-03 -1.155234e-02
-5.143551e-04 -1.277584e-02 1.327255e-02
2.324992e-05 -2.214760e-04 1.736578e-02
9.902645e-04 -1.269534e-02 1.328420e-02
3.205658e-04 -1.242800e-02 1.349242e-02
-1.029482e-03 1.173377e-02 1.365414e-02
-1.188570e-02 1.681493e-02 -5.766546e-03
1.359666e-02 -1.525366e-02 -7.340451e-03
1.633909e-02 -1.252923e-02 -7.083862e-03
1.064035e-02 -1.749939e-02 -7.174549e-03
6.825837e-03 -1.934884e-02 -8.046265e-03
1.838732e-02 -9.411860e-03 -5.422817e-03
-2.019360e-02 5.154814e-03 -5.288915e-03
3.572523e-04 -2.938463e-04 1.748543e-02
1.351989e-02 1.486881e-02 -9.048529e-03
-5.282996e-03 -1.255943e-02 1.216249e-02
6.026441e-03 1.964356e-02 -6.838203e-03
1.220471e-02 -3.907830e-03 1.323171e-02
1.487721e-02 1.109729e-02 -1.277099e-02
1.487717e-02 -1.109748e-02 -1.276820e-02
-2.487958e-03 -9.626083e-03 -2.170315e-02
3.441912e-03 1.855837e-02 -1.264052e-02
1.233155e-02 -1.836049e-03 1.321893e-02
1.306813e-02 -1.974754e-03 1.258259e-02
3.769626e-04 -7.344176e-05 1.754863e-02
1.306914e-02 1.974925e-03 1.258327e-02
1.153874e-02 -2.555998e-03 1.361740e-02
1.577738e-02 1.352467e-02 -4.807200e-03
1.279352e-02 -1.083729e-03 1.321145e-02
-8.485706e-03 -1.283657e-03 -2.255283e-02
-1.739025e-02 3.057397e-03 -1.433486e-02
4.940655e-04 1.266890e-02 1.320353e-02
-1.138254e-02 -1.684409e-02 -7.984556e-03
-1.149380e-02 -1.717680e-02 -6.163352e-03
-1.253066e-02 4.113401e-03 1.306779e-02
1.937421e-04 -1.043042e-04 1.745737e-02
-4.013857e-04 1.089647e-02 -2.139645e-02
-6.068903e-04 4.819270e-03 -2.393530e-02
4.460840e-03 -9.630195e-03 1.448739e-02
-1.234876e-02 -2.091975e-03 1.323255e-02
-1.234759e-02 2.092215e-03 1.323365e-02
-7.243811e-03 1.854002e-02 -9.156808e-03
-1.001264e-02 1.718098e-02 -9.231524e-03
-1.351450e-02 1.451495e-02 -9.108885e-03
-1.559704e-02 1.227971e-02 -9.295826e-03
-1.765485e-02 9.390560e-03 -8.753848e-03
1.007132e-04 5.362221e-05 1.763106e-02
-1.712980e-02 3.627743e-03 -1.455482e-02
-1.783684e-02 -1.035307e-02 -2.045562e-03
-1.067458e-02 7.668108e-03 1.289573e-02
-1.159768e-02 6.076611e-03 1.283188e-02
-7.066832e-03 1.111313e-02 1.285163e-02
-8.492327e-03 1.004979e-02 1.289678e-02
-4.219598e-03 1.231786e-02 1.290008e-02
-1.117362e-02 -8.804547e-03 1.148066e-02
1.981906e-02 -5.061224e-03 -7.120407e-03
9.368467e-03 -1.067226e-02 1.253965e-02
-5.569397e-05 9.022725e-05 1.744426e-02
8.856577e-03 1.060717e-02 1.238342e-02
2.448284e-03 -5.561678e-04 -2.449719e-02
-1.980893e-02 -6.662390e-03 -3.492770e-03
-1.787508e-03 -2.042647e-02 -7.271248e-03
2.080658e-03 2.065207e-02 -6.161638e-03
5.938179e-03 2.353143e-03 -2.348055e-02
-1.207111e-02 2.715646e-03 1.378588e-02
5.529027e-03 7.843882e-04 -2.377514e-02
5.530817e-03 -7.820889e-04 -2.377315e-02
1.983730e-02 -5.793954e-03 -6.675560e-03
-3.488902e-04 4.203390e-05 1.751622e-02
1.983775e-02 5.794117e-03 -6.675674e-03
-3.063388e-03 -2.080686e-02 -4.545034e-03
1.278032e-02 -1.633286e-02 5.032686e-05
1.778271e-02 -1.060390e-02 -5.563210e-05
1.437846e-02 -1.480776e-02 -4.539825e-04
7.944472e-03 -1.904974e-02 -4.183789e-04
-9.710764e-03 -9.195136e-03 -1.999050e-02
1.171238e-02 1.657362e-02 -8.057116e-03
2.350667e-03 -2.088698e-02 -3.562951e-03
-1.625937e-03 3.609983e-03 -2.414497e-02
-2.338391e-04 -9.995866e-05 1.750041e-02
5.643153e-03 -1.983136e-02 -5.900636e-03
-6.988031e-03 -1.093313e-02 1.282629e-02
-7.976945e-03 -8.977278e-03 1.374654e-02
-6.544338e-03 -1.005800e-02 1.351729e-02
-3.905387e-03 1.549308e-02 -1.633120e-02
-2.915138e-04 -1.873834e-03 -2.427932e-02
-1.340179e-02 2.095186e-03 1.309912e-02
-2.078196e-02 2.432686e-03 -6.528447e-03
8.880006e-03 8.649191e-03 1.320796e-02
5.023488e-04 -1.781196e-02 -1.472014e-02
-3.355117e-05 -1.138807e-04 1.738745e-02
1.259808e-02 1.603113e-02 -1.158366e-03
-4.931794e-03 -1.058998e-02 -2.090908e-02
8.830748e-03 -3.983887e-03 -2.195096e-02
8.830830e-03 3.983705e-03 -2.195139e-02
-7.786150e-03 -1.895989e-02 7.337326e-04
1.230202e-02 3.320113e-03 1.324174e-02
1.230131e-02 -3.319648e-03 1.324270e-02
3.172161e-03 8.016273e-03 -2.270382e-02
8.161335e-03 9.840390e-03 1.298021e-02
-1.303268e-02 -5.341490e-03 -1.876847e-02
-5.305423e-05 2.839544e-04 1.760963e-02
3.035232e-04 -3.172133e-04 1.723114e-02
-5.507439e-04 -3.296854e-03 -2.418828e-02
-1.204325e-02 -3.501350e-03 1.371325e-02
1.279217e-02 9.474425e-04 1.295916e-02
1.279092e-02 -9.477557e-04 1.295704e-02
1.389087e-03 2.632177e-03 -2.430298e-02
7.724653e-03 -1.074787e-02 1.262386e-02
1.110636e-02 -7.149041e-03 1.255620e-02
1.010196e-02 -9.130350e-03 1.236454e-02
6.081518e-03 -1.214759e-02 1.238913e-02
-1.892956e-02 -9.665301e-04 -1.201670e-02
5.881821e-04 -1.574608e-04 1.716675e-02
-1.893331e-02 9.661473e-04 -1.202080e-02
1.745758e-02 -8.501759e-03 -1.111867e-02
3.508261e-03 1.124235e-02 1.390036e-02
-3.816912e-03 -1.126980e-02 1.368304e-02
-1.710938e-02 -1.133222e-02 -6.617876e-03
1.032300e-02 -1.954123e-03 -2.200751e-02
1.600209e-02 3.067036e-03 -1.604657e-02
-6.570751e-03 1.049830e-02 1.350561e-02
1.793156e-02 -1.048919e-02 -3.404581e-03
1.793191e-02 1.049056e-02 -3.405345e-03
4.128787e-04 -9.176569e-05 1.744284e-02
3.225446e-03 1.968613e-02 -1.007899e-02
7.129272e-03 1.990090e-02 -3.707320e-03
1.662953e-03 -6.502345e-04 -2.432713e-02
1.248985e-02 -1.596065e-02 7.960088e-04
-1.118411e-02 -1.762833e-02 -6.748569e-03
-7.784765e-04 1.186131e-02 1.388497e-02
1.818255e-02 -8.147675e-03 -9.596382e-03
8.761903e-03 -1.777650e-02 -9.492283e-03
1.461204e-02 -1.330537e-02 -9.477377e-03
2.808132e-04 -3.621631e-03 -2.434345e-02
4.544693e-04 -1.749605e-08 1.750649e-02
4.682903e-03 1.212154e-02 1.277437e-02
3.354098e-03 1.067860e-02 1.402784e-02
6.990727e-03 1.033665e-02 1.327221e-02
-1.887777e-02 -8.420557e-03 -6.800849e-03
-1.887817e-02 8.420272e-03 -6.804428e-03
-5.088406e-03 9.964258e-03 -2.120633e-02
-8.354377e-03 7.407232e-03 -2.119662e-02
1.296609e-02 2.173715e-03 1.284005e-02
3.609913e-03 -1.125049e-02 1.406219e-02
1.065114e-02 -8.282145e-03 -1.928860e-02
-7.633899e-05 5.383938e-04 1.731780e-02
1.065561e-02 8.284413e-03 -1.928842e-02
-1.104035e-02 4.622014e-03 -2.059736e-02
-7.051252e-04 -1.260174e-03 -2.449981e-02
1.734767e-02 1.069318e-02 -8.600704e-03
1.734667e-02 -1.070356e-02 -8.590303e-03
-9.579464e-03 -7.838253e-03 1.338391e-02
6.812128e-03 1.145414e-05 -2.326806e-02
9.538864e-04 1.790342e-03 -2.413206e-02
5.536081e-03 -1.995353e-02 -1.026860e-03
-1.898217e-02 -5.339691e-03 -9.821974e-03
-1.454157e-04 3.195065e-04 1.732167e-02
1.278426e-02 1.539016e-02 2.007193e-03
-1.574311e-02 -1.327701e-02 -6.272386e-03
2.140230e-03 1.270834e-02 1.293097e-02
-1.088472e-04 -6.937036e-05 -2.455590e-02
-3.172575e-03 -1.198974e-02 1.354783e-02
6.694863e-04 -2.089863e-02 -7.172083e-03
1.183339e-02 -1.720160e-02 -3.674635e-03
1.724441e-02 -1.167447e-02 -3.640155e-03
-7.883833e-04 2.003710e-02 -8.726071e-03
-9.778287e-03 8.498664e-03 1.279453e-02
-2.730246e-04 -4.241045e-04 1.731399e-02
-9.775722e-03 -8.498394e-03 1.279510e-02
1.270417e-02 3.613710e-03 -1.901455e-02
-3.364913e-04 -2.449919e-03 -2.424437e-02
4.069993e-03 1.022128e-02 -2.135638e-02
-1.567322e-02 -5.508327e-04 1.030809e-02
-1.566983e-02 5.550386e-04 1.031653e-02
-2.225284e-03 -7.663453e-04 -2.434749e-02
-1.867500e-03 -1.329650e-03 -2.399834e-02
4.521218e-03 5.754617e-03 -2.312629e-02
-4.467474e-03 -5.201817e-03 -2.305592e-02
-6.767636e-05 3.552762e-05 1.759270e-02
-6.422076e-03 -1.107211e-02 1.313036e-02
-1.855595e-02 -9.202734e-03 -6.460274e-03
-1.936098e-02 -6.205051e-03 7.909782e-04
1.196894e-02 -5.154017e-03 1.294541e-02
-8.315644e-03 -8.169686e-03 1.390260e-02
3.987614e-03 -2.010495e-02 -6.932804e-03
2.406144e-03 1.235875e-02 1.324572e-02
1.141468e-02 -1.638386e-02 -8.838515e-03
-7.968351e-03 -3.790733e-04 -2.295240e-02
-7.960809e-03 3.592676e-04 -2.297466e-02
-3.961377e-05 -7.966596e-05 1.768560e-02
2.007141e-02 1.843318e-03 1.978758e-03
2.007054e-02 -1.841193e-03 1.980949e-03
1.866996e-02 8.929652e-03 -6.368769e-03
5.356784e-03 1.948581e-02 -8.910212e-03
4.893378e-03 1.965652e-02 -8.670231e-03
-3.981697e-03 1.238267e-02 1.330144e-02
-1.604668e-03 9.776387e-03 -2.202466e-02
-2.616553e-03 1.283716e-02 1.282701e-02
7.707552e-04 1.460112e-02 1.105675e-02
1.465640e-03 2.023463e-02 -8.564318e-03
-9.356255e-06 5.290695e-04 1.722800e-02
1.314499e-03 2.008046e-02 -8.752126e-03
7.851416e-03 1.910192e-02 -6.873820e-03
-3.506475e-04 1.201971e-02 1.351579e-02
2.354970e-03 -1.102133e-02 1.411951e-02
7.069225e-03 -8.076897e-03 -2.144616e-02
7.091044e-03 7.498746e-03 -2.168740e-02
-1.130296e-02 -1.277038e-02 8.655826e-03
1.324423e-03 1.171446e-02 1.380971e-02
-1.218286e-02 4.828384e-04 -2.036417e-02
1.160807e-02 1.699213e-02 -7.410000e-03
9.331544e-05 -6.748906e-05 1.763846e-02
-3.007437e-04 7.388859e-05 1.731680e-02
-3.295651e-03 -1.460363e-02 1.113025e-02
-2.183558e-03 2.046105e-02 -8.119412e-03
-2.684283e-03 2.022072e-02 -8.438938e-03
-1.142497e-02 2.879587e-03 1.396350e-02
-1.142621e-02 -2.879937e-03 1.396167e-02
-1.291560e-03 -1.130060e-02 1.428507e-02
-3.471500e-03 2.069191e-02 -4.768589e-03
3.841166e-03 -9.949787e-03 1.426156e-02
-2.061165e-02 1.128304e-03 -7.262713e-03
1.095290e-02 -4.715579e-03 1.376173e-02
-1.498706e-04 -2.182544e-04 1.744550e-02
1.095492e-02 4.713467e-03 1.376292e-02
-5.859708e-04 2.020674e-02 -8.320277e-03
-5.990140e-03 6.135977e-03 -2.271131e-02
-5.960445e-03 -6.176373e-03 -2.269642e-02
-8.703716e-03 1.876416e-02 -1.777297e-03
1.063894e-02 -1.755871e-02 -8.282210e-03
9.939335e-03 -1.761436e-02 -8.664052e-03
-7.645078e-03 8.859101e-03 1.375384e-02
-7.629397e-03 -8.895498e-03 1.388884e-02
1.161280e-02 -6.391578e-03 1.284438e-02
-2.725711e-04 -9.030293e-05 1.726185e-02
5.167839e-03 -1.242451e-02 1.263550e-02
8.067318e-03 -1.001397e-02 1.320615e-02
9.399978e-03 -9.649686e-03 1.273620e-02
2.759183e-03 1.234853e-02 1.310476e-02
-6.112308e-05 2.090414e-02 -2.488571e-03
1.523350e-03 1.940686e-03 -2.423836e-02
-6.581561e-03 -1.300293e-02 1.133053e-02
-1.483363e-02 1.370969e-02 9.043444e-04
-8.780475e-03 1.816819e-02 9.206565e-04
1.519657e-03 -1.543668e-02 -1.747574e-02
2.669527e-04 -1.314878e-04 1.742325e-02
-9.326081e-03 -5.816772e-03 1.437661e-02
-1.821459e-04 1.258524e-02 1.329557e-02
-1.864313e-03 1.228368e-02 1.324581e-02
2.060264e-02 -1.921258e-05 5.290499e-04
-5.825747e-03 1.158455e-02 1.287536e-02
-9.681369e-03 8.662269e-03 1.289497e-02
9.177826e-05 6.123825e-04 -2.468076e-02
5.139351e-03 1.077361e-02 1.357197e-02
6.834796e-03 -1.014978e-02 1.372608e-02
1.006217e-02 -6.988332e-03 1.365559e-02
-3.463871e-04 2.395050e-04 1.784651e-02
1.009259e-02 -7.898573e-03 1.316935e-02
6.408791e-03 -1.095610e-02 1.326832e-02
-2.022354e-02 -4.709131e-03 -1.052586e-03
-4.419013e-03 -3.035553e-03 -2.364420e-02
-1.407838e-02 1.552055e-02 -5.970287e-03
-1.383484e-02 -1.559234e-02 -6.705210e-03
5.936467e-03 -9.680269e-03 1.426294e-02
2.620176e-05 5.956473e-04 -2.423060e-02
1.131715e-02 1.467747e-03 1.422691e-02
-1.026120e-02 3.424460e-03 1.427985e-02
-2.275149e-04 -5.639523e-04 1.741833e-02
1.989756e-02 -4.406934e-03 1.008205e-03
2.986243e-03 2.010785e-02 -6.836126e-03
-1.036130e-02 -5.836308e-03 -2.076368e-02
-1.036141e-02 5.837044e-03 -2.076127e-02
4.440955e-03 -3.615755e-04 -2.377841e-02
4.438474e-03 3.611415e-04 -2.377894e-02
7.839178e-03 9.157501e-03 1.360753e-02
5.691660e-03 7.858817e-03 -2.207335e-02
-6.409339e-03 -8.890929e-03 1.432636e-02
1.423543e-02 5.833913e-03 -1.811055e-02
4.411294e-04 2.304251e-04 1.754235e-02
8.982910e-03 1.875873e-02 -3.245902e-04
-1.445305e-02 -1.464938e-02 -9.769314e-04
-1.445182e-02 1.464500e-02 -1.049486e-03
-4.443314e-03 -1.007455e-02 1.423378e-02
7.433132e-03 1.921210e-02 4.973226e-04
-7.485768e-03 8.060028e-03 1.470196e-02
-3.971189e-03 1.024976e-02 1.469526e-02
-1.678365e-02 -1.131132e-02 2.906879e-04
-2.398633e-03 1.430564e-03 -2.448276e-02
-2.398106e-03 -1.431431e-03 -2.448517e-02
1.322388e-04 2.257250e-05 1.747897e-02
3.141431e-04 -1.398412e-04 -2.443731e-02
4.708784e-03 1.019059e-02 1.419227e-02
-7.236796e-03 1.323875e-02 -1.758006e-02
-7.251588e-03 9.488127e-03 1.404763e-02
-1.741701e-02 -1.150799e-02 -4.355744e-03
-1.741807e-02 1.150898e-02 -4.355323e-03
-7.173850e-03 -5.282944e-03 -2.216609e-02
5.342536e-03 9.697861e-03 1.417787e-02
-6.091427e-03 -1.972635e-02 6.225611e-04
1.093355e-02 6.452416e-03 1.298735e-02
9.430774e-05 2.140994e-04 1.757196e-02
1.093152e-02 -6.452883e-03 1.298871e-02
1.446186e-03 1.654639e-02 -1.547817e-02
-2.334858e-03 2.044823e-02 3.244888e-05
9.283506e-03 1.873111e-02 -1.753263e-03
-2.452691e-03 -1.445510e-02 -1.821486e-02
-1.932337e-02 -7.695825e-03 -2.417835e-03
7.636504e-05 7.560766e-04 -2.462117e-02
1.590834e-02 7.182377e-04 1.015937e-02
1.586503e-02 -6.529970e-04 1.018508e-02
1.133466e-02 3.935738e-03 1.365515e-02
-3.843856e-04 5.196405e-05 1.748162e-02
-2.847261e-03 1.135569e-02 1.426693e-02
-6.394021e-03 9.156495e-04 -2.351287e-02
-6.391898e-03 -9.149514e-04 -2.351258e-02
7.451820e-04 -1.129165e-02 1.430395e-02
4.757078e-03 1.151061e-02 1.348388e-02
-4.814703e-04 -4.120903e-04 -2.453392e-02
-3.412816e-04 1.181240e-02 1.367084e-02
-1.052156e-02 -2.637221e-04 1.442855e-02
-9.556928e-03 -1.251032e-03 1.490978e-02
-1.026301e-02 -4.730410e-03 1.421877e-02
-1.026092e-04 1.485297e-04 1.768624e-02
-2.242555e-05 -8.800629e-05 1.742945e-02
-5.794044e-03 -1.104275e-02 1.324094e-02
2.246870e-03 9.503405e-03 -2.190606e-02
3.057789e-03 1.185439e-02 1.364912e-02
1.692025e-02 1.245207e-02 -4.270786e-03
-1.787291e-02 -1.046147e-02 -4.811914e-03
-1.787337e-02 1.045926e-02 -4.812963e-03
-5.483118e-03 5.955825e-03 -2.270723e-02
1.695463e-03 1.443225e-03 -2.406822e-02
1.692341e-03 -1.444508e-03 -2.406781e-02
4.821638e-03 2.020389e-02 -3.940116e-03
7.937180e-05 6.262757e-05 1.748537e-02
1.097034e-02 -1.650886e-02 2.582838e-03
1.120447e-02 3.440747e-03 1.411921e-02
-4.705800e-03 -2.017406e-02 -4.196233e-03
-4.645032e-03 1.520641e-02 -1.726144e-02
-1.054026e-03 2.027556e-02 -9.374017e-03
4.609107e-03 -7.246137e-03 -2.223132e-02
-3.859875e-03 2.045786e-02 -4.881614e-04
1.746779e-03 -5.588571e-04 -2.413308e-02
1.742328e-03 5.570607e-04 -2.413044e-02
-5.802853e-03 1.058023e-02 1.382958e-02
9.473539e-06 -7.495412e-06 1.737617e-02
-9.303387e-03 7.755310e-03 1.383697e-02
6.543173e-03 1.975907e-02 -2.911324e-03
1.644087e-03 1.214464e-02 -2.021581e-02
-2.009499e-02 1.695475e-03 2.906165e-03
-2.009360e-02 -1.697713e-03 2.904334e-03
-2.153718e-03 -1.194385e-02 1.380161e-02
4.753572e-03 1.030678e-02 -2.096697e-02
8.983283e-04 -1.762259e-03 -2.432409e-02
6.601662e-04 -1.766009e-03 -2.423972e-02
1.505465e-03 -1.230470e-03 -2.432154e-02
5.619574e-05 2.456116e-05 1.742481e-02
1.225636e-03 -1.496465e-03 -2.417002e-02
1.171517e-02 -4.337303e-03 1.334527e-02
2.768674e-04 1.040237e-02 -2.149177e-02
9.225458e-03 7.115834e-03 1.410084e-02
1.684182e-03 -1.015142e-03 -2.436502e-02
8.450374e-03 1.916106e-02 -1.754138e-03
6.027066e-03 8.747317e-03 1.485300e-02
9.972432e-03 4.442455e-03 1.433264e-02
1.069162e-02 -5.754335e-03 -2.058487e-02
9.597985e-03 -6.985401e-03 -2.060102e-02
3.263028e-05 7.799487e-06 1.737874e-02
7.816444e-03 -9.238482e-03 -2.055125e-02
6.425346e-03 -9.902996e-03 -2.068562e-02
2.070126e-02 2.170946e-03 -3.710905e-03
3.438318e-03 -1.134871e-02 -2.085908e-02
2.753181e-04 2.098309e-02 -3.103780e-03
-2.733587e-03 -2.068285e-02 -4.943528e-03
1.994724e-02 -3.475944e-03 1.077774e-03
-3.973588e-04 1.044207e-02 -2.147088e-02
-1.091303e-02 -2.941521e-03 1.427726e-02
-3.345156e-03 7.709204e-03 -2.253854e-02
-1.022695e-04 9.249654e-05 1.751405e-02
9.733680e-03 3.436570e-03 -2.140704e-02
9.732182e-03 -3.435945e-03 -2.141138e-02
-1.235332e-03 -2.082202e-02 -1.323489e-03
-1.019713e-02 4.955768e-03 1.413001e-02
-1.019658e-02 -4.955544e-03 1.412892e-02
-2.668395e-03 1.101784e-02 1.434750e-02
1.083751e-02 -5.172753e-03 1.368797e-02
-5.120636e-03 2.018564e-02 -1.079619e-03
-7.069688e-03 -2.500252e-03 -2.310749e-02
1.159026e-04 -1.680183e-04 -2.429922e-02
2.615857e-04 1.127018e-05 1.753280e-02
6.085717e-03 1.233367e-03 -2.342018e-02
4.166047e-03 -9.111194e-03 -2.198388e-02
-6.465312e-03 -1.320909e-02 -1.839655e-02
-3.104512e-03 1.078695e-02 -2.125912e-02
-2.005734e-02 -3.885843e-03 -7.733532e-05
5.616012e-03 -1.971871e-02 7.900734e-04
-1.374694e-02 -1.836156e-03 -1.938462e-02
1.970999e-02 -6.732808e-03 -5.805804e-03
2.084102e-02 1.423294e-03 -3.295835e-03
7.329649e-03 9.493580e-03 -2.057083e-02
1.451884e-04 2.311264e-05 1.736060e-02
4.618997e-03 -1.082859e-02 -2.064275e-02
-1.113414e-02 5.162991e-04 1.442580e-02
9.657558e-03 -1.806604e-02 1.351788e-04
-1.016946e-02 -6.850520e-04 -2.143240e-02
-8.041650e-03 3.724517e-03 1.553675e-02
-4.908095e-03 -7.741618e-03 -2.200007e-02
-1.875305e-02 6.161020e-03 4.222497e-03
-1.875449e-02 -6.161882e-03 4.221761e-03
3.951344e-04 1.110067e-02 -2.103462e-02
2.006229e-02 -4.605169e-03 -4.765692e-04
1.770213e-04 1.695172e-04 1.759084e-02
2.006239e-02 4.605511e-03 -4.762524e-04
2.092987e-02 -1.262552e-03 -2.643215e-03
-1.859150e-02 -8.998658e-03 5.964154e-04
-1.859309e-02 9.001650e-03 5.978420e-04
1.142999e-02 3.869181e-03 1.343005e-02
1.143124e-02 -3.870092e-03 1.342907e-02
-1.615810e-02 -6.149122e-03 -1.499062e-02
-1.615731e-02 6.150103e-03 -1.499313e-02
-1.519419e-02 -1.338980e-02 -9.803701e-04
-1.095015e-02 -1.757773e-02 -4.342978e-03
2.450021e-04 5.353967e-05 1.767770e-02
-1.074611e-02 -2.215887e-03 1.462308e-02
4.872528e-03 8.895831e-03 1.473397e-02
1.133648e-02 2.228987e-03 1.405629e-02
1.133515e-02 -2.228881e-03 1.405632e-02
2.850331e-03 1.044440e-02 -2.144220e-02
-8.971133e-03 -6.971498e-03 1.442994e-02
-8.971135e-03 6.971869e-03 1.443238e-02
-4.684539e-03 1.076141e-02 -2.064100e-02
-8.275429e-03 8.286510e-03 -2.062122e-02
-1.149495e-02 1.720674e-02 7.033115e-04
-1.710887e-04 -2.182767e-04 1.758547e-02
8.391158e-05 5.852228e-04 1.762933e-02
-1.009035e-03 -1.084454e-02 1.447296e-02
1.097466e-02 8.173616e-04 1.456973e-02
-1.013493e-03 1.299853e-02 -1.970847e-02
3.918448e-03 2.019266e-02 -5.186079e-03
-1.722058e-04 -2.097916e-02 -2.266223e-03
2.416899e-03 -2.068849e-02 -2.311549e-03
-1.453104e-02 -1.467805e-02 -3.520701e-04
-2.050683e-02 -8.227047e-04 -6.341282e-03
1.134011e-02 1.096869e-02 -1.721604e-02
-3.343043e-03 1.108590e-02 1.394921e-02
-3.391464e-04 -9.712241e-05 1.770468e-02
1.884379e-02 -7.343420e-03 1.242921e-03
1.095985e-02 -5.833419e-03 -2.012388e-02
1.096020e-02 5.833094e-03 -2.012495e-02
-2.444642e-04 -1.495437e-02 -1.814024e-02
1.320685e-02 6.898146e-03 -1.807100e-02
1.524898e-02 1.461730e-02 -2.826945e-03
1.525583e-02 -1.459151e-02 -2.818248e-03
2.057272e-02 -3.932422e-03 -3.993969e-03
2.057278e-02 3.932561e-03 -3.992277e-03
2.658634e-03 1.985432e-02 2.428645e-03
-1.939247e-04 -1.107602e-04 1.766890e-02
5.391216e-03 1.004277e-02 1.404217e-02
-7.427078e-04 -8.131117e-04 -2.444654e-02
-5.332322e-03 -1.831860e-03 -2.351092e-02
-2.042958e-02 4.287777e-03 -2.828566e-03
-2.042921e-02 -4.287238e-03 -2.828755e-03
-1.267628e-02 -1.493511e-02 3.708529e-03
5.984513e-03 -7.988064e-03 -2.165624e-02
-2.360063e-03 -1.128125e-02 1.416508e-02
-1.356012e-02 -1.472274e-02 2.345239e-03
-1.344445e-02 1.476550e-02 2.338046e-03
4.316822e-05 -2.834929e-05 1.763681e-02
-1.355305e-03 2.877591e-03 -2.389171e-02
-2.020279e-02 -1.632545e-03 8.160160e-04
1.972277e-02 2.699435e-03 2.697300e-03
1.972180e-02 -2.699029e-03 2.698266e-03
3.353620e-03 5.022815e-03 -2.367418e-02
1.814906e-02 -8.881619e-03 1.027647e-03
1.814973e-02 8.881697e-03 1.028268e-03
1.904089e-02 8.700231e-03 -3.839026e-03
-9.112790e-03 -6.878051e-03 1.423998e-02
-2.068917e-02 8.055667e-04 -5.653237e-03
-1.945022e-04 -3.033205e-04 1.755358e-02
-6.947390e-03 -6.970238e-03 -2.182150e-02