# vtk DataFile Version 2.0
Electric current density generated by TTH
ASCII
DATASET UNSTRUCTURED_GRID
POINTS 10982 double
4.101508e-05 -1.004580e-20 -1.169261e-22
4.092644e-05 2.694973e-06 -1.169261e-22
3.074604e-05 2.714623e-05 -1.169261e-22
-3.873989e-05 -1.027089e-05 1.298428e-07
1.011012e-06 -4.096424e-05 -1.875031e-07
2.532324e-06 4.003613e-05 -2.240294e-07
2.396905e-05 -3.324528e-05 1.669823e-07
-3.518804e-05 1.914760e-05 -3.430911e-09
3.391946e-05 -2.181288e-05 4.287720e-07
7.274734e-06 4.003952e-05 4.507138e-07
-3.904882e-05 9.408332e-06 -2.998756e-07
3.394351e-05 2.295635e-05 1.856388e-07
-7.297089e-06 -4.033006e-05 1.670579e-07
2.743248e-05 -3.044042e-05 1.855082e-07
1.213791e-05 3.818248e-05 6.908908e-08
-1.031213e-05 -3.873257e-05 -1.417107e-07
-3.139464e-05 2.561708e-05 4.770535e-07
-3.629762e-05 1.699261e-05 -1.296708e-07
2.154201e-06 -4.003045e-05 -1.612905e-07
4.022725e-05 -1.611816e-06 -3.879721e-07
3.891737e-05 9.760001e-06 2.357204e-07
-4.065063e-05 -5.232478e-06 -1.640472e-07
1.695675e-05 3.669067e-05 4.625270e-07
3.178559e-05 2.478493e-05 -4.176908e-07
3.974058e-05 -8.591991e-06 -4.617741e-07
3.366392e-05 -2.172232e-05 5.878035e-08
3.970713e-05 5.450098e-06 -1.337460e-07
-4.005023e-05 1.350976e-06 1.094248e-07
4.043381e-05 -1.288056e-06 4.700514e-07
-3.856422e-05 1.197004e-05 4.503139e-07
-3.963198e-06 3.999182e-05 -3.246833e-07
3.779345e-05 -1.475133e-05 4.762739e-07
2.962579e-05 -2.832214e-05 1.647764e-07
3.888817e-05 1.264275e-05 3.203008e-07
4.023720e-05 3.291327e-06 4.475602e-07
3.929399e-05 -7.894416e-06 -1.328717e-07
-1.247599e-06 4.006718e-05 -1.562624e-07
-3.704801e-05 1.540174e-05 2.345994e-07
3.990456e-05 -9.349278e-06 1.663502e-07
1.674848e-05 -3.656778e-05 3.570569e-07
1.890010e-05 -3.607491e-05 4.386471e-07
2.612085e-05 -3.157395e-05 1.839777e-07
3.488455e-05 2.150073e-05 1.839763e-07
-3.560127e-05 1.893640e-05 -4.269722e-07
-3.167758e-05 -2.552322e-05 -4.555216e-07
1.940275e-05 3.610148e-05 -1.663351e-07
-2.610196e-05 -3.159882e-05 -1.658642e-07
-2.778249e-06 3.996391e-05 -7.510892e-09
-1.966607e-05 -3.595891e-05 -1.658642e-07
9.931391e-06 -3.976387e-05 -1.658642e-07
3.643760e-06 4.054377e-05 -4.462875e-07
2.239476e-05 -3.398033e-05 4.502684e-07
-1.213423e-05 -3.870442e-05 -4.767700e-07
8.172644e-07 -4.071471e-05 -4.399896e-07
2.213002e-05 -3.360251e-05 -3.692679e-07
-3.560465e-05 1.972720e-05 -4.473065e-07
-2.359321e-06 4.026252e-05 4.306046e-07
3.396126e-05 -2.291880e-05 -1.999359e-07
-4.235986e-06 3.983604e-05 -1.753802e-08
3.800770e-05 -1.350771e-05 4.329806e-07
1.497197e-07 4.098507e-05 1.658364e-07
1.373529e-05 -3.795863e-05 -4.459298e-07
5.140925e-06 -4.003856e-05 -4.459288e-07
-2.189782e-05 -3.391167e-05 -4.459288e-07
-2.337306e-05 -3.291224e-05 -4.459288e-07
-3.743635e-05 -1.510085e-05 -4.459288e-07
-3.596465e-05 -1.833192e-05 -4.459288e-07
6.902883e-06 -3.977268e-05 -4.459288e-07
-1.565777e-05 -3.720685e-05 -4.459288e-07
-5.688052e-06 3.965475e-05 -1.746730e-08
1.582533e-08 4.010288e-05 -1.970885e-07
-3.021286e-05 2.670097e-05 4.252212e-07
-3.245745e-05 2.392222e-05 4.252211e-07
-2.368448e-05 3.263135e-05 4.252257e-07
2.232130e-05 -3.434890e-05 -2.139153e-07
3.102205e-05 -2.564796e-05 3.821144e-07
3.222471e-05 -2.424330e-05 -4.277809e-07
-4.016095e-05 4.697491e-06 4.661541e-07
-3.197696e-05 -2.563062e-05 -1.767342e-07
-3.989211e-05 -8.200341e-06 -4.385754e-07
-7.192858e-06 3.940935e-05 -8.492210e-09
-4.038486e-05 8.575710e-07 -4.552395e-07
-3.866120e-05 -1.054053e-05 1.064434e-07
1.740167e-05 3.630027e-05 -3.852622e-07
-5.624286e-06 -3.979420e-05 3.267974e-07
-2.951814e-05 -2.804293e-05 -4.431617e-07
2.685913e-05 -3.052807e-05 -4.609911e-07
3.718326e-05 1.579853e-05 4.572045e-07
-2.636760e-05 3.108731e-05 -4.205487e-07
3.395101e-05 2.237678e-05 -4.609400e-07
-3.970516e-05 6.826696e-06 -4.067346e-07
-8.574822e-06 3.913851e-05 -7.867160e-08
-1.367017e-05 3.821807e-05 -4.745841e-07
2.584494e-05 3.113270e-05 -4.714130e-07
3.529049e-05 -2.043480e-05 4.113807e-07
-1.955146e-06 4.093735e-05 1.693908e-07
-1.331283e-05 -3.874820e-05 -1.995072e-07
2.348105e-05 -3.359242e-05 -1.654336e-07
3.335174e-05 -2.275486e-05 -4.487282e-07
1.493186e-05 3.730184e-05 -3.155244e-07
2.045727e-05 3.458159e-05 -3.155110e-07
-6.707117e-06 4.043293e-05 -1.655559e-07
-9.997866e-06 3.879588e-05 -5.451907e-08
3.997202e-05 9.057537e-06 1.657393e-07
-3.474887e-05 -2.173312e-05 -1.653900e-07
-1.913864e-05 -3.624258e-05 -1.653900e-07
1.450139e-05 -3.833446e-05 -1.650941e-07
-3.822897e-05 -1.476645e-05 -1.752936e-07
-2.173318e-05 -3.474896e-05 -1.650926e-07
4.631439e-06 -4.072310e-05 -1.650926e-07
-3.624268e-05 -1.913869e-05 -1.650926e-07
7.591680e-06 -4.027639e-05 -1.650926e-07
-1.644208e-05 -3.754303e-05 -1.650926e-07
3.054689e-05 2.737013e-05 -1.169261e-22
-1.136295e-05 3.841508e-05 -9.271523e-09
-2.421171e-05 -3.306984e-05 -1.650926e-07
-1.368766e-06 4.095741e-05 1.789287e-07
4.081506e-05 1.670212e-07 -3.882944e-07
3.998686e-05 3.490888e-06 2.625026e-07
2.915042e-05 2.879350e-05 -1.952672e-07
-2.732816e-05 2.991237e-05 4.769118e-07
-8.136533e-06 3.969099e-05 4.769118e-07
-1.521053e-05 3.755287e-05 4.769118e-07
-1.620633e-05 3.713399e-05 4.769118e-07
-4.001791e-05 5.799668e-06 4.664279e-07
-1.273796e-05 3.798129e-05 -8.492204e-09
-2.538457e-05 3.157849e-05 4.769114e-07
-3.980896e-05 7.061510e-06 -4.651771e-07
2.561937e-05 3.081681e-05 -1.186559e-07
3.920803e-05 -1.190394e-05 1.908172e-07
-4.848886e-06 3.976582e-05 -7.460910e-09
3.640893e-06 -4.064093e-05 3.964069e-07
-2.080396e-05 -3.510180e-05 3.964069e-07
-2.378398e-05 -3.317018e-05 3.879328e-07
-1.725746e-05 -3.697461e-05 3.964069e-07
-3.627967e-05 -1.870091e-05 3.879328e-07
-1.417411e-05 3.746929e-05 -1.746803e-08
1.421891e-06 -4.077891e-05 3.964069e-07
-3.909296e-06 -4.062733e-05 3.885955e-07
-1.225997e-05 -3.891831e-05 3.964069e-07
8.513871e-06 -3.990558e-05 3.964069e-07
3.010044e-05 2.746067e-05 4.302003e-07
-2.989366e-05 2.772758e-05 4.152817e-07
3.220554e-05 -2.498106e-05 4.232818e-07
2.265403e-05 3.304474e-05 -6.275240e-08
-4.080515e-05 5.792784e-07 3.926128e-07
-1.152146e-05 -3.863166e-05 -4.212766e-07
-1.552985e-05 3.693473e-05 -7.867160e-08
1.051141e-05 -3.961475e-05 1.651850e-07
-1.420991e-05 -3.843811e-05 1.781065e-07
-2.790340e-05 -3.002030e-05 1.651850e-07
-3.375180e-05 -2.324293e-05 1.778769e-07
-2.917959e-05 -2.877446e-05 1.778769e-07
-3.474893e-05 -2.173316e-05 1.651850e-07
-3.729874e-05 -1.698888e-05 1.651850e-07
-3.042481e-05 -2.746178e-05 1.651850e-07
-3.271251e-05 -2.469230e-05 1.651850e-07
-3.159902e-05 -2.610212e-05 1.651850e-07
-1.681560e-05 3.636027e-05 -8.492204e-09
-2.656104e-05 -3.121425e-05 1.651850e-07
-1.913867e-05 -3.624265e-05 1.651850e-07
1.172299e-06 4.070342e-05 4.410818e-07
1.223731e-05 -3.911606e-05 1.651835e-07
4.030783e-05 -5.550815e-06 4.530269e-07
-4.200541e-06 -4.019846e-05 -4.619667e-07
3.732316e-05 1.651319e-05 3.899762e-07
-1.101228e-05 3.899083e-05 4.768988e-07
1.043375e-05 3.961824e-05 -2.043789e-07
-3.818965e-05 1.275621e-05 3.909761e-07
-1.815635e-05 3.571035e-05 -2.551622e-08
-4.025695e-05 -1.594249e-06 4.071912e-07
3.865071e-05 -1.193611e-05 4.695977e-07
-3.865213e-05 1.282158e-05 -4.398630e-07
-4.333840e-06 4.075628e-05 -1.639201e-07
2.862078e-05 2.803017e-05 1.159999e-08
3.276879e-06 3.999557e-05 -2.476808e-07
-3.993243e-05 5.505397e-06 4.196735e-07
1.835105e-05 -3.606600e-05 4.720111e-07
1.698454e-05 3.730057e-05 -1.655471e-07
-3.196353e-05 2.414878e-05 -6.125646e-09
-1.947863e-05 3.500623e-05 1.742381e-08
-3.339328e-05 2.339526e-05 4.152799e-07
3.941784e-05 9.198427e-06 -4.734975e-07
6.943294e-06 3.949585e-05 1.940420e-07
3.649594e-05 1.863305e-05 -1.859740e-07
-3.820674e-05 -1.377958e-05 -4.709769e-07
-3.707978e-07 4.070696e-05 4.457249e-07
-3.157773e-05 -2.466263e-05 8.212339e-08
-3.944714e-05 -8.015714e-06 -3.834374e-07
-4.031779e-05 -2.952902e-06 4.640847e-07
3.286311e-05 -2.408735e-05 4.298512e-07
-2.078737e-05 3.424509e-05 1.263337e-08
4.057069e-05 -5.819433e-06 -1.642542e-07
-3.995181e-06 -4.054405e-05 -4.322017e-07
1.105697e-05 -3.945828e-05 -1.839859e-07
-2.831133e-05 -2.962569e-05 -1.839859e-07
-3.122890e-05 -2.653240e-05 -1.839859e-07
-2.698587e-05 -3.083789e-05 -1.839859e-07
-3.304534e-05 -2.423258e-05 -1.839859e-07
-3.407552e-05 -2.276118e-05 -1.839859e-07
-8.390387e-08 -4.097136e-05 1.993899e-07
-1.085931e-05 -3.950605e-05 1.995722e-07
-2.203310e-05 3.345708e-05 8.492200e-09
-5.457540e-06 -4.060618e-05 1.997174e-07
-9.117663e-06 -3.994406e-05 1.993688e-07
1.990512e-05 -3.516146e-05 -4.584972e-07
-9.434439e-06 -3.929846e-05 -4.613711e-07
3.849267e-05 1.119516e-05 1.591587e-07
3.969138e-05 -5.681297e-06 1.809351e-07
-2.376606e-05 3.225105e-05 -3.901106e-08
2.339727e-05 3.276348e-05 -3.884068e-07
1.991432e-05 3.498618e-05 -3.860301e-07
1.435174e-05 3.761513e-05 -3.883384e-07
-2.319046e-05 3.266583e-05 1.746803e-08
3.656530e-05 -1.657284e-05 2.725315e-07
-3.953509e-05 1.080615e-05 1.658978e-07
3.995017e-05 -4.258720e-06 -3.121844e-07
3.629109e-05 1.709134e-05 -2.205411e-07
-2.972689e-05 -2.783108e-05 -4.404992e-07
3.515790e-05 -2.076549e-05 -3.755719e-07
3.737718e-05 1.452800e-05 -1.936230e-07
-7.702439e-06 -3.967132e-05 -4.605817e-07
3.685415e-07 -4.041046e-05 -4.605817e-07
-2.284937e-06 4.091266e-05 1.881954e-07
3.034611e-05 2.759258e-05 -1.169261e-22
-2.436801e-05 3.179707e-05 -1.742381e-08
7.937235e-07 -4.028761e-05 -4.113480e-07
6.900307e-06 3.969051e-05 -4.055622e-07
1.684470e-05 -3.706350e-05 4.445223e-07
-3.953975e-05 -1.070898e-05 -2.142438e-07
-3.884118e-05 1.306123e-05 1.833837e-07
-1.396971e-05 3.754683e-05 3.260702e-08
-4.068363e-05 4.888281e-06 1.885855e-07
7.692188e-06 -3.931487e-05 -3.974045e-09
-3.529432e-05 -1.895099e-05 -3.974045e-09
-3.746341e-05 -1.418879e-05 -3.974045e-09
-2.549601e-05 3.089954e-05 3.856042e-10
-9.787437e-07 -4.004922e-05 -2.888481e-08
-2.388793e-05 -3.215892e-05 -3.974045e-09
4.251676e-06 -3.983406e-05 -3.974045e-09
-6.282430e-06 -3.956463e-05 -3.974045e-09
-1.632411e-05 -3.658350e-05 -3.974045e-09
-2.100728e-05 -3.411046e-05 -3.974045e-09
[...]
POINT_DATA 10982
VECTORS 10.000GHz_fone_imag double
-2.475886e-05 3.044341e-05 2.405288e-02
2.422425e-04 7.130516e-05 2.388185e-02
-3.137608e-05 -4.260575e-05 2.385843e-02
6.733792e-03 1.661106e-03 -2.526331e-02
3.025288e-04 -9.475069e-03 2.180492e-02
7.133234e-04 1.197735e-02 -2.312271e-02
-5.007086e-03 6.871674e-03 2.230805e-02
2.958392e-06 -4.200915e-07 -2.615047e-02
-1.885741e-02 1.251250e-02 -1.167072e-02
-4.347227e-03 -2.290732e-02 8.004257e-03
-1.558708e-02 3.786063e-03 -2.038742e-02
-8.245501e-03 -5.390555e-03 2.181466e-02
1.570632e-03 8.397218e-03 2.225323e-02
-6.439813e-03 7.344892e-03 2.175393e-02
-1.195924e-03 -3.612563e-03 -2.598991e-02
-1.914921e-03 -7.247525e-03 -2.496655e-02
1.908015e-02 -1.594707e-02 -1.572122e-03
-6.051463e-03 2.789235e-03 -2.500132e-02
5.371405e-04 -8.636739e-03 -2.463215e-02
2.037203e-02 -7.947125e-04 -1.575815e-02
-1.184986e-02 -3.002570e-03 -2.305187e-02
-8.018661e-03 -1.221020e-03 2.212106e-02
-1.051214e-02 -2.199774e-02 -6.701819e-03
1.755321e-02 1.361932e-02 -1.273645e-02
2.341273e-02 -4.945631e-03 5.662920e-03
-2.569744e-03 1.579761e-03 -2.589457e-02
6.978690e-03 1.297370e-03 -2.519949e-02
5.911860e-03 -1.031170e-04 -2.545600e-02
-2.473788e-02 7.008010e-04 -5.091214e-03
2.255130e-02 -6.951939e-03 -9.071342e-03
-1.466791e-03 1.674986e-02 -1.979487e-02
-2.318860e-02 8.967961e-03 1.175345e-03
-5.999234e-03 5.495494e-03 2.204414e-02
-1.576661e-02 -5.198307e-03 1.750037e-02
-2.350493e-02 -1.988016e-03 -9.262241e-03
6.826714e-03 -1.403117e-03 -2.511951e-02
-4.132241e-04 8.201786e-03 -2.482319e-02
1.141327e-02 -4.812732e-03 -2.249997e-02
-8.300271e-03 1.875593e-03 2.225507e-02
-7.945259e-03 1.732179e-02 -1.751363e-02
-1.052385e-02 1.998549e-02 9.364579e-03
-6.134588e-03 7.433193e-03 2.184434e-02
-8.190687e-03 -5.060442e-03 2.187882e-02
-2.005497e-02 1.077724e-02 -1.199826e-02
-1.859122e-02 -1.502873e-02 6.666355e-03
3.873525e-03 7.558064e-03 2.221626e-02
-5.404776e-03 -6.380819e-03 2.232460e-02
-7.689559e-05 6.800731e-04 -2.611235e-02
-3.891329e-03 -7.447444e-03 2.237930e-02
2.136035e-03 -8.105022e-03 2.239039e-02
2.224853e-03 2.332653e-02 7.924588e-03
-1.308015e-02 1.945530e-02 7.707883e-03
-7.536369e-03 -2.384849e-02 3.503837e-04
5.784310e-04 -2.270812e-02 9.016835e-03
1.074689e-02 -1.639406e-02 -1.665420e-02
-2.038743e-02 1.100731e-02 8.323989e-03
1.525175e-03 -2.234831e-02 -1.149543e-02
8.438133e-03 -5.598087e-03 2.157260e-02
1.544768e-05 1.489997e-03 -2.591771e-02
-2.147703e-02 7.608588e-03 -1.151868e-02
3.342752e-05 -8.631612e-03 2.221925e-02
7.951561e-03 -2.224819e-02 -9.666848e-03
3.099528e-03 -2.343010e-02 -9.683894e-03
-1.282645e-02 -1.979778e-02 -9.678353e-03
-1.360873e-02 -1.906167e-02 -9.760840e-03
-2.188608e-02 -8.830339e-03 -9.733505e-03
-2.112441e-02 -1.065399e-02 -9.696044e-03
4.108217e-03 -2.304473e-02 -9.679176e-03
-9.096527e-03 -2.174150e-02 -9.668362e-03
-2.803250e-04 1.351003e-03 -2.597285e-02
-1.198334e-04 1.052496e-02 -2.388991e-02
1.723758e-02 -1.483851e-02 -1.187546e-02
1.815646e-02 -1.360116e-02 -1.199736e-02
1.341478e-02 -1.839661e-02 -1.199330e-02
5.953991e-03 -9.165378e-03 2.124720e-02
-1.576180e-02 1.296062e-02 -1.581577e-02
1.792202e-02 -1.360467e-02 -1.203135e-02
2.434517e-02 -3.015754e-03 -5.814809e-03
-6.926379e-03 -5.693192e-03 2.196251e-02
-2.229320e-02 -4.478082e-03 8.863864e-03
-1.522185e-04 6.332182e-04 -2.596983e-02
-2.410988e-02 5.525412e-04 -8.288287e-03
5.230557e-03 1.372093e-03 -2.580519e-02
8.724537e-03 1.834008e-02 -1.545993e-02
2.464616e-03 1.726612e-02 -1.901242e-02
-1.650261e-02 -1.606989e-02 8.592608e-03
1.587762e-02 -1.799581e-02 5.925074e-03
-2.218363e-02 -9.324863e-03 -7.671631e-03
-1.401010e-02 1.673353e-02 1.124506e-02
2.010394e-02 1.318628e-02 5.877941e-03
-2.119384e-02 3.442096e-03 -1.410528e-02
-8.225699e-04 4.125137e-03 -2.558493e-02
-8.383753e-03 2.329237e-02 2.103605e-03
1.586529e-02 1.901216e-02 -4.763685e-03
-1.839795e-02 1.041985e-02 1.189395e-02
5.340168e-04 -9.103390e-03 2.224080e-02
-3.637728e-03 -1.026475e-02 2.153359e-02
4.851004e-03 -7.038282e-03 2.220376e-02
1.974692e-02 -1.338349e-02 -9.178961e-03
6.241928e-03 1.568659e-02 -1.962656e-02
8.578749e-03 1.451856e-02 -1.968999e-02
-1.360905e-03 8.564987e-03 2.228621e-02
-7.042046e-04 2.917355e-03 -2.609589e-02
-8.214315e-03 -1.916094e-03 2.226645e-02
-7.164095e-03 -4.438123e-03 2.225825e-02
-3.880073e-03 -7.471869e-03 2.220434e-02
2.909442e-03 -8.065891e-03 2.226576e-02
-8.489471e-03 -3.323620e-03 2.205244e-02
-4.600376e-03 -7.267652e-03 2.224934e-02
1.026037e-03 -8.529439e-03 2.227522e-02
-7.613052e-03 -3.811260e-03 2.240586e-02
1.715201e-03 -8.516787e-03 2.228052e-02
-3.380397e-03 -7.840669e-03 2.228722e-02
1.071209e-04 -2.114843e-04 2.397775e-02
-1.809940e-04 5.449766e-04 -2.614061e-02
-4.992927e-03 -6.881023e-03 2.243055e-02
1.717340e-04 -8.931349e-03 2.164908e-02
2.025433e-02 -7.803988e-05 1.353484e-02
-1.391540e-02 -1.516368e-03 -2.176180e-02
7.078281e-03 7.063336e-03 2.180218e-02
1.661865e-02 -1.851703e-02 -1.573817e-03
5.232282e-03 -2.427721e-02 -1.641394e-03
9.501896e-03 -2.295309e-02 -1.539031e-03
9.625966e-03 -2.291233e-02 -1.615526e-03
2.438392e-02 -3.606638e-03 -5.805865e-03
-1.225973e-04 6.147911e-04 -2.602453e-02
1.553513e-02 -1.936840e-02 -1.571018e-03
-2.432996e-02 4.106683e-03 -6.040535e-03
4.206905e-03 5.122303e-03 -2.551216e-02
-9.434956e-03 2.779165e-03 2.186318e-02
-1.390146e-04 1.197833e-03 -2.620043e-02
-1.813029e-03 2.047256e-02 1.317297e-02
1.047322e-02 1.770693e-02 1.315867e-02
1.160406e-02 1.632473e-02 1.361851e-02
8.686292e-03 1.859771e-02 1.320371e-02
1.790078e-02 9.187964e-03 1.350742e-02
-2.755199e-04 1.033845e-03 -2.634155e-02
-7.256195e-04 2.053894e-02 1.315820e-02
1.941732e-03 2.002931e-02 1.360385e-02
6.199543e-03 1.947110e-02 1.306096e-02
-4.314790e-03 2.009516e-02 1.318510e-02
-1.658590e-02 -1.472514e-02 9.987630e-03
1.570964e-02 -1.458279e-02 1.197159e-02
-1.712403e-02 1.373798e-02 1.093786e-02
2.126218e-03 3.079534e-03 -2.608491e-02
2.025740e-02 -5.138039e-04 1.323838e-02
-6.293095e-03 -2.139272e-02 -1.222835e-02
-1.664541e-03 3.895456e-03 -2.562711e-02
-2.498413e-03 8.295994e-03 2.228818e-02
3.102657e-03 8.601216e-03 2.200303e-02
5.850734e-03 6.270971e-03 2.236590e-02
7.536203e-03 5.205300e-03 2.209247e-02
6.534885e-03 6.470984e-03 2.204607e-02
7.341296e-03 4.635513e-03 2.214583e-02
7.812270e-03 3.643257e-03 2.228793e-02
6.454805e-03 5.772633e-03 2.235011e-02
6.985797e-03 5.000449e-03 2.228849e-02
6.506115e-03 5.647896e-03 2.226641e-02
-3.102101e-04 5.055513e-04 -2.599076e-02
5.815029e-03 6.404933e-03 2.226162e-02
4.006704e-03 7.585341e-03 2.215380e-02
-7.427647e-04 -2.285506e-02 8.880713e-03
-2.603132e-03 8.199316e-03 2.238696e-02
-2.335418e-02 3.524185e-03 7.176418e-03
-2.647241e-03 -2.425782e-02 -7.001442e-03
-1.851361e-02 -8.296728e-03 1.363247e-02
6.871782e-03 -2.392210e-02 -1.649177e-03
2.792468e-03 1.006821e-02 2.122433e-02
1.964279e-02 -6.818881e-03 -1.477942e-02
-3.416380e-04 1.102464e-03 -2.593343e-02
2.168610e-02 7.743852e-04 -1.353963e-02
-2.359888e-02 7.451891e-03 -4.949058e-03
-2.161191e-02 7.052196e-03 9.372999e-03
-7.298882e-04 8.285280e-03 2.210213e-02
-4.780072e-04 -6.069175e-04 -2.601421e-02
1.222207e-03 1.298018e-02 -2.245926e-02
2.202546e-02 -2.978140e-03 -1.306821e-02
-1.130372e-02 2.218424e-02 -4.254066e-03
3.501412e-03 7.638633e-03 2.220140e-02
-4.414177e-04 1.510400e-04 -2.620314e-02
3.972308e-04 -2.846611e-04 -2.622591e-02
1.755848e-02 -1.233834e-02 1.196130e-02
2.427103e-02 5.551981e-03 -3.797292e-03
-1.917127e-03 -1.006422e-02 -2.365594e-02
8.570803e-03 4.261883e-03 2.166369e-02
-2.305929e-02 -8.238058e-03 3.526830e-03
2.083803e-04 -2.313226e-02 8.304592e-03
3.392142e-03 2.605836e-03 -2.585001e-02
-2.012095e-02 -4.142500e-03 -1.561483e-02
2.422584e-02 1.955585e-03 -6.427724e-03
-1.783150e-02 1.308010e-02 1.042259e-02
3.776431e-04 -6.832203e-04 -2.624464e-02
8.460249e-03 -1.113923e-03 2.231601e-02
-2.349883e-03 -2.250765e-02 9.738808e-03
2.479511e-03 -9.105720e-03 2.190471e-02
-6.449559e-03 -6.845251e-03 2.192101e-02
-7.236366e-03 -6.041252e-03 2.188253e-02
-6.150135e-03 -7.143790e-03 2.188029e-02
-7.551064e-03 -5.622905e-03 2.189200e-02
-7.690217e-03 -5.480216e-03 2.205229e-02
-1.112531e-04 1.007260e-02 2.168884e-02
2.706852e-03 9.668926e-03 2.162296e-02
3.659558e-04 -5.132376e-04 -2.594283e-02
1.186869e-03 9.968465e-03 2.159294e-02
2.284335e-03 9.954612e-03 2.168090e-02
1.181621e-02 -2.114295e-02 -7.738136e-03
-5.830659e-03 -2.363486e-02 -7.319234e-03
-8.063806e-03 -2.263920e-03 -2.472732e-02
-9.338276e-03 1.642511e-03 -2.428869e-02
-1.330549e-03 1.939449e-03 -2.617078e-02
1.207976e-02 1.677526e-02 -1.519834e-02
1.001928e-02 1.789238e-02 -1.538259e-02
7.317643e-03 1.922451e-02 -1.512835e-02
6.568656e-04 -1.157678e-03 -2.635155e-02
-1.342421e-02 5.948424e-03 -2.120274e-02
8.243192e-03 -2.092168e-03 2.184005e-02
1.663240e-02 -1.940698e-03 -1.971664e-02
1.082130e-02 5.168599e-03 -2.334323e-02
-1.683655e-02 -1.556582e-02 8.922133e-03
1.681549e-02 -9.730660e-03 1.441119e-02
9.446805e-03 3.870594e-03 -2.403719e-02
-4.724137e-03 -2.387403e-02 -7.347736e-03
7.040178e-04 -2.422055e-02 -7.170503e-03
6.031245e-04 -9.687070e-03 2.200408e-02
9.625347e-06 1.651831e-04 2.403963e-02
-7.159480e-04 6.156664e-04 -2.616595e-02
1.122485e-04 -2.178846e-02 -1.315406e-02
3.625227e-03 2.106897e-02 -1.397076e-02
-9.711548e-03 2.099767e-02 8.850256e-03
-1.100265e-02 -3.086484e-03 2.095319e-02
8.726672e-03 -3.079208e-03 2.196474e-02
7.766329e-04 -1.914302e-03 -2.631561e-02
9.326349e-03 -1.065584e-03 2.147267e-02
-9.343248e-05 -3.387707e-04 -2.608101e-02
-3.431035e-04 5.715558e-06 -2.600590e-02
-4.846436e-04 -1.350916e-04 -2.616557e-02
1.061844e-05 5.396608e-05 -2.621560e-02
1.124811e-04 -1.331172e-03 -2.609868e-02
-2.179851e-05 -3.323523e-04 -2.601701e-02
1.965932e-04 -3.313989e-04 -2.606598e-02
-8.982417e-05 -2.388707e-04 -2.610759e-02
-5.967859e-05 -4.204778e-04 -2.605765e-02
-3.326377e-04 -2.208083e-04 -2.606055e-02
6.801264e-03 -8.129259e-03 2.129365e-02
9.082914e-03 5.644919e-03 2.131632e-02
-1.903347e-02 1.131061e-02 1.048712e-02
-2.464196e-02 -1.638521e-03 -5.849417e-03
-1.805661e-03 1.738063e-03 -2.589618e-02
-3.402198e-04 1.121150e-03 -2.618571e-02
-6.878747e-04 -2.071530e-02 1.258934e-02
-2.835355e-04 8.606199e-03 -2.470878e-02
8.017852e-03 2.944715e-03 2.235351e-02
3.968487e-04 8.196042e-03 2.220952e-02
-9.975373e-04 8.396508e-03 2.234094e-02
5.076037e-03 6.567900e-03 2.222011e-02
7.207178e-03 4.064425e-03 2.225399e-02
4.394138e-03 7.236001e-03 2.238152e-02
-1.440669e-03 8.267990e-03 2.244507e-02
-3.636739e-04 4.565736e-04 -2.603207e-02
3.358004e-03 7.594309e-03 2.244048e-02
-1.848603e-02 -1.345578e-02 8.848938e-03
-1.899838e-02 -1.265527e-02 8.746741e-03
-1.734416e-02 -1.487287e-02 8.839700e-03
-1.586625e-02 -1.645239e-02 8.859568e-03
-1.512022e-02 -1.711739e-02 8.844452e-03
6.274031e-03 -2.199084e-02 8.853510e-03
1.059673e-02 -5.828460e-04 2.156510e-02
1.038119e-02 -1.672187e-02 -1.655010e-02
7.906943e-03 2.631893e-03 2.182023e-02
-9.044774e-04 1.065685e-03 -2.596393e-02
1.745639e-02 -9.964295e-03 1.334132e-02
2.361568e-02 3.792638e-03 -8.032730e-03
2.216333e-03 7.551788e-03 -2.498013e-02
-4.998983e-03 8.210103e-03 -2.427708e-02
-2.062084e-02 -6.852263e-03 -1.360146e-02
1.316762e-02 -1.884522e-02 8.481195e-03
-2.735399e-03 4.271267e-03 -2.568329e-02
7.197200e-03 -4.196576e-03 2.222396e-02
3.841420e-03 8.115750e-03 2.198612e-02
-7.737439e-04 8.977906e-03 2.198400e-02
6.454938e-04 -5.488566e-04 -2.634537e-02
2.590030e-03 7.987110e-03 2.219424e-02
-2.729208e-04 8.361629e-03 2.230018e-02
4.245557e-03 7.266590e-03 2.226298e-02
7.469343e-04 8.474093e-03 2.222806e-02
8.233686e-03 4.207828e-03 2.201314e-02
5.239793e-03 7.359738e-03 2.204088e-02
-1.802753e-03 8.215837e-03 2.225509e-02
-8.516098e-04 2.286421e-02 8.868340e-03
-1.583317e-03 -1.870557e-03 -2.618058e-02
2.113783e-02 1.334919e-03 -1.447475e-02
-8.492317e-04 5.587908e-04 -2.622427e-02
-3.094668e-03 -2.079030e-02 1.203488e-02
1.776634e-02 4.754426e-03 -1.805077e-02
5.785282e-03 2.111845e-02 -1.332086e-02
-1.830270e-02 1.584152e-02 5.200164e-03
1.038315e-02 -2.205314e-02 4.216153e-03
1.371899e-02 6.780652e-03 -2.132364e-02
6.907251e-04 -4.524332e-05 -2.600103e-02
-2.138181e-02 7.171101e-03 9.922868e-03
-2.299650e-02 6.553283e-04 8.455874e-03
1.721262e-02 -3.061099e-03 -1.910181e-02
-9.906576e-04 5.586814e-04 -2.624223e-02
3.254480e-03 2.714590e-03 -2.580348e-02
8.987321e-03 2.076568e-02 9.696108e-03
1.227511e-02 1.966699e-02 8.234797e-03
-7.003193e-03 -2.199212e-02 -1.102544e-02
-1.350226e-02 -2.073021e-02 -1.319960e-03
-1.755387e-02 -1.093692e-02 1.280717e-02
-4.794439e-03 6.581410e-03 -2.485763e-02
-6.309594e-03 5.302644e-03 -2.487136e-02
5.587943e-03 2.287263e-02 6.690474e-03
-1.817599e-02 -8.066418e-03 1.401069e-02
1.030834e-03 -9.105174e-04 -2.626465e-02
-6.937961e-03 4.037817e-03 2.238081e-02
-8.573117e-03 -1.828842e-03 2.179657e-02
-2.177704e-02 1.123997e-02 3.826523e-03
8.442757e-03 2.387029e-03 2.233272e-02
-2.377662e-02 -4.218095e-03 5.213002e-03
-1.306010e-02 1.327948e-02 -1.790110e-02
-8.024781e-03 1.690964e-02 -1.783828e-02
1.822296e-02 -1.642043e-02 3.813751e-03
4.575752e-03 1.679699e-03 -2.565612e-02
1.987039e-02 -1.434488e-02 3.847039e-03
-1.181961e-03 6.421659e-04 -2.588907e-02
2.379991e-04 1.034094e-02 -2.412390e-02
7.194881e-03 6.700619e-03 2.169664e-02
2.001408e-03 8.167159e-03 2.238138e-02
-1.631295e-03 -8.148772e-03 2.217285e-02
7.823184e-03 -6.323939e-03 -2.396722e-02
2.686781e-03 2.101305e-02 1.202258e-02
5.815558e-03 2.025281e-02 1.222369e-02
-1.303521e-04 2.109353e-02 1.209231e-02
1.767599e-02 1.530358e-02 -9.749080e-03
-1.824061e-02 -1.622414e-02 3.513648e-03
6.821393e-06 1.442603e-04 2.384262e-02
-4.139625e-04 2.827260e-04 -2.631168e-02
-8.589908e-03 -2.076875e-02 -1.121439e-02
-1.228902e-02 -1.878341e-02 -1.122092e-02
-2.015377e-02 -1.011475e-02 -1.117389e-02
2.981297e-03 -2.232972e-02 -1.118908e-02
-1.170504e-02 1.489611e-02 -1.712328e-02
-1.430076e-02 1.191475e-02 -1.770141e-02
-5.142262e-03 1.045528e-02 -2.335778e-02
4.922914e-03 2.063299e-02 1.200945e-02
3.820460e-03 2.059113e-02 1.246218e-02
-1.897575e-02 -6.874348e-03 1.310135e-02
8.698472e-04 -2.065940e-04 -2.609562e-02
3.369635e-03 1.871275e-02 1.491227e-02
1.903802e-02 6.760550e-03 -1.538800e-02
1.712103e-02 -1.472887e-02 -1.183165e-02
-1.182768e-02 4.243418e-03 -2.275293e-02
-9.411365e-03 7.045882e-03 -2.319459e-02
5.749159e-03 -2.148518e-02 -1.190912e-02
1.174406e-02 2.124905e-02 -6.853960e-03
-1.765200e-02 1.000430e-02 -1.572622e-02
-8.258706e-03 -6.472364e-04 2.222777e-02
4.812621e-05 2.803259e-04 -2.621465e-02
-7.644186e-04 3.855443e-04 -2.635511e-02
-6.400376e-03 6.771713e-03 2.198440e-02
-7.670045e-03 -5.464991e-03 2.179279e-02
-1.611197e-03 -5.052961e-03 -2.567025e-02
8.337995e-03 2.246689e-02 -7.571658e-03
-1.308308e-02 2.081448e-02 -4.760436e-03
8.364762e-03 -2.317612e-02 -4.920991e-03
-1.995978e-02 -2.830751e-03 -1.610454e-02
-6.893109e-03 -6.614776e-03 2.167285e-02
-2.188466e-02 -7.738956e-03 -1.062175e-02
2.083764e-02 -7.453329e-03 1.055274e-02
9.039050e-04 -3.513949e-04 -2.623060e-02
-2.444614e-02 -1.305400e-03 -6.771757e-03
-1.756601e-02 1.420555e-02 9.752083e-03
-9.265271e-03 -5.736668e-03 2.149570e-02
-6.962073e-03 8.387826e-03 2.144719e-02
-2.493471e-02 1.231776e-03 -8.845457e-04
-3.527754e-03 7.599263e-03 2.227629e-02
9.962024e-03 -1.613316e-02 -1.761092e-02
-3.188219e-03 1.846926e-02 -1.786561e-02
-6.168314e-03 1.793662e-02 -1.783799e-02
1.014191e-02 -1.589033e-02 -1.784048e-02
-9.786688e-04 5.250943e-04 -2.627941e-02
-9.298236e-03 1.574121e-03 2.201784e-02
-6.550438e-03 -2.141964e-03 -2.533345e-02
9.035993e-03 1.414650e-03 2.194244e-02
-1.143419e-02 -2.104234e-02 -7.767525e-03
-6.783123e-03 4.890106e-03 2.231101e-02
-7.593656e-03 6.294511e-03 2.172272e-02
-1.895492e-02 9.467166e-03 1.173873e-02
-9.891003e-03 2.125565e-04 2.171643e-02
1.066981e-02 2.263115e-02 -4.206989e-04
8.094650e-03 -2.603553e-03 2.231404e-02
-1.374497e-02 5.367849e-03 -2.158493e-02
2.068839e-02 3.624025e-03 1.215211e-02
2.185304e-02 7.375141e-04 1.083960e-02
-9.688613e-03 -1.822136e-03 2.165723e-02
1.992438e-02 4.877452e-03 -1.560649e-02
-7.250023e-03 -2.078527e-02 1.097819e-02
6.330571e-04 -7.922936e-03 2.237120e-02
-7.384421e-03 5.752952e-03 2.198011e-02
2.993370e-03 2.307869e-02 -1.014037e-02
-4.825031e-03 -1.077118e-02 -2.296230e-02
-8.066328e-03 1.359427e-03 2.234126e-02
1.371662e-03 -4.870255e-04 -2.611107e-02
6.141881e-03 -2.365426e-02 -6.410729e-03
-8.914472e-03 -2.332725e-02 -5.356883e-03
-1.901881e-02 -1.542370e-02 -6.435845e-03
-2.241760e-02 -1.044777e-02 -5.427937e-03
-1.574185e-02 -1.869816e-02 -6.384690e-03
-1.820779e-03 4.583186e-03 -2.584274e-02
1.414059e-02 -1.986287e-02 4.080336e-03
-1.006596e-02 3.643609e-03 2.140767e-02
-2.152162e-02 -6.445063e-03 -1.166851e-02
2.405754e-02 -8.503531e-04 4.486564e-03
-1.746128e-02 1.412228e-03 -1.895630e-02
-1.832333e-02 9.075477e-03 1.288100e-02
5.801197e-03 -2.421395e-03 -2.550492e-02
6.924115e-03 1.912880e-02 1.336575e-02
1.368852e-02 1.492506e-02 1.362910e-02
1.435118e-02 1.430058e-02 1.357514e-02
1.663925e-02 1.156976e-02 1.360699e-02
1.713517e-02 1.053752e-02 1.351037e-02
1.515244e-02 1.344931e-02 1.359709e-02
1.845976e-02 8.227751e-03 1.356400e-02
9.473716e-03 1.777190e-02 1.355316e-02
-1.661666e-02 7.300122e-04 1.756992e-02
-5.940974e-03 1.938756e-02 1.361442e-02
7.684889e-05 2.242167e-02 -1.223622e-02
1.827381e-02 7.597681e-03 1.377605e-02
1.848703e-02 1.421976e-02 7.910150e-03
2.264044e-02 -5.891586e-03 -9.961939e-03
1.204727e-02 -1.787015e-02 1.156848e-02
2.434596e-02 -4.995565e-03 -3.233016e-03
-8.993550e-03 -1.881682e-02 -1.474318e-02
-1.270460e-02 -1.629610e-02 -1.515166e-02
-1.811135e-02 -1.035864e-02 -1.483731e-02
-2.123464e-02 6.745137e-03 1.031214e-02
1.525778e-03 -2.085384e-02 -1.484748e-02
-1.048010e-02 -1.800021e-02 -1.492407e-02
4.437119e-03 -2.023515e-02 -1.511386e-02
1.674522e-02 -1.624243e-02 7.965424e-03
2.313451e-02 2.756455e-03 8.008583e-03
-3.422493e-03 2.335761e-02 -9.828160e-03
8.522441e-04 7.893885e-04 -2.618961e-02
2.014892e-02 -1.345468e-02 4.506787e-03
-1.163472e-02 -2.175723e-02 -5.375614e-03
-2.290112e-02 -9.421103e-03 -1.799179e-04
-1.902547e-04 -3.700807e-05 2.412102e-02
-2.352254e-02 5.763106e-03 5.874514e-03
-8.165798e-03 8.540298e-04 2.241689e-02
4.639454e-03 -8.797850e-03 2.120072e-02
-8.181550e-03 1.116764e-03 2.229857e-02
1.224119e-02 2.361505e-04 -2.308790e-02
-2.505318e-03 2.333147e-02 -9.888975e-03
1.223417e-02 -1.632668e-02 1.316471e-02
1.798130e-02 9.911733e-03 1.336591e-02
2.050636e-02 -1.159275e-02 -9.330877e-03
2.239205e-02 5.906567e-03 8.648243e-03
-2.291810e-02 2.056646e-03 8.823466e-03
2.147935e-02 -2.736887e-03 -1.388922e-02
-4.368974e-03 -1.439990e-02 -2.091282e-02
1.956699e-02 -1.170720e-02 -1.066524e-02
2.036935e-02 2.050186e-03 1.329010e-02
-1.216785e-02 2.112821e-02 -7.102932e-03
3.747100e-04 4.606625e-04 -2.615723e-02
1.442708e-02 -1.460648e-02 1.316685e-02
-1.209404e-02 6.928989e-03 -2.200252e-02
-6.264846e-03 -6.594980e-04 -2.575792e-02
1.101866e-02 -1.877323e-02 1.028786e-02
-1.445277e-02 -1.442394e-02 1.302417e-02
-7.312147e-04 6.477671e-05 -2.603641e-02
-6.668057e-03 2.093779e-02 1.016207e-02
-9.721277e-03 1.199761e-02 -2.107796e-02
-2.273142e-02 -4.226981e-03 8.016812e-03
-1.323159e-02 -7.945843e-03 -2.092044e-02
1.647237e-02 1.437675e-02 1.079447e-02
1.778356e-02 1.272435e-02 1.077804e-02
1.461724e-02 1.626313e-02 1.080241e-02
-6.172801e-03 2.097880e-02 1.079098e-02
1.810409e-02 9.111651e-03 -1.633790e-02
-1.179103e-03 -2.127303e-02 -1.412708e-02
-2.892041e-03 6.516474e-04 -2.614690e-02
1.041834e-02 -2.358450e-03 2.135699e-02
6.408371e-03 -1.498018e-02 -2.004990e-02
8.669457e-03 3.365763e-04 2.227838e-02
2.365063e-04 6.457684e-04 -2.604837e-02
-1.166204e-02 1.575649e-02 -1.618527e-02
-2.098224e-02 -9.072555e-03 8.739328e-03
1.651763e-02 1.220977e-02 1.315167e-02
-7.233750e-03 8.093935e-03 2.129844e-02
-2.148849e-02 -6.287047e-03 9.629057e-03
-1.468638e-02 1.296444e-02 -1.638321e-02
3.115919e-04 8.810720e-05 -2.626084e-02