# vtk DataFile Version 2.0
Electric current density generated by TTH
ASCII
DATASET UNSTRUCTURED_GRID
POINTS 1790 double
2.253166e-05 -5.518665e-21 -4.169953e-22
2.076853e-05 8.737496e-06 -4.169953e-22
-7.340827e-06 -2.130230e-05 -4.169953e-22
1.754773e-05 9.218099e-06 1.372377e-06
9.220568e-06 -1.735857e-05 -1.233330e-06
2.014915e-05 4.856138e-06 -1.699390e-06
5.586163e-06 1.862996e-05 9.974744e-07
5.586163e-06 -1.862996e-05 9.974744e-07
-2.123899e-05 -3.544590e-08 1.652439e-06
-1.646309e-05 1.501626e-05 8.863181e-07
-1.881756e-06 -2.078421e-05 1.702041e-06
-4.187233e-06 1.881043e-05 -6.857218e-07
-1.924077e-05 3.833393e-06 -1.197464e-06
-6.391370e-06 -2.160616e-05 -4.169953e-22
-2.443817e-06 -2.213173e-05 -9.128505e-07
1.040912e-05 -1.708391e-05 1.489878e-06
1.634177e-05 -1.135864e-05 1.427629e-06
-1.021595e-05 -1.677731e-05 1.221219e-06
1.352326e-05 -1.626729e-05 1.671179e-06
-1.037733e-07 1.956431e-05 -1.139930e-06
2.090118e-07 2.228752e-05 -8.768307e-07
5.468643e-06 2.035723e-05 1.684084e-06
5.468502e-06 -2.035723e-05 1.684089e-06
1.220255e-05 -1.726159e-05 1.674046e-06
-5.429402e-06 -2.186772e-05 -4.169953e-22
4.951222e-06 2.175497e-05 -8.377401e-07
4.951222e-06 -2.175497e-05 -8.377401e-07
-2.115825e-05 -2.695050e-06 1.627418e-06
-1.818221e-05 1.085770e-05 1.666513e-06
-2.019443e-05 -5.032135e-06 -1.702426e-06
-1.962445e-05 3.856618e-07 1.206798e-06
1.939788e-05 -8.149942e-06 -1.689353e-06
-4.185418e-06 2.188748e-05 8.841723e-07
-1.642495e-05 1.335186e-05 1.668609e-06
9.568180e-06 1.779404e-05 -1.583355e-06
-4.456805e-06 -2.208648e-05 -4.169953e-22
-2.139958e-05 1.862976e-06 1.572978e-06
-1.566451e-05 -1.434776e-05 1.651622e-06
-2.037435e-05 -9.130888e-06 8.096322e-07
-2.122098e-05 6.802532e-06 8.832518e-07
1.812402e-05 8.237782e-06 -1.431998e-06
-6.805364e-06 -1.992462e-05 -1.687496e-06
1.036461e-05 -1.975667e-05 8.394127e-07
-4.720707e-07 -2.144988e-05 -1.583274e-06
-1.548360e-05 -1.395455e-05 -1.702448e-06
1.543253e-05 -1.339905e-05 1.656888e-06
-3.475484e-06 -2.226200e-05 -4.169953e-22
-4.160247e-06 1.891045e-05 8.648556e-07
1.557134e-05 1.386091e-05 -1.702420e-06
-2.113518e-05 -9.765091e-07 1.670503e-06
1.999605e-05 -3.210708e-06 1.601765e-06
2.040840e-05 -8.990491e-06 8.557891e-07
-1.932710e-05 -1.108128e-05 -8.932578e-07
-2.235220e-05 -5.108804e-07 -7.490185e-07
-1.893987e-05 3.764349e-06 7.692530e-07
-1.930856e-05 4.367481e-06 1.353469e-06
1.206290e-05 -1.750874e-05 -1.646588e-06
-2.487360e-06 -2.239394e-05 -4.169953e-22
-2.028431e-06 -2.096869e-05 -1.685876e-06
2.017834e-05 -9.429562e-06 -9.022928e-07
-1.511121e-05 -1.478151e-05 -1.674147e-06
8.734261e-06 2.053151e-05 8.362831e-07
8.734261e-06 -2.053151e-05 8.362831e-07
1.483112e-05 1.552841e-05 1.576033e-06
1.453391e-05 1.348050e-05 -1.373527e-06
-1.921193e-06 2.083355e-05 -1.699982e-06
-1.678636e-05 -1.308722e-05 -1.640310e-06
-1.621740e-05 1.040407e-05 -6.788155e-07
-1.494366e-06 -2.248205e-05 -4.169953e-22
-1.443168e-05 1.703871e-05 8.053126e-07
1.976289e-05 8.294598e-06 1.591836e-06
1.860432e-05 4.947556e-06 6.386204e-07
1.047092e-05 1.794740e-05 -1.701761e-06
2.013077e-05 -8.436029e-07 1.560510e-06
2.013077e-05 8.435936e-07 1.560509e-06
-1.826943e-05 -1.012318e-05 -1.701542e-06
1.102450e-06 -2.074160e-05 1.701515e-06
2.059173e-05 5.966504e-06 -1.589645e-06
2.146431e-05 5.983304e-06 8.864945e-07
-4.984473e-07 -2.252614e-05 -4.169953e-22
-1.917242e-05 -8.490339e-06 1.696821e-06
-9.525375e-06 -1.913677e-05 1.612176e-06
6.470911e-06 2.132491e-05 8.825092e-07
6.470911e-06 -2.132491e-05 8.825092e-07
9.021405e-06 -1.800601e-05 1.556609e-06
-1.075994e-05 1.633177e-05 -1.132226e-06
-9.633364e-06 -1.785234e-05 -1.613433e-06
-6.812838e-06 -1.880084e-05 1.485375e-06
2.000242e-05 3.191815e-06 1.602953e-06
1.601827e-05 1.093412e-05 -9.164314e-07
4.984473e-07 -2.252614e-05 -4.169953e-22
9.013891e-06 1.800806e-05 1.555929e-06
-1.738524e-05 1.074318e-05 -1.656685e-06
1.507735e-05 1.176952e-05 -4.221165e-08
-7.596186e-06 -1.924824e-05 -1.697054e-06
-1.381681e-05 -1.322810e-05 -7.217706e-08
-1.755112e-05 -1.202369e-05 1.643189e-06
1.975838e-05 3.063093e-06 -1.483833e-06
-7.743494e-06 -2.092706e-05 -8.333699e-07
-2.647604e-06 2.071610e-05 -1.701609e-06
1.882672e-05 1.196554e-05 -8.445980e-07
1.494366e-06 -2.248205e-05 -4.169953e-22
2.079984e-05 -8.082729e-06 -8.309506e-07
-1.301701e-05 1.726042e-05 1.508401e-06
-2.190258e-05 4.279329e-06 8.280740e-07
1.301600e-05 1.545528e-05 1.584367e-06
1.583408e-05 -1.088886e-05 -5.467073e-07
9.552665e-06 2.017724e-05 -8.142894e-07
-1.960182e-05 -7.798266e-06 -1.681457e-06
2.002380e-05 -9.838158e-06 8.397837e-07
3.693466e-06 -1.893374e-05 7.290328e-07
3.734393e-06 1.892652e-05 7.307198e-07
2.036171e-05 9.647605e-06 -4.169953e-22
2.487360e-06 -2.239394e-05 -4.169953e-22
1.768338e-05 1.100626e-05 1.702513e-06
-1.485620e-05 1.348335e-05 1.520175e-06
3.032710e-06 1.988820e-05 -1.546919e-06
-1.677315e-05 -1.467825e-05 -8.763706e-07
-1.779432e-05 -1.169665e-05 -1.637722e-06
-1.283707e-05 -1.826477e-05 8.135427e-07
-2.051929e-05 3.303769e-06 1.701902e-06
1.561736e-05 -1.449639e-05 -1.633671e-06
1.775231e-05 -9.004949e-06 -1.430259e-06
-3.436957e-06 2.038957e-05 1.695720e-06
3.475484e-06 -2.226200e-05 -4.169953e-22
-5.960114e-06 2.045954e-05 -1.633198e-06
1.612575e-05 -1.326757e-05 -1.701684e-06
1.296285e-05 1.684181e-05 -1.648957e-06
-1.932159e-05 -1.106796e-06 -8.487144e-07
8.736518e-06 -2.060262e-05 -7.058499e-07
8.688353e-06 2.058422e-05 -7.794876e-07
2.641911e-06 -2.035124e-05 1.674578e-06
-1.729724e-05 -1.415104e-05 7.685818e-07
2.557035e-06 2.011596e-05 1.610775e-06
-1.215389e-05 1.875540e-05 7.670084e-07
4.456805e-06 -2.208648e-05 -4.169953e-22
1.832929e-05 -7.716175e-06 1.418223e-06
2.431207e-06 -1.900686e-05 -3.438505e-07
-1.772760e-05 -7.805233e-06 8.768596e-07
-1.453890e-05 -1.698478e-05 7.499135e-07
1.151192e-07 -2.231040e-05 8.387790e-07
1.895962e-05 1.007438e-05 1.577298e-06
-1.376493e-05 -1.760792e-05 -7.656642e-07
-1.225542e-05 1.565330e-05 1.413503e-06
3.987963e-06 -2.198023e-05 -7.865552e-07
-1.509823e-05 -1.302855e-05 -1.453358e-06
5.429402e-06 -2.186772e-05 -4.169953e-22
1.972936e-05 5.673802e-06 1.675846e-06
-2.472038e-07 2.160567e-05 1.514383e-06
-1.790190e-05 7.004017e-06 5.654478e-07
1.646369e-05 -9.958440e-06 -6.139728e-07
-1.240002e-05 -1.726518e-05 -1.647953e-06
-4.728623e-06 -2.181130e-05 -8.257661e-07
1.544100e-06 -1.936887e-05 9.704796e-07
1.919092e-05 3.719042e-06 -1.121205e-06
1.295277e-05 1.820805e-05 7.747121e-07
1.047653e-05 1.969799e-05 8.387259e-07
6.391370e-06 -2.160616e-05 -4.169953e-22
-9.754136e-06 1.664520e-05 -7.332662e-07
-2.078679e-05 8.208803e-06 -7.673095e-07
-9.179170e-06 1.815454e-05 1.631678e-06
-1.678903e-05 9.187001e-06 1.985537e-07
7.556245e-06 -1.987578e-05 -1.646130e-06
7.555484e-06 1.987555e-05 -1.646257e-06
2.170414e-05 -5.377365e-06 -7.442624e-07
1.119259e-05 -1.717726e-05 -1.670788e-06
-1.037997e-05 -1.747591e-05 1.626504e-06
-1.587099e-05 1.185620e-05 -1.364186e-06
7.340827e-06 -2.130230e-05 -4.169953e-22
1.466372e-06 1.937920e-05 9.766277e-07
-1.049509e-05 1.612075e-05 6.004836e-07
1.619730e-05 1.160998e-05 -1.444764e-06
6.210610e-06 1.812848e-05 -3.491073e-07
6.411214e-06 -1.806397e-05 -3.728394e-07
1.456427e-05 -1.352272e-05 -1.409447e-06
2.136150e-05 -2.543950e-06 -1.559376e-06
1.734733e-05 1.173716e-05 -1.698570e-06
1.883066e-05 -1.194842e-05 -8.547598e-07
-1.320314e-06 -2.146384e-05 1.562870e-06
8.275914e-06 -2.095674e-05 -4.169953e-22
-1.548271e-05 1.149508e-05 7.136908e-07
-9.757363e-06 -1.690738e-05 -1.089512e-06
1.930983e-06 1.997129e-05 -1.521104e-06
-1.588106e-06 2.010657e-05 1.569397e-06
-1.792632e-05 9.292792e-06 -1.578715e-06
1.442126e-05 1.704671e-05 -8.064747e-07
-1.797660e-06 2.224585e-05 8.250890e-07
-1.970128e-05 -9.423429e-07 1.294897e-06
-1.998099e-05 1.003663e-05 -7.448127e-07
-1.966956e-05 -3.547643e-06 -1.479602e-06
9.194801e-06 -2.057015e-05 -4.169953e-22
-1.850101e-05 5.464881e-06 7.303545e-07
-5.737227e-06 -1.921603e-05 -1.515928e-06
1.899900e-05 -9.779098e-06 1.614977e-06
2.171018e-05 5.390286e-06 -7.255201e-07
1.971088e-05 -5.726589e-06 1.675288e-06
-9.070825e-06 1.749505e-05 -1.280165e-06
1.812223e-05 -8.194769e-06 -1.419342e-06
-1.493863e-05 1.515893e-05 1.640971e-06
1.971576e-05 -8.313159e-06 1.605117e-06
-1.054745e-05 -1.651076e-05 -1.169829e-06
1.009569e-05 -2.014330e-05 -4.169953e-22
-1.281402e-05 1.821587e-05 -9.046205e-07
-1.157115e-05 1.909300e-05 -8.118180e-07
-2.594288e-06 1.956596e-05 1.306218e-06
-1.730927e-05 -9.974686e-06 -1.474261e-06
1.825793e-05 -1.099731e-05 -1.631970e-06
1.569581e-05 1.094394e-05 -1.632659e-07
1.738000e-05 -1.252570e-05 -1.595474e-06
-1.976737e-05 -1.031461e-05 -8.631362e-07
-8.577910e-06 -1.807690e-05 -1.491876e-06
-4.840384e-06 -1.875491e-05 8.762872e-07
1.097681e-05 -1.967702e-05 -4.169953e-22
-1.347722e-05 1.396978e-05 9.421503e-07
-5.356135e-06 -2.082942e-05 -1.561732e-06
-1.885222e-05 -4.520626e-06 -9.043018e-07
-2.696377e-06 -1.922701e-05 -9.482490e-07
5.939348e-06 1.981413e-05 -1.696413e-06
5.939348e-06 -1.981413e-05 -1.696413e-06
-1.913457e-05 2.079730e-07 1.754536e-07
2.810697e-06 -1.989709e-05 -1.535915e-06
1.119359e-05 1.932580e-05 -7.972581e-07
1.493445e-06 1.937172e-05 -9.688660e-07
1.991504e-05 1.053883e-05 -4.169953e-22
1.183645e-05 -1.917222e-05 -4.169953e-22
-5.055565e-06 -1.857510e-05 -6.382366e-07
1.166459e-05 -1.899986e-05 -8.662993e-07
2.034815e-05 9.193586e-06 -8.062180e-07
1.120914e-05 1.851891e-05 1.493177e-06
-1.590672e-06 1.940868e-05 -1.030277e-06
2.056476e-05 -6.303510e-06 -1.560812e-06
1.902939e-05 -1.174827e-05 7.371462e-07
-7.322046e-06 -1.772235e-05 4.043547e-07
-8.780095e-06 2.051228e-05 8.357493e-07
1.911367e-05 7.041862e-07 0.000000e+00
1.267292e-05 -1.862989e-05 -4.169953e-22
1.910911e-05 -8.200788e-07 -1.544794e-08
-2.012993e-05 -4.804411e-06 1.697245e-06
-1.539618e-05 -1.169969e-05 8.200498e-07
-2.076855e-05 5.362327e-06 1.585412e-06
-2.917232e-06 2.114423e-05 1.622633e-06
1.306167e-05 -1.813192e-05 7.718024e-07
1.854983e-05 -1.053805e-05 1.625885e-06
[...]
POINT_DATA 1790
VECTORS 10.000GHz_fone_imag double
-1.762129e-04 3.613000e-06 1.941317e-02
-1.309661e-04 2.548517e-04 1.928595e-02
-1.167982e-03 5.709654e-05 1.866066e-02
-1.928259e-02 -1.188170e-02 -1.959209e-02
8.084756e-03 -1.883775e-02 -2.273947e-02
2.496877e-02 5.246167e-03 -2.537521e-03
-5.433868e-03 -1.735356e-02 -2.550700e-02
-5.124418e-03 1.699881e-02 -2.543626e-02
2.321424e-02 -1.114924e-03 3.721716e-03
7.786180e-03 -7.200287e-03 1.772122e-02
2.415058e-03 2.660632e-02 -1.203804e-03
-2.324345e-03 1.376799e-02 -3.051024e-02
-2.266578e-02 4.408456e-03 -2.274990e-02
-3.363603e-04 -2.755500e-04 1.935123e-02
-1.866553e-03 -1.070136e-02 1.650210e-02
-1.398364e-02 2.131144e-02 -1.498309e-02
-2.052349e-02 1.324218e-02 -1.717518e-02
1.218722e-02 1.908492e-02 -2.182692e-02
-1.610294e-02 1.822950e-02 2.946905e-03
-2.494909e-05 1.977216e-02 -2.477881e-02
-1.221776e-04 9.242005e-03 1.577596e-02
-5.462245e-03 -2.176003e-02 1.825499e-03
-6.180665e-03 2.475223e-02 2.282391e-03
-1.376535e-02 1.849905e-02 2.285952e-03
-4.131486e-04 -1.042077e-03 1.825942e-02
1.492417e-03 1.092657e-02 1.614773e-02
2.248842e-03 -1.084149e-02 1.820938e-02
2.094832e-02 2.307406e-03 5.124690e-03
1.960554e-02 -1.131207e-02 4.928987e-03
-2.531630e-02 -6.902853e-03 -1.649109e-03
2.134476e-02 5.973985e-04 -2.314635e-02
2.427017e-02 -1.001684e-02 1.680788e-03
1.232178e-03 -9.479867e-03 1.628617e-02
1.904928e-02 -1.502736e-02 3.315959e-03
1.249206e-02 2.289274e-02 -1.156496e-02
8.469606e-04 -9.918366e-04 1.809662e-02
2.019469e-02 -1.021163e-03 7.526146e-03
1.708774e-02 1.665613e-02 4.733427e-03
6.977147e-03 4.099005e-03 1.647309e-02
1.059106e-02 -3.036787e-03 1.820704e-02
2.314113e-02 1.037621e-02 -1.663324e-02
-7.705747e-03 -2.489283e-02 2.202346e-03
-3.892026e-03 1.007225e-02 1.665569e-02
-1.164160e-03 -2.034838e-02 7.837184e-03
-1.988768e-02 -1.652032e-02 -3.172592e-04
-1.986068e-02 1.813446e-02 -7.107520e-03
-7.968916e-04 -4.067450e-04 1.818620e-02
2.767314e-03 -1.578807e-02 -2.797784e-02
1.837524e-02 1.575058e-02 -1.506725e-03
2.323563e-02 2.051056e-03 3.670247e-03
-2.552387e-02 3.075474e-03 -1.037851e-02
-9.934070e-03 4.507651e-03 1.724618e-02
-8.342744e-03 -4.868719e-03 1.532150e-02
-9.853372e-03 1.485639e-04 1.758561e-02
1.464124e-02 -3.120078e-03 -2.735375e-02
2.125346e-02 -5.553457e-03 -1.932132e-02
1.300403e-02 -1.895698e-02 6.057460e-03
7.953658e-04 3.404354e-05 1.870866e-02
-9.410982e-04 -2.349918e-02 2.990968e-03
8.629239e-03 -3.536378e-03 1.592745e-02
-1.817554e-02 -1.722035e-02 3.375995e-03
-4.146021e-03 -9.740003e-03 1.587656e-02
-4.933016e-03 8.450051e-03 1.682754e-02
-1.491822e-02 -1.555693e-02 8.710964e-03
1.797982e-02 1.540733e-02 -1.795116e-02
-2.360840e-03 2.578953e-02 8.480659e-04
-1.781846e-02 -1.451394e-02 4.846586e-03
-1.041055e-02 6.095420e-03 -3.191672e-02
1.107172e-04 7.502036e-04 1.943534e-02
6.670681e-03 -7.893508e-03 1.771337e-02
-1.980153e-02 -9.068425e-03 7.610345e-03
-1.064864e-02 -2.502995e-03 -3.066110e-02
1.366717e-02 2.250462e-02 -7.375665e-04
-2.513821e-02 2.973374e-04 -1.265969e-02
-2.608744e-02 -7.438278e-04 -1.237876e-02
-2.277677e-02 -1.255693e-02 -3.265270e-04
-7.486460e-04 2.613336e-02 -2.639976e-03
2.052203e-02 6.475360e-03 7.016125e-03
-1.064095e-02 -3.219024e-03 1.694299e-02
-3.190622e-04 -1.753070e-04 1.909556e-02
2.382961e-02 1.004605e-02 1.009982e-03
9.925469e-03 2.071204e-02 7.469241e-03
-3.431032e-03 -1.080112e-02 1.688040e-02
-2.540087e-03 1.045083e-02 1.684723e-02
-1.063336e-02 2.142021e-02 -1.209202e-02
-1.036220e-02 1.600106e-02 -2.597708e-02
-1.202960e-02 -2.372334e-02 -9.484008e-03
7.584742e-03 2.265301e-02 -1.309280e-02
-2.526675e-02 -4.813461e-03 -9.700878e-03
1.447042e-02 9.771401e-03 -2.833331e-02
4.099981e-04 5.248160e-04 1.885977e-02
-1.173100e-02 -2.283057e-02 -1.367335e-02
-2.224134e-02 1.410420e-02 -6.487292e-03
9.171655e-04 1.650894e-04 -3.366496e-02
-1.025779e-02 -2.569378e-02 -4.469373e-03
-1.520759e-03 -9.892566e-04 -3.469340e-02
1.924004e-02 1.391593e-02 4.773824e-03
2.432598e-02 3.816901e-03 -1.358968e-02
-3.217514e-03 -9.034224e-03 1.718224e-02
-2.199018e-03 2.482192e-02 2.277984e-04
7.899799e-03 5.129600e-03 1.617920e-02
-4.738666e-04 4.429744e-04 1.816877e-02
9.085826e-03 -3.150060e-03 1.647170e-02
1.149340e-02 -1.648006e-02 8.505969e-03
9.514073e-03 -1.943621e-03 1.513065e-02
-1.701764e-02 -2.047986e-02 -1.093562e-02
8.890643e-03 -5.770614e-03 -3.268399e-02
3.990812e-03 9.018609e-03 1.818289e-02
-2.309489e-02 -8.784982e-03 1.673159e-03
-8.890103e-03 4.818270e-03 1.711672e-02
-3.663755e-03 1.317979e-02 -3.074642e-02
-2.620028e-03 -1.408577e-02 -3.044821e-02
-9.024414e-04 -1.824803e-05 1.964635e-02
4.927579e-04 1.618721e-04 1.921982e-02
-2.067272e-02 -1.377645e-02 -3.464868e-03
1.935008e-02 -1.746050e-02 -1.305241e-02
4.138591e-03 2.571131e-02 -1.427904e-02
-7.390106e-03 -6.923680e-03 1.503547e-02
-1.860035e-02 -1.260960e-02 5.090488e-03
6.026101e-03 8.107634e-03 1.757683e-02
2.538584e-02 -4.388560e-03 -1.824855e-03
1.702370e-02 -1.550683e-02 5.837046e-03
2.096867e-02 -1.254139e-02 -1.641917e-02
4.642798e-03 -2.580701e-02 -4.502118e-03
-1.326355e-05 2.753576e-04 1.981223e-02
-5.376744e-03 2.124024e-02 6.805554e-03
1.932663e-02 -1.449752e-02 -2.916013e-04
1.344106e-02 1.734314e-02 4.191801e-03
-1.459246e-02 -6.033340e-04 -2.905063e-02
3.927716e-03 -7.578606e-03 1.790072e-02
4.241187e-03 7.765044e-03 1.775786e-02
-4.222804e-03 2.522638e-02 -3.683419e-03
7.348115e-03 5.868873e-03 1.711141e-02
-2.337416e-03 -2.643237e-02 -7.703054e-03
3.888994e-03 -6.545238e-03 1.648280e-02
3.518981e-04 4.850313e-04 1.913861e-02
-2.252950e-02 9.818107e-03 -1.653077e-02
4.326926e-04 -7.534817e-03 -3.379768e-02
1.259759e-02 6.490087e-03 -2.678744e-02
5.663513e-03 5.286136e-03 1.642822e-02
-3.205220e-04 9.342007e-03 1.614516e-02
-1.972376e-02 -9.019784e-03 7.852260e-03
-4.784145e-03 -7.250430e-03 1.764388e-02
1.562000e-02 -2.000978e-02 -1.777721e-02
1.714658e-03 -9.659736e-03 1.753952e-02
-1.897115e-02 -1.631214e-02 -1.703139e-02
-3.624818e-04 3.939374e-04 1.953596e-02
-2.509129e-02 -7.217219e-03 -6.595778e-03
2.598185e-04 -2.093700e-02 9.795546e-03
9.870139e-03 -3.424851e-03 -3.328768e-02
9.425067e-03 -5.721268e-03 -3.163503e-02
-1.412290e-02 -1.959536e-02 4.686714e-03
-1.885182e-03 -8.665235e-03 1.627602e-02
-2.052063e-03 1.944531e-02 -2.707515e-02
2.047575e-02 3.853586e-03 -2.388426e-02
-5.458399e-03 -7.213920e-03 1.593226e-02
-4.436395e-03 -9.831864e-03 1.639225e-02
-1.200910e-03 1.096832e-03 1.848290e-02
-5.409463e-03 9.854063e-03 -2.726342e-02
-8.646312e-03 4.321825e-03 1.601009e-02
1.160861e-02 -2.095899e-02 -7.911940e-03
2.785908e-03 -7.491063e-04 -3.104777e-02
7.274561e-03 -2.177560e-02 5.515864e-03
8.120386e-03 2.108326e-02 3.440671e-03
9.196087e-03 -2.380206e-03 1.587429e-02
1.549705e-02 -2.330399e-02 -6.049782e-03
1.371379e-02 2.044573e-02 -9.091218e-03
-1.773680e-02 1.531703e-02 -1.820921e-02
4.329352e-05 -4.509096e-04 2.016355e-02
-1.735727e-03 -1.824703e-02 -2.743851e-02
6.117065e-03 -9.328200e-03 -3.102812e-02
2.112062e-02 1.433079e-02 -1.586461e-02
1.742760e-03 6.185145e-03 -3.386433e-02
2.548998e-03 -5.983867e-03 -3.338049e-02
1.930501e-02 -1.679401e-02 -1.795007e-02
2.093524e-02 -3.043584e-03 7.623165e-03
1.940226e-02 1.316560e-02 -6.738284e-05
8.891424e-03 -4.897302e-03 1.692916e-02
1.359340e-03 2.195783e-02 9.242004e-03
5.355402e-04 5.923745e-04 1.922947e-02
1.032073e-02 -8.938933e-03 -3.002770e-02
-1.087660e-02 -1.615417e-02 -2.383868e-02
2.650241e-03 2.600911e-02 -1.492897e-02
2.404886e-03 -2.365736e-02 -1.063634e-02
-2.303515e-02 1.240779e-02 -1.084315e-02
7.412588e-03 7.668986e-03 1.706302e-02
8.884627e-04 -9.647008e-03 1.760860e-02
2.103997e-02 4.721153e-04 -2.106657e-02
-7.561319e-03 3.759837e-03 1.657891e-02
-2.219951e-02 -4.209530e-03 -1.389158e-02
-3.367164e-04 6.849728e-04 1.760250e-02
1.320968e-02 -3.941562e-03 -3.108186e-02
-6.866990e-03 -2.421814e-02 -1.585465e-02
-2.030252e-02 1.076987e-02 6.094539e-03
9.110973e-03 2.359470e-03 1.767351e-02
-2.513955e-02 7.556371e-03 -4.783817e-03
-8.721347e-03 1.743275e-02 -2.169541e-02
2.066613e-02 -8.437260e-03 -1.748940e-02
1.455273e-02 -1.512589e-02 5.918795e-03
-2.110618e-02 8.572583e-03 6.585803e-03
-1.112058e-02 -1.732163e-02 -2.021291e-02
-2.051024e-04 1.540199e-04 1.825464e-02
-6.724524e-03 9.518630e-03 1.674171e-02
-4.874744e-03 7.702276e-03 1.579305e-02
2.198505e-03 -2.180333e-02 -1.906618e-02
-2.127681e-02 -1.232263e-02 -1.687103e-02
1.959410e-02 -1.222013e-02 4.132503e-03
1.346237e-03 1.377437e-03 -3.489907e-02
1.823920e-02 -1.323502e-02 7.153476e-03
-9.223090e-03 -3.750301e-03 1.632033e-02
-1.158267e-02 -2.256031e-02 -1.609155e-02
4.840872e-03 1.703531e-02 -2.992008e-02
-1.242328e-04 -5.036544e-04 1.992217e-02
1.292926e-02 -1.269195e-02 -2.820619e-02
-6.067443e-03 -2.031139e-02 8.836488e-03
-1.720332e-02 -4.342534e-03 -2.550985e-02
-3.371370e-03 -1.844150e-02 -2.522328e-02
6.660917e-03 2.431914e-02 -4.067451e-03
8.424104e-03 -2.382339e-02 -3.652293e-03
6.441638e-03 -4.115219e-04 -3.068758e-02
3.178474e-03 -2.262519e-02 -1.246789e-02
5.256423e-03 9.055258e-03 1.724539e-02
1.443822e-03 1.425066e-02 -2.563923e-02
-1.247925e-04 -1.034809e-03 1.924078e-02
-2.583461e-04 -2.242180e-04 1.974373e-02
-3.859327e-03 -1.150055e-02 -2.749448e-02
5.383599e-03 -9.453541e-03 1.652100e-02
9.775193e-03 4.159592e-03 1.731965e-02
-9.579743e-03 -1.595547e-02 8.413245e-03
-2.014386e-03 1.630301e-02 -2.474057e-02
2.098208e-02 -5.624028e-03 8.205462e-03
-6.192248e-03 3.781015e-03 1.759611e-02
2.936772e-03 7.102185e-03 -3.352069e-02
4.039972e-03 -9.188241e-03 1.723052e-02
-1.270417e-03 7.762601e-05 -3.149693e-02
4.430563e-04 -6.735221e-04 1.986629e-02
-5.949453e-04 1.893388e-04 -3.540633e-02
2.468857e-02 5.987940e-03 -3.393032e-03
1.156964e-02 9.150131e-03 -3.036569e-02
2.045127e-02 -4.739498e-03 5.745215e-03
3.398666e-03 -2.378231e-02 5.893400e-03
-6.202301e-03 7.432237e-03 1.764096e-02
-2.056542e-02 1.158430e-02 6.136667e-03
8.613501e-04 6.967279e-03 -3.306015e-02
-5.769990e-04 -6.856147e-05 -3.467094e-02
8.992618e-04 8.192013e-03 1.634582e-02
-1.795314e-04 -1.085679e-03 1.924530e-02
1.331481e-02 -1.909740e-02 3.856691e-03
4.027961e-03 2.148611e-02 6.994024e-03
4.147978e-03 -2.156232e-02 5.403000e-03
1.263758e-03 8.525071e-03 1.679153e-02
-9.993744e-04 -7.159669e-04 -3.211691e-02
5.494084e-03 7.715144e-03 1.785545e-02
3.988394e-03 5.335751e-03 -3.278815e-02
-1.956299e-02 -1.238140e-02 -1.643593e-02
-9.485018e-03 1.571695e-03 1.803297e-02
2.159646e-02 -1.222712e-02 -9.121386e-03
7.725812e-04 -7.134510e-04 1.975949e-02
4.004892e-03 2.661221e-02 -3.998574e-03
1.917409e-03 -2.541296e-02 1.485009e-03
-3.420969e-03 8.195504e-03 1.611592e-02
1.951320e-02 -8.782708e-03 9.948549e-03
2.056841e-02 1.101237e-02 3.183970e-03
9.031211e-03 -1.972677e-02 -1.623603e-02
6.980243e-03 2.043165e-02 -1.796267e-02
-9.219175e-03 1.821681e-02 9.222697e-03
1.858477e-02 1.052270e-02 -2.245817e-02
-1.662657e-03 2.279986e-02 -2.148612e-02
1.234895e-03 -5.002325e-04 1.921538e-02
-1.416444e-02 4.197106e-03 -2.615318e-02
-1.700848e-02 1.541618e-02 4.814295e-03
-7.338330e-03 -1.841339e-02 -1.953523e-02
-1.731559e-02 1.590834e-02 3.858578e-03
1.810899e-02 -8.055733e-03 1.043197e-02
-1.883609e-02 -1.404198e-02 -1.823110e-02
6.717687e-03 -2.577814e-02 -9.256065e-03
7.572775e-03 -6.414111e-03 -3.269591e-02
6.492080e-03 -1.020457e-02 -3.046509e-02
4.481872e-03 -3.246379e-04 -3.120572e-02
4.219776e-04 9.038610e-04 1.913855e-02
-6.900441e-03 5.819774e-03 1.567896e-02
-9.159101e-03 1.654772e-02 7.633673e-03
2.139886e-02 2.497440e-03 8.512716e-03
-2.232514e-03 -2.655817e-02 -1.281141e-02
-9.070275e-03 -1.775035e-02 9.524856e-03
-9.227067e-03 1.914759e-02 9.690099e-03
-8.947550e-03 -2.229351e-03 1.751405e-02
-8.854511e-03 7.965641e-04 1.781407e-02
4.054197e-03 7.568568e-03 -3.351383e-02
-8.507983e-03 -2.170080e-03 1.753947e-02
-6.298864e-04 6.203327e-04 1.962599e-02
-1.298202e-02 -1.708082e-02 -1.843381e-02
8.368132e-03 -6.377088e-03 1.725946e-02
1.981057e-03 -2.404382e-02 -1.523802e-02
-8.938760e-03 -1.878400e-02 8.160834e-03
-7.393201e-03 2.582750e-02 -4.904977e-03
-1.505224e-02 -1.759530e-02 -1.387099e-02
4.590759e-03 1.419962e-02 1.419543e-02
4.767211e-03 -1.417003e-02 1.407132e-02
-5.722920e-03 -6.771467e-03 1.728262e-02
8.488519e-03 -1.943870e-02 -1.936917e-02
-2.638493e-04 1.661608e-04 1.943080e-02
2.065422e-02 -1.658422e-02 -8.148530e-03
-2.710869e-02 7.066357e-04 -6.819081e-03
-2.070391e-02 -4.380830e-03 8.538385e-03
1.905955e-02 -6.242506e-03 8.439920e-03
-9.177774e-03 -2.267936e-03 1.595440e-02
9.825031e-04 2.034362e-04 -3.419844e-02
-1.840836e-02 1.307261e-02 8.107549e-03
-1.231802e-02 -1.828883e-02 7.800249e-03
-7.261913e-03 -3.749624e-03 -3.086707e-02
-1.331467e-02 -1.692924e-02 8.115008e-03
-8.015033e-04 8.874149e-04 1.785484e-02
1.027812e-02 1.064754e-02 -2.971300e-02
-2.100945e-03 2.036566e-02 9.748899e-03
-2.452387e-03 1.030396e-02 1.668860e-02
-1.955948e-03 -9.220843e-03 1.867980e-02
-2.429894e-02 4.680515e-03 -7.630454e-03
-7.846664e-03 -9.467632e-03 -3.111297e-02
-5.064582e-03 5.529857e-03 1.661826e-02
2.233568e-02 1.155311e-02 3.811178e-04
7.912408e-03 -2.983466e-03 -3.031033e-02
-6.980938e-03 9.488139e-03 -2.737665e-02
-4.087210e-04 -1.277197e-03 1.839925e-02
9.548813e-03 1.712189e-02 1.023417e-02
1.400669e-02 5.634161e-03 -2.944699e-02
-2.976090e-03 3.015291e-03 -3.424331e-02
9.549949e-03 2.973322e-03 1.741829e-02
2.003899e-02 1.609438e-02 -2.499370e-03
5.865907e-03 -2.304298e-02 -1.592297e-02
-1.975648e-02 2.001832e-03 -2.193242e-02
-1.526198e-02 -3.729709e-03 -2.614925e-02
6.149570e-03 6.780372e-03 1.755605e-02
3.643865e-03 -8.897009e-03 1.691121e-02
7.220108e-04 2.306786e-04 1.971679e-02
9.611079e-04 3.795577e-04 1.821324e-02
-2.102786e-02 9.934822e-03 -1.581577e-02
2.049742e-02 3.178253e-04 6.422654e-03
2.299543e-02 -8.116811e-04 6.694602e-03
-2.364272e-02 -9.486218e-03 -1.372067e-02
9.895113e-03 -3.023728e-03 1.825577e-02
2.976361e-03 8.545374e-03 1.674950e-02
-7.454767e-03 2.142954e-02 -1.560435e-02
-1.680946e-02 1.382263e-02 -2.186425e-02
1.441837e-02 1.857601e-02 -1.403095e-03
-1.216308e-02 2.016468e-03 -3.195154e-02
3.529834e-04 3.291002e-05 1.730510e-02
-2.149455e-02 -1.525773e-02 -1.129711e-02
1.312991e-02 -2.381874e-02 -9.589876e-03
-8.081384e-03 -1.815549e-02 9.033739e-03
2.165394e-03 1.462371e-02 -2.647207e-02
2.010737e-02 1.157900e-02 -1.342640e-02
-1.694089e-02 -1.348562e-02 7.828706e-03
1.825273e-02 1.453316e-02 -1.426170e-02
-1.755305e-02 1.410354e-02 7.251511e-03
1.954841e-03 -2.329075e-02 -1.291513e-02
-9.374703e-03 -9.695177e-04 1.841791e-02
-1.339867e-03 3.349120e-04 1.788850e-02
-9.477862e-03 9.155631e-04 1.762888e-02
-1.899582e-02 -1.778568e-02 -1.715318e-02
-9.356225e-04 -9.753299e-03 1.844209e-02
-1.802955e-03 8.580767e-03 1.625624e-02
-4.960153e-03 2.401584e-02 -1.462786e-02
9.161435e-03 2.161496e-02 7.498503e-03
9.077897e-03 1.706454e-02 -2.494413e-02
-1.602790e-04 2.490074e-02 -1.721840e-02
-1.443701e-02 9.353844e-03 -2.686501e-02
8.381761e-03 -5.034220e-03 1.804129e-02
-2.900480e-05 -5.289231e-04 1.900468e-02
-2.104066e-02 1.492734e-02 -5.671064e-03
-3.374824e-03 -7.544057e-03 1.824240e-02
2.053749e-02 -1.620431e-02 -1.443191e-02
1.460030e-02 -1.932527e-02 1.481117e-03
-1.052612e-02 -8.417260e-03 -2.768187e-02
-1.064506e-03 7.434516e-03 1.837355e-02
8.475561e-03 3.059636e-03 1.724652e-02
-4.010556e-03 -5.342928e-03 -3.223647e-02
-1.846674e-02 1.264253e-02 -1.447903e-02
1.178175e-02 -1.784737e-02 9.941939e-03
3.852864e-04 -3.729748e-05 1.942431e-02
-9.865697e-03 -3.793729e-03 1.616515e-02
-1.649451e-02 -1.439463e-02 8.167509e-03
2.908811e-03 2.094557e-02 8.929619e-03
-1.616606e-02 1.508735e-02 7.726342e-03
-6.392698e-03 -6.502674e-03 1.761430e-02
2.127722e-03 6.253162e-04 -3.463509e-02
1.648259e-02 3.628051e-03 -2.975210e-02
2.141791e-02 -1.063940e-02 1.374851e-03
-6.185604e-04 -1.261977e-03 -3.458450e-02
4.213129e-03 2.237406e-02 -1.652239e-02
-3.693791e-04 1.322624e-03 1.894877e-02
-1.231787e-03 2.552501e-02 -1.365441e-02
1.667587e-02 1.332376e-02 9.637665e-03
-1.538996e-02 -1.485006e-02 -1.794794e-02
1.912509e-02 8.249362e-03 7.127230e-03
-5.773894e-03 -7.343760e-03 -3.228641e-02
-2.092595e-02 6.357062e-03 8.474841e-03
2.019451e-03 -1.705699e-02 -2.743568e-02
2.042277e-02 -3.523617e-03 -2.196971e-02
-1.067421e-02 1.983531e-02 6.856527e-03
-5.851144e-03 6.160977e-03 1.593404e-02
-9.557329e-04 -1.112869e-03 1.943009e-02
5.246814e-04 -2.578221e-02 -2.482790e-04
-2.246064e-02 2.245714e-03 6.882526e-03
-1.586983e-02 -5.555755e-03 -2.652767e-02
1.749267e-04 2.261248e-02 7.838426e-03
5.483469e-03 -4.507966e-03 1.822271e-02
7.522314e-03 2.124158e-02 5.820218e-03
3.148169e-03 7.649563e-03 1.588302e-02
-1.071773e-02 1.778771e-02 -2.233818e-02
-1.795793e-02 -1.265217e-02 8.784040e-03
-1.331121e-02 1.768786e-02 7.430357e-03
5.642851e-04 -3.781750e-04 2.007381e-02
7.118713e-03 2.217946e-02 -4.089097e-03
2.986228e-03 1.682000e-02 -2.584459e-02
-1.687820e-02 -1.854427e-02 -8.252508e-03
-2.253835e-02 4.002235e-03 6.134486e-03
5.317234e-03 2.466532e-02 -1.633342e-02
-1.718082e-03 2.632870e-02 -1.390182e-02
-5.276658e-03 6.460179e-03 1.609574e-02
4.612361e-03 -7.018271e-03 1.656306e-02
1.190518e-02 1.876734e-02 3.540793e-03
-6.886576e-03 2.010361e-02 -1.764365e-02
7.956886e-04 -8.608882e-04 1.956319e-02
-1.814790e-02 1.965710e-02 -1.707893e-03
-4.520967e-03 1.946833e-02 9.713406e-03
-4.213373e-03 -1.959573e-02 6.973684e-03
4.858805e-03 -2.171664e-02 8.143588e-03
1.561292e-02 -7.285203e-03 -2.601227e-02
-2.132308e-02 -7.274806e-03 7.963590e-03
1.123294e-02 7.535768e-03 -2.988725e-02
2.163334e-02 6.423708e-03 -2.054091e-02
-7.832264e-05 -1.332318e-03 -3.474455e-02
5.761242e-03 -6.124668e-03 1.557997e-02
5.029846e-04 1.756306e-04 2.014307e-02
9.193589e-03 2.291216e-02 -5.131073e-03
8.280133e-03 -2.524591e-02 -5.443979e-03
4.364517e-03 -1.233098e-02 -2.755852e-02
-6.971870e-03 5.521823e-03 -2.860677e-02
8.636848e-03 1.546972e-02 9.876345e-03
2.421800e-02 -3.371239e-03 -1.574370e-02
-1.770166e-02 7.490533e-03 -2.322556e-02
1.117894e-03 -9.811400e-03 1.737369e-02
8.364454e-03 -3.831751e-03 1.789511e-02
-2.936395e-03 -2.263422e-02 -2.138594e-02
-4.986852e-04 9.293601e-04 1.918001e-02
4.403652e-04 -3.170856e-04 1.947475e-02
2.621296e-04 7.735234e-03 1.600758e-02
1.113970e-02 1.757928e-02 8.906681e-03
8.121596e-03 -1.999602e-02 8.461460e-03
-2.539404e-02 -7.390888e-03 -1.827737e-03
-2.461601e-03 -7.750940e-03 -3.272510e-02
-1.412758e-02 -1.764618e-02 5.677655e-03
6.953914e-03 -2.590862e-03 1.830944e-02
-1.580702e-02 2.240802e-02 -4.334714e-03
2.076417e-03 8.288146e-03 1.787945e-02
-3.756528e-03 2.406781e-02 -1.509151e-02
6.976657e-04 1.647764e-04 1.916339e-02
-1.802357e-02 9.726578e-03 -2.408767e-02
1.175906e-02 -1.820688e-02 -1.801938e-02
-1.333366e-03 -1.195887e-03 -3.489170e-02
1.599541e-02 1.481393e-02 -1.750925e-02
1.755158e-03 -1.455076e-02 -3.002628e-02
-4.246913e-03 1.027952e-02 -3.160720e-02
-7.137298e-03 -1.632600e-03 1.717381e-02
6.541346e-03 7.140497e-03 1.765031e-02
-2.657542e-02 -2.268016e-03 -2.455982e-03
1.631473e-02 -1.446832e-02 -1.968275e-02
-4.535654e-05 4.512966e-04 1.804963e-02
-1.755814e-02 -1.788507e-02 -1.872434e-02
8.887836e-03 -1.793552e-02 9.595772e-03
3.433355e-03 -2.149485e-02 8.232448e-03
8.447312e-03 -4.016759e-03 1.699469e-02
1.914435e-02 1.404973e-02 -2.089715e-02
-5.596980e-03 -6.469713e-03 1.816295e-02
-1.158023e-03 -2.463872e-02 -1.770311e-02
-2.108842e-02 -7.648342e-03 -1.801867e-02
-7.233498e-03 3.467668e-03 -3.255531e-02
-1.912922e-02 -1.382750e-02 -1.522164e-02
-1.166395e-02 4.849981e-04 1.665612e-02
1.866306e-02 -7.781136e-03 -2.337527e-02
-3.333105e-03 -8.332737e-03 -3.244782e-02
-2.145633e-03 4.769578e-03 -3.395494e-02
4.126095e-03 -2.955914e-03 -3.142660e-02
3.866240e-03 -2.552977e-03 -3.401538e-02
2.069737e-02 -3.287056e-03 8.422127e-03
-5.492494e-03 2.083036e-02 7.255800e-03
-1.336845e-02 1.445419e-02 1.110706e-02
4.102649e-04 -9.015779e-03 1.741778e-02
-7.295499e-04 2.125249e-02 8.838420e-03
-2.005695e-02 -1.898702e-04 8.375401e-03
2.680342e-03 -5.025013e-04 -3.428591e-02