# vtk DataFile Version 2.0
Electric current density generated by TTH
ASCII
DATASET UNSTRUCTURED_GRID
POINTS 1585 double
1.677739e-05 -4.109275e-21 -5.104131e-22
1.444606e-05 8.531823e-06 -5.104131e-22
1.535375e-05 -6.763358e-06 -5.104131e-22
6.246674e-06 1.211313e-05 1.791526e-06
-1.500701e-05 -4.479648e-06 -1.845518e-06
8.566756e-06 1.423764e-05 -8.035164e-07
-1.305630e-05 9.659145e-07 1.333397e-06
-7.784292e-06 1.377463e-05 1.751894e-06
-3.176929e-06 1.550494e-05 1.748622e-06
-1.514512e-05 -6.832005e-06 8.070193e-07
8.603193e-06 -1.424044e-05 -7.507355e-07
-1.628412e-05 -3.427681e-06 7.416251e-07
3.353970e-06 1.306804e-05 1.702409e-06
1.572745e-05 -5.841914e-06 -5.104131e-22
-1.352717e-05 3.045270e-06 -1.912471e-06
-1.027991e-05 8.494456e-06 1.580606e-06
-1.253814e-05 -4.024749e-06 -1.420038e-06
-1.381936e-06 1.254171e-05 -1.832431e-07
-1.404898e-05 -8.909262e-06 -7.551131e-07
-2.661681e-06 -1.347197e-05 1.849067e-06
1.128756e-05 -8.274407e-06 -1.963569e-06
1.121956e-05 8.334566e-06 -1.956713e-06
-5.697356e-06 -1.173922e-05 -1.279659e-06
-1.314711e-05 1.010655e-05 8.793025e-07
1.604591e-05 -4.899949e-06 -5.104131e-22
3.882174e-06 1.410261e-05 -2.082865e-06
-9.263596e-06 1.381599e-05 -7.592011e-07
-1.327488e-05 -6.869194e-06 2.068459e-06
2.822442e-06 1.516529e-05 1.951040e-06
-1.279090e-05 4.718937e-06 -1.794278e-06
-4.298569e-06 -1.260822e-05 -1.567999e-06
-4.065491e-06 -1.610831e-05 -8.102393e-07
1.030176e-05 1.301407e-05 8.459535e-07
8.034854e-06 1.035874e-05 1.354321e-06
7.744316e-06 1.083158e-05 -1.563143e-06
1.630800e-05 -3.940774e-06 -5.104131e-22
-9.866509e-06 -1.213596e-05 1.856229e-06
1.569929e-05 5.430425e-06 -8.137011e-07
1.569929e-05 -5.430425e-06 -8.137011e-07
-2.979304e-06 -1.404300e-05 -2.056342e-06
1.370477e-05 -3.307972e-06 1.997136e-06
1.370477e-05 3.307972e-06 1.997136e-06
7.462044e-06 1.375322e-05 1.852895e-06
-1.118896e-05 -8.000163e-06 1.860559e-06
6.041618e-06 1.326716e-05 2.080720e-06
-1.068493e-05 -8.577868e-06 1.833005e-06
1.651282e-05 -2.967757e-06 -5.104131e-22
1.671956e-06 -1.322480e-05 1.576026e-06
-4.844430e-06 1.315666e-05 -1.972167e-06
7.397794e-06 -1.368923e-05 -1.895088e-06
1.005164e-05 -1.325617e-05 -7.541363e-07
-1.275537e-05 9.401032e-06 1.736553e-06
-2.296355e-06 1.449212e-05 -2.083818e-06
1.369531e-05 4.312925e-06 2.056801e-06
1.369531e-05 -4.312925e-06 2.056801e-06
4.682674e-06 -1.292521e-05 1.856748e-06
-1.487835e-05 1.918082e-06 -2.061031e-06
1.665963e-05 -1.984315e-06 -5.104131e-22
-5.361755e-06 -1.298209e-05 1.980703e-06
-9.462230e-07 1.661305e-05 -7.442019e-07
-9.829224e-06 -1.026028e-05 -2.026750e-06
1.301788e-05 8.886078e-07 -1.278952e-06
1.302671e-05 -8.257143e-07 -1.284959e-06
-1.577068e-05 -5.331716e-06 -7.240132e-07
-2.786659e-06 -1.280261e-05 -1.345797e-06
-1.227031e-05 3.348005e-06 -6.661003e-07
4.868068e-06 1.313483e-05 1.967930e-06
-8.658291e-06 -9.854179e-06 -1.363559e-06
1.674792e-05 -9.939029e-07 -5.104131e-22
-5.126251e-06 -1.157396e-05 -4.485532e-07
-1.015678e-05 -7.621980e-06 6.027162e-07
-1.135777e-05 -9.834755e-06 2.057536e-06
-1.423570e-05 6.443737e-07 2.036247e-06
1.298212e-05 -8.360527e-06 -1.945112e-06
1.298212e-05 8.360527e-06 -1.945112e-06
2.567516e-06 1.421367e-05 2.068898e-06
-1.517933e-06 1.296439e-05 1.285078e-06
8.361168e-06 -1.437605e-05 7.680330e-07
-1.332249e-05 -2.617750e-07 -1.571680e-06
1.657101e-05 -4.058728e-21 9.041788e-07
-1.264051e-05 6.748769e-06 2.051851e-06
-1.414474e-05 2.303775e-06 2.052175e-06
3.348579e-06 1.550453e-05 -1.725464e-06
-1.189956e-05 -8.113275e-06 -2.063472e-06
-1.271893e-05 -1.386659e-06 -8.578315e-07
-1.456008e-05 8.038533e-06 -7.654419e-07
-1.558485e-05 5.697363e-06 -8.557028e-07
-4.526308e-06 1.253102e-05 1.570264e-06
4.110323e-06 1.201735e-05 6.100666e-07
9.511267e-06 1.094935e-05 2.075246e-06
1.599277e-05 -3.917099e-21 1.629274e-06
9.351964e-06 -1.092883e-05 2.060809e-06
1.217471e-05 4.733241e-06 -1.297094e-06
1.217472e-05 -4.733225e-06 -1.297092e-06
2.031042e-06 1.282319e-05 1.190443e-06
-1.208845e-05 -3.757518e-06 4.511771e-07
-1.007997e-05 -1.323091e-05 7.617169e-07
1.242756e-05 2.173229e-06 -1.656678e-07
1.243412e-05 -2.124297e-06 -1.403576e-07
7.592617e-06 -1.381217e-05 1.789439e-06
-2.623329e-06 1.639836e-05 8.255918e-07
1.515718e-05 -3.712439e-21 2.031671e-06
6.974953e-07 -1.659546e-05 8.180350e-07
-1.161847e-05 4.924037e-06 1.965458e-07
-3.438901e-06 1.533826e-05 -1.814091e-06
1.659148e-05 -1.479098e-06 -6.972618e-07
1.659148e-05 1.479098e-06 -6.972618e-07
3.318223e-06 -1.408298e-05 -2.071754e-06
-2.164184e-06 1.248977e-05 -5.216049e-07
-4.504305e-06 1.499035e-05 1.850154e-06
3.718231e-06 1.327144e-05 -1.874247e-06
5.390379e-06 1.478402e-05 1.804366e-06
1.391526e-05 9.372633e-06 -5.104131e-22
1.422975e-05 -3.485284e-21 2.031671e-06
1.847770e-06 -1.592179e-05 1.600003e-06
-8.325024e-06 -1.439377e-05 7.750823e-07
1.500820e-05 -7.191053e-06 7.387914e-07
1.500820e-05 7.191053e-06 7.387914e-07
1.526747e-05 3.778403e-06 1.808956e-06
1.526747e-05 -3.778403e-06 1.808956e-06
-1.663419e-05 3.915032e-07 7.472825e-07
-1.190236e-05 7.973807e-06 2.051350e-06
1.172846e-05 -1.174755e-05 -8.412273e-07
1.444699e-05 8.238656e-06 -7.671981e-07
1.339416e-05 -3.280624e-21 1.629274e-06
1.444699e-05 -8.238656e-06 -7.671981e-07
9.553726e-06 1.359756e-05 7.986218e-07
-4.895123e-06 -1.591738e-05 -7.089577e-07
-1.558377e-05 -2.383010e-06 1.787375e-06
-1.064337e-05 1.279896e-05 7.278050e-07
1.167993e-05 9.512982e-06 -2.050752e-06
1.170367e-05 -9.427954e-06 -2.056777e-06
-1.107312e-05 1.163588e-05 1.571035e-06
6.087117e-06 1.464167e-05 -1.729122e-06
7.778096e-06 1.261855e-05 2.079879e-06
1.281592e-05 -3.138995e-21 9.041788e-07
4.722194e-06 1.535688e-05 -1.567627e-06
1.039947e-05 -1.294802e-05 8.247510e-07
-9.082467e-06 1.116347e-05 2.061920e-06
-1.164226e-05 8.962662e-06 -2.083919e-06
1.104006e-06 1.467616e-05 2.083780e-06
1.031821e-05 -7.378594e-06 5.556711e-07
-1.970903e-06 1.654703e-05 -6.780575e-07
1.031826e-05 7.377721e-06 5.539810e-07
-3.791779e-06 1.240664e-05 -1.176084e-06
7.574555e-06 1.213727e-05 -2.047750e-06
1.260955e-05 -3.088448e-21 4.882438e-21
-1.567069e-05 1.471167e-06 -1.802317e-06
-1.218576e-05 3.304863e-06 2.610114e-07
-1.429401e-05 4.727687e-06 -2.052222e-06
-1.284183e-05 -2.969306e-07 9.627379e-07
4.754163e-06 -1.193739e-05 -9.703550e-07
9.673109e-06 -8.088991e-06 4.104650e-09
-6.361657e-06 -1.436174e-05 1.820480e-06
-3.676872e-06 -1.542746e-05 -1.727113e-06
-1.096885e-05 1.149035e-05 -1.709437e-06
1.660480e-05 8.103876e-07 7.833089e-07
1.281592e-05 -3.138995e-21 -9.041788e-07
1.660480e-05 -8.103876e-07 7.833089e-07
-1.261701e-05 1.079978e-05 8.230652e-07
-1.011288e-05 -1.324698e-05 -6.724179e-07
1.514434e-05 -6.847562e-06 -7.933282e-07
1.514434e-05 6.847562e-06 -7.933282e-07
1.971204e-06 -1.654955e-05 -6.706250e-07
-5.835471e-06 1.118604e-05 1.720582e-07
-2.295689e-06 1.300963e-05 -1.464211e-06
-1.174402e-05 -1.062093e-05 -1.743887e-06
4.611958e-06 -1.202867e-05 1.031094e-06
1.339416e-05 -3.280624e-21 -1.629274e-06
5.803222e-06 -1.562329e-05 6.713965e-07
-1.504736e-05 7.168102e-06 -6.678371e-07
-4.904908e-07 1.456467e-05 -2.080430e-06
-1.171908e-05 5.925692e-06 -1.380101e-06
-1.614763e-05 3.871994e-06 -8.290772e-07
6.557314e-06 1.091177e-05 6.995670e-07
3.514596e-06 1.623847e-05 8.077693e-07
-7.360544e-06 1.282702e-05 2.081736e-06
-7.858905e-06 9.907014e-06 3.859768e-07
5.851536e-06 -1.465287e-05 1.779436e-06
1.422975e-05 -3.485284e-21 -2.031671e-06
-1.205902e-05 1.039409e-05 -1.684494e-06
-4.393421e-06 -1.393826e-05 2.082415e-06
2.719138e-06 -1.556507e-05 -1.765376e-06
8.584993e-06 -9.525539e-06 -9.194219e-07
1.195199e-05 -1.033208e-05 1.766626e-06
1.195199e-05 1.033208e-05 1.766626e-06
-1.562109e-05 5.022371e-07 -1.862039e-06
-9.833719e-06 1.231111e-05 1.792431e-06
6.291380e-06 1.304442e-05 -2.073198e-06
-6.522208e-06 1.444880e-05 -1.731754e-06
1.515718e-05 -3.712439e-21 -2.031671e-06
9.667514e-06 8.095677e-06 4.610678e-09
-1.443314e-05 -8.251273e-06 7.816080e-07
4.909296e-06 -1.512227e-05 1.699690e-06
1.174522e-05 1.173850e-05 -8.287727e-07
-9.998175e-06 9.445158e-06 1.860177e-06
-8.689877e-06 9.235722e-06 -5.417113e-07
7.101920e-06 -1.445497e-05 -1.532716e-06
-6.758207e-06 -1.519624e-05 7.665720e-07
-6.092020e-06 1.508531e-05 1.364015e-06
-1.039489e-06 -1.454103e-05 2.080726e-06
1.599277e-05 -3.917099e-21 -1.629274e-06
4.830909e-06 -1.418299e-05 -2.063687e-06
-1.270454e-05 -5.496757e-06 -1.902333e-06
1.032827e-05 -9.552273e-06 -1.987959e-06
-6.668014e-06 1.525047e-05 7.322662e-07
-4.900103e-06 1.590516e-05 7.365809e-07
-9.279920e-06 -8.796480e-06 -8.403910e-07
-7.495182e-06 -1.486428e-05 -7.253874e-07
-1.189538e-05 1.062172e-05 1.664410e-06
1.038156e-06 1.505037e-05 -2.046591e-06
1.588323e-05 2.004635e-06 1.616007e-06
1.657101e-05 -4.058728e-21 -9.041788e-07
1.589018e-05 -2.013552e-06 1.609449e-06
-9.876301e-07 1.664222e-05 6.558262e-07
-3.734870e-06 1.206842e-05 3.126175e-07
1.292969e-05 4.705153e-06 1.862754e-06
1.292961e-05 -4.705348e-06 1.862751e-06
-4.899926e-06 -1.499265e-05 -1.782479e-06
-1.107867e-05 7.198132e-06 1.465334e-06
-4.682822e-06 -1.596542e-05 7.493131e-07
1.072893e-05 9.880477e-06 -2.081116e-06
1.217633e-05 1.134738e-05 7.333170e-07
1.333558e-05 1.018052e-05 -5.104131e-22
7.162079e-06 -1.193270e-05 1.933888e-06
-8.334868e-06 1.001814e-05 -1.257886e-06
1.432639e-05 -2.735723e-06 2.081108e-06
1.432639e-05 2.735723e-06 2.081108e-06
2.554703e-06 -1.302494e-05 -1.524901e-06
-1.486305e-05 5.576447e-06 1.716785e-06
1.536092e-06 -1.530809e-05 1.965845e-06
-1.392378e-05 -7.357117e-06 1.797424e-06
1.062507e-05 -1.121180e-05 -1.943079e-06
9.534158e-07 -1.297925e-05 -1.234041e-06
-5.245173e-06 1.485617e-05 -1.793329e-06
7.269697e-06 1.177738e-05 1.901290e-06
1.371252e-05 -2.078352e-06 -1.913947e-06
1.371252e-05 2.078352e-06 -1.913947e-06
-7.229332e-06 -1.034802e-05 -2.379854e-07
6.358417e-06 -1.326495e-05 2.083853e-06
-4.236519e-06 1.609738e-05 7.294862e-07
-7.441499e-06 1.488711e-05 7.352385e-07
-1.366463e-05 -9.512078e-06 -7.191348e-07
1.508229e-05 5.313352e-06 -1.630806e-06
[...]
POINT_DATA 1585
VECTORS 10.000GHz_fone_imag double
-5.957423e-04 -9.990985e-05 2.257933e-02
-3.835970e-04 -6.809877e-05 2.365599e-02
-3.393545e-04 -4.674731e-04 2.301793e-02
-1.627590e-02 -3.299700e-02 -2.103667e-02
-2.289321e-02 -6.668620e-03 1.344768e-02
5.422253e-03 9.104931e-03 2.264113e-02
3.207028e-02 -5.309315e-03 -4.205514e-02
1.244657e-02 -2.149731e-02 1.520305e-02
4.633255e-03 -2.431248e-02 1.498144e-02
8.355470e-03 4.358229e-03 2.256076e-02
4.655738e-03 -8.209968e-03 2.268094e-02
8.261893e-03 1.944546e-03 2.268517e-02
-9.171361e-03 -3.793670e-02 -2.969945e-02
-1.279194e-03 1.271997e-03 2.229525e-02
-3.869527e-02 8.959001e-03 -2.048556e-02
2.792165e-02 -2.406972e-02 -3.102445e-02
-3.242232e-02 -1.131560e-02 -3.564553e-02
-4.144519e-04 4.178026e-03 -5.781368e-02
-8.176478e-03 -5.404490e-03 2.232634e-02
6.014516e-03 3.735538e-02 -2.082447e-02
2.963824e-02 -2.133306e-02 -1.557903e-02
3.346891e-02 2.422244e-02 -1.797598e-02
-1.341591e-02 -2.867126e-02 -4.470698e-02
8.438180e-03 -6.862722e-03 2.130570e-02
-2.948512e-04 -1.368622e-03 2.296701e-02
9.191261e-03 3.437897e-02 -3.679420e-03
-5.478142e-03 7.986918e-03 2.241621e-02
3.207348e-02 1.701102e-02 2.209758e-03
-5.768852e-03 -2.991864e-02 1.016638e-02
-3.627228e-02 1.454467e-02 -2.557543e-02
-1.128821e-02 -3.512561e-02 -3.740485e-02
-1.824900e-03 -9.487862e-03 2.114904e-02
-4.993175e-03 -7.523527e-03 2.057514e-02
-2.088744e-02 -2.615129e-02 -4.200355e-02
2.298774e-02 2.994980e-02 -3.469092e-02
-7.643389e-05 1.184537e-03 2.290939e-02
1.695146e-02 2.011162e-02 1.226939e-02
9.645155e-03 3.524628e-03 2.279502e-02
9.647270e-03 -3.416574e-03 2.276552e-02
-8.107425e-03 -3.919338e-02 -9.272184e-03
-4.001039e-02 8.937558e-03 -1.290212e-02
-4.005695e-02 -8.909093e-03 -1.317797e-02
-1.257842e-02 -2.324095e-02 1.189420e-02
3.316776e-02 2.426993e-02 -2.170433e-02
-1.460912e-02 -3.375395e-02 -4.178009e-03
3.250152e-02 2.435191e-02 -2.421603e-02
-1.733968e-04 -3.612722e-04 2.233918e-02
-4.907428e-03 3.657379e-02 -3.628694e-02
-1.380419e-02 3.848269e-02 -1.722739e-02
1.413429e-02 -2.533712e-02 1.117286e-02
5.690670e-03 -8.037102e-03 2.113411e-02
1.932616e-02 -1.394246e-02 1.390145e-02
-6.636491e-03 3.809533e-02 -2.062478e-03
-3.841478e-02 -1.139306e-02 -8.515200e-03
-3.847469e-02 1.137018e-02 -8.368497e-03
-1.379089e-02 3.736137e-02 -2.389765e-02
-3.465237e-02 3.960611e-03 4.517166e-03
-1.497200e-04 6.824529e-04 2.133429e-02
1.593316e-02 3.717545e-02 -1.602979e-02
-6.372401e-04 9.584763e-03 2.256797e-02
-2.795786e-02 -2.687047e-02 -9.526993e-03
3.237873e-02 2.091439e-03 -4.579878e-02
3.084297e-02 -2.046417e-03 -4.448256e-02
-8.560422e-03 -2.763031e-03 2.226495e-02
-6.865602e-03 -3.130325e-02 -3.672979e-02
-1.556292e-02 5.715172e-03 -5.690640e-02
-1.476743e-02 -3.814034e-02 -1.702025e-02
-1.919175e-02 -2.478130e-02 -3.824759e-02
-9.413441e-04 -2.992217e-04 2.234512e-02
-5.108732e-03 -9.355793e-03 -5.440900e-02
1.184864e-02 8.664029e-03 -5.230211e-02
2.491543e-02 2.377806e-02 4.363961e-03
3.903202e-02 -4.176999e-04 -8.613777e-03
2.546378e-02 -1.527677e-02 8.926707e-03
2.575329e-02 1.605321e-02 9.559195e-03
-6.800234e-03 -3.922682e-02 -7.639659e-03
1.048769e-03 -2.700326e-02 -4.403202e-02
-4.231250e-03 7.772914e-03 2.235925e-02
-3.678552e-02 -1.052605e-03 -3.245942e-02
-1.037871e-02 -5.460172e-05 2.161422e-02
3.202512e-02 -1.800376e-02 -9.938413e-03
3.786802e-02 -7.732769e-03 -1.019255e-02
5.451570e-03 2.437293e-02 1.484153e-02
-3.084797e-02 -2.033442e-02 -8.279599e-03
-2.414769e-02 -1.792610e-03 -5.093532e-02
-8.550701e-03 4.116118e-03 2.212328e-02
-9.232816e-03 3.365815e-03 2.257171e-02
1.038722e-02 -3.209571e-02 -3.240155e-02
-7.059511e-03 -1.622269e-02 -5.491178e-02
-2.464571e-02 -2.635724e-02 -5.558453e-03
-2.353087e-02 -2.901048e-04 1.616729e-02
-2.497240e-02 2.847294e-02 -5.668212e-03
2.931346e-02 8.631329e-03 -4.051479e-02
2.940219e-02 -8.710999e-03 -4.020529e-02
-7.072811e-03 -2.895190e-02 -4.509841e-02
9.634884e-03 4.719587e-03 -5.317468e-02
5.455841e-03 7.037506e-03 2.205998e-02
5.866729e-03 1.889048e-03 -5.967977e-02
3.154146e-03 -1.633450e-04 -6.057540e-02
-1.096185e-02 2.292912e-02 1.144188e-02
1.404782e-03 -1.016608e-02 1.996763e-02
-2.963275e-02 4.195575e-04 6.659860e-03
-1.166538e-03 8.766960e-03 2.176472e-02
7.373398e-03 -1.897841e-03 -5.564530e-02
-5.994243e-03 2.689263e-02 1.225159e-02
8.676177e-03 -1.019902e-03 2.328044e-02
8.546327e-03 8.203838e-04 2.321131e-02
7.513300e-03 -3.589687e-02 -5.016161e-03
-1.779152e-03 1.478556e-02 -5.500642e-02
7.320876e-03 -2.584413e-02 1.328035e-02
8.946709e-03 3.872497e-02 -2.088103e-02
-7.910188e-03 -2.528480e-02 1.352376e-02
-7.601541e-04 4.558401e-04 2.241016e-02
-4.092739e-02 8.833786e-04 -1.118667e-02
-2.264834e-03 2.157134e-02 1.732638e-02
4.759307e-03 8.167020e-03 2.252180e-02
-7.733439e-03 3.735076e-03 2.075772e-02
-8.693075e-03 -3.705960e-03 2.288587e-02
-2.597635e-02 -5.651132e-03 1.263072e-02
-2.607671e-02 5.092962e-03 1.241847e-02
9.190056e-03 -7.059414e-05 2.242682e-02
3.280355e-02 -2.232377e-02 -8.500845e-03
6.627475e-03 -5.928382e-03 2.129559e-02
8.408259e-03 4.802926e-03 2.151966e-02
-3.487373e-02 -1.176734e-03 -3.362091e-02
8.957956e-03 -4.660574e-03 2.180701e-02
-5.343904e-03 -7.446764e-03 2.195757e-02
-3.004010e-03 -6.652682e-03 2.136736e-02
2.353398e-02 3.388435e-03 1.376846e-02
5.259452e-03 -6.744770e-03 2.029275e-02
2.769598e-02 1.970924e-02 3.015276e-03
2.673044e-02 -2.179138e-02 4.862438e-03
1.460303e-02 -1.589282e-02 1.551479e-02
8.404934e-03 2.021914e-02 1.401759e-02
-1.951461e-02 -3.047919e-02 -1.528189e-04
-2.394638e-02 4.162722e-04 -4.954545e-02
7.234330e-03 1.988889e-02 1.540733e-02
-6.248997e-03 7.854476e-03 2.029959e-02
2.414797e-02 -2.859115e-02 -3.961772e-03
-2.837893e-02 2.263401e-02 7.940196e-04
-2.848728e-03 -3.419501e-02 -2.174008e-03
-1.306936e-02 7.791530e-03 -5.132639e-02
-6.079989e-04 8.240734e-03 2.240663e-02
-1.274629e-02 -9.008158e-03 -5.600751e-02
-1.180363e-02 2.782888e-02 -4.432966e-02
2.170632e-02 3.279890e-02 -7.465154e-03
1.762146e-03 -6.520844e-04 -5.372081e-02
-2.374009e-02 3.410123e-03 1.330797e-02
6.572074e-03 -3.031164e-03 -5.236604e-02
-3.072455e-02 9.752069e-03 6.091375e-03
2.056816e-02 2.207725e-04 -4.521743e-02
1.046206e-02 -2.186014e-02 -4.614067e-02
8.931618e-04 -1.710441e-03 -5.361275e-02
1.067429e-02 2.360766e-02 1.093492e-02
-5.921861e-03 -2.240223e-02 1.342523e-02
-1.673786e-02 1.783138e-02 1.505938e-02
-8.914773e-03 -3.788695e-04 2.220231e-02
2.230273e-02 -4.423052e-04 -5.272207e-02
-7.830933e-03 6.308101e-04 2.213569e-02
8.002458e-03 -6.451875e-03 2.258841e-02
-4.397237e-03 -6.120583e-03 2.218724e-02
9.603649e-03 -3.449582e-03 2.112069e-02
8.059872e-03 2.327644e-03 2.134924e-02
6.211084e-04 -8.164465e-03 2.203054e-02
1.398366e-03 -5.815910e-03 -5.289648e-02
-4.742300e-03 3.127849e-02 -3.724672e-02
-2.005614e-02 -1.651448e-02 1.425202e-02
-9.282202e-03 2.279001e-02 -4.517942e-02
3.894004e-02 1.508974e-04 -3.277860e-02
-3.355674e-03 6.281039e-03 2.123522e-02
-7.241877e-03 3.763076e-03 2.032673e-02
2.102567e-04 3.691372e-02 -4.526232e-03
-2.840730e-02 1.169307e-02 -4.010975e-02
-7.981939e-03 2.516369e-03 2.169352e-02
-1.010264e-02 -1.676592e-02 -5.493729e-02
-2.298194e-03 -9.774959e-03 2.254761e-02
1.927007e-02 -3.283071e-02 -5.313385e-04
1.010489e-02 -8.133873e-03 -5.555416e-02
-1.034553e-02 2.396385e-02 1.150300e-02
3.619440e-02 2.052306e-04 -1.061897e-02
-1.831098e-02 1.545453e-02 1.589251e-02
1.129283e-02 3.483830e-02 -2.500410e-03
4.505410e-03 -2.539360e-02 1.555401e-02
1.488184e-02 -1.758848e-02 -4.562285e-02
-1.920906e-02 1.649267e-02 1.487749e-02
-1.962386e-02 -1.691931e-02 1.502947e-02
-2.639623e-02 -6.469639e-05 1.178235e-02
1.597907e-02 -2.060796e-02 1.374971e-02
1.550353e-02 3.301863e-02 -7.057400e-03
-9.137561e-03 2.026109e-02 1.443633e-02
3.402449e-02 2.187335e-04 5.604299e-03
3.556206e-05 -1.139105e-03 -5.475728e-02
8.616244e-03 4.912441e-03 2.184407e-02
-5.821955e-03 2.241167e-02 1.626820e-02
6.665599e-03 6.617002e-03 1.989680e-02
2.826266e-02 -2.564244e-02 -2.384060e-02
-8.255285e-03 1.059520e-02 -5.794255e-02
9.197045e-03 -1.830486e-02 1.877972e-02
2.353553e-03 7.689576e-03 2.215854e-02
8.529672e-03 -1.692476e-02 1.916152e-02
3.056864e-03 3.605114e-02 -3.932975e-03
2.049966e-02 -6.245986e-04 1.504925e-02
1.134703e-02 -3.287228e-02 4.305132e-03
-3.560910e-02 -1.675849e-02 -1.647635e-02
2.666757e-02 -2.631308e-02 -1.221906e-02
3.439593e-03 -6.307453e-03 2.159154e-02
3.539566e-03 -8.548394e-03 2.287405e-02
-1.465615e-02 -1.283751e-02 -4.813206e-02
-4.140130e-03 -8.416270e-03 2.220640e-02
1.611229e-02 -1.416770e-02 1.480032e-02
3.499946e-03 3.326586e-02 4.110730e-03
-2.283734e-02 -2.353810e-03 1.527603e-02
1.196697e-02 2.212285e-04 2.240222e-02
-2.243207e-02 3.773396e-03 1.634044e-02
-4.002819e-04 -5.709134e-03 2.152637e-02
5.298242e-03 -9.341796e-03 -5.662757e-02
-3.512874e-02 -1.415078e-02 -2.395259e-02
-3.524932e-02 1.406899e-02 -2.403222e-02
-8.056328e-03 -2.504835e-02 1.391076e-02
2.641858e-02 -1.695620e-02 -3.584656e-02
3.423441e-03 8.547212e-03 2.117387e-02
2.624663e-02 2.426150e-02 -5.962981e-03
-7.328671e-03 -6.227495e-03 2.269102e-02
-3.093609e-04 -8.238383e-04 2.398972e-02
-2.166028e-02 3.543832e-02 -1.783274e-02
-1.919863e-02 2.277335e-02 -3.829205e-02
-3.362862e-02 7.244246e-03 -4.171657e-03
-3.553036e-02 -6.847848e-03 -1.199223e-03
6.608628e-03 -3.452785e-02 -3.737483e-02
2.318754e-02 -8.961582e-03 1.473148e-02
-3.493886e-03 3.149701e-02 9.012995e-03
2.214756e-02 1.178105e-02 1.439547e-02
1.969715e-02 -2.121558e-02 8.266062e-03
2.378179e-03 -2.812304e-02 -3.981165e-02
-8.977254e-03 2.284699e-02 1.344982e-02
-2.090132e-02 -3.381007e-02 -2.056944e-02
4.043345e-02 -4.486856e-03 -1.908826e-02
3.788200e-02 5.642952e-03 -1.884390e-02
-1.016585e-03 -6.140801e-03 -5.835150e-02
-1.608207e-02 3.419610e-02 -1.880665e-03
2.294066e-03 -9.001798e-03 2.273899e-02
2.325628e-03 -7.602471e-03 2.172076e-02
-6.635927e-03 -6.299764e-03 2.182543e-02
1.999426e-02 6.888289e-03 1.501695e-02
2.000592e-02 -6.934997e-03 1.506004e-02
1.859598e-02 -1.359095e-02 -5.246851e-02
2.902899e-02 2.093787e-02 -2.672050e-03
-3.033260e-02 2.828341e-02 -1.082262e-02
-1.410044e-02 -1.701119e-02 1.756677e-02
-2.118297e-02 1.316854e-02 -4.291861e-02
-3.020973e-03 -3.018540e-02 -3.754620e-02
-4.517186e-03 4.080639e-02 -1.847050e-02
2.793428e-03 2.337278e-02 1.634624e-02
2.187049e-02 -1.151690e-02 1.593658e-02
2.184228e-02 1.110013e-02 1.565276e-02
4.881371e-03 2.251698e-02 1.344122e-02
3.869360e-02 1.110029e-02 -1.979340e-02
3.203369e-02 -2.087684e-02 -4.228395e-03
-1.429306e-02 1.731524e-02 1.733577e-02
-6.690392e-03 6.325771e-03 2.348212e-02
-2.560618e-02 -3.049656e-02 -6.825085e-03
-1.920109e-02 -3.425945e-02 -1.747722e-02
1.746858e-02 1.534470e-02 1.359784e-02
-3.682954e-03 -2.103528e-02 1.571379e-02
-7.591423e-03 -2.027651e-03 2.164627e-02
1.747383e-02 7.220631e-03 1.655284e-02
5.708241e-03 6.049183e-03 2.270636e-02
-2.047896e-03 -8.758117e-03 2.265202e-02
3.821249e-03 2.256405e-02 1.376653e-02
1.783031e-02 -1.271581e-02 -5.366722e-02
2.615048e-02 -1.047937e-02 1.221977e-02
2.610485e-02 1.024039e-02 1.199689e-02
-7.406197e-03 -1.816580e-02 1.819404e-02
3.406280e-02 8.122857e-03 -5.432900e-03
1.528312e-02 3.681910e-02 -5.781459e-03
-1.460595e-02 -2.813013e-05 -5.611311e-02
-2.713189e-02 3.067537e-02 -1.207869e-02
-1.278776e-03 -3.561575e-02 3.050199e-03
2.440996e-02 1.866838e-03 1.488634e-02
1.085813e-02 7.231266e-03 1.891728e-02
-9.204284e-03 1.429625e-02 -5.525705e-02
2.662885e-02 1.935751e-02 5.947496e-03
-3.706387e-02 1.374121e-03 -1.164198e-03
-1.900717e-02 6.263882e-03 1.845852e-02
-1.912085e-02 -6.430429e-03 1.863704e-02
1.656522e-03 2.033206e-02 1.598645e-02
1.250414e-02 3.545835e-02 -1.690850e-03
-2.283864e-02 3.279168e-02 -7.431071e-03
-2.620527e-02 -2.177986e-02 6.146482e-03
2.993732e-02 1.094385e-02 7.729386e-03
8.441069e-03 -3.844697e-03 2.211351e-02
4.051429e-02 2.389501e-03 -3.074841e-02
-1.970966e-02 8.916586e-03 1.800768e-02
-2.972375e-03 -6.453788e-03 2.257319e-02
-1.310296e-02 -9.532295e-03 -5.588189e-02
-6.139478e-03 3.262160e-02 -3.603771e-02
-3.120127e-03 -9.201095e-03 -5.398587e-02
-1.738736e-02 3.158634e-02 -3.436505e-02
-3.681774e-03 -3.507197e-02 4.543228e-03
-5.328895e-03 6.973790e-03 2.273844e-02
3.155436e-02 6.961839e-03 -4.365568e-02
3.435014e-03 -8.988965e-03 2.319704e-02
-2.472615e-03 2.628062e-02 -4.420602e-02
1.548742e-02 -2.930286e-02 7.749652e-06
2.689594e-03 8.769649e-03 2.281100e-02
6.792700e-03 2.152170e-02 1.694083e-02
2.884326e-02 2.757334e-02 -2.695066e-02
-6.023571e-03 -2.070660e-03 -5.735306e-02
-3.892923e-02 -3.420691e-03 -1.408639e-02
1.313361e-02 1.425062e-02 1.833495e-02
1.703314e-02 1.008136e-02 1.621484e-02
3.195341e-03 -8.640076e-03 2.152932e-02
1.803429e-02 -1.814921e-02 -4.783134e-02
-2.655953e-02 4.320535e-03 -4.686569e-02
9.137753e-04 -3.918433e-03 -5.861594e-02
1.564358e-02 -1.760055e-02 1.581740e-02
-8.793003e-03 4.849802e-04 2.205673e-02
6.404134e-03 -2.919529e-03 2.049141e-02
-2.370200e-03 3.651536e-02 -2.494523e-02
-6.560023e-03 1.787942e-03 2.253848e-02
-6.710363e-03 -1.800125e-03 2.262877e-02
7.869339e-03 1.755642e-02 1.782244e-02
-2.395946e-02 -7.653259e-03 -5.029979e-02
2.328518e-02 2.000060e-03 -4.468866e-02
-1.584610e-03 2.066283e-02 1.590165e-02
-2.490014e-02 3.057396e-02 -6.689759e-03
3.410449e-03 8.172035e-03 2.289699e-02
2.380845e-02 5.604298e-03 -4.818816e-02
2.499592e-02 -6.143025e-03 -4.699669e-02
-2.265908e-03 8.390303e-03 2.066558e-02
1.266939e-02 -3.815172e-02 -1.511283e-02
-3.158695e-03 2.309765e-02 1.333841e-02
-2.420097e-02 -4.067440e-03 1.448360e-02
2.086052e-02 9.837774e-03 -5.181165e-02
1.824892e-03 5.435414e-04 2.295888e-02
-6.908023e-04 -1.019751e-02 -5.474388e-02
1.839869e-03 5.618820e-03 -5.890884e-02
8.472691e-03 1.779726e-03 2.298341e-02
2.454359e-02 5.188509e-03 1.246140e-02
-7.673395e-03 -5.849161e-03 2.073154e-02
3.674033e-02 4.950975e-03 -9.827070e-03
4.015344e-02 -2.060175e-03 -2.563745e-02
4.004026e-02 2.065755e-03 -2.453303e-02
4.486542e-03 -1.411660e-03 -5.906602e-02
-1.068418e-02 -1.916902e-02 1.660742e-02
-1.842010e-03 -1.313710e-02 -5.121109e-02
7.328986e-03 9.969741e-03 -5.156588e-02
2.441324e-03 4.498809e-03 -5.862455e-02
-2.055689e-04 3.952862e-04 -5.972913e-02
-2.729086e-02 -1.087294e-02 -3.846194e-02
-2.721907e-02 1.101255e-02 -3.860971e-02
-1.695517e-02 2.691855e-02 5.873265e-03
-2.071748e-02 -1.575776e-02 1.490127e-02
-2.151714e-02 1.498276e-02 1.377071e-02
2.067779e-02 2.083366e-02 8.774484e-03
1.204806e-02 -1.553135e-02 1.730829e-02
4.393881e-03 -8.099553e-03 2.217309e-02
-2.584387e-02 -1.296067e-02 1.128487e-02
-1.996662e-02 -3.255176e-02 -2.792415e-02
1.577377e-02 3.172513e-02 3.539249e-03
-1.221980e-02 4.981366e-03 -5.497450e-02
-3.908126e-03 6.215622e-03 2.262825e-02
-2.718888e-02 1.683831e-02 7.414344e-03
-8.058231e-03 -1.854010e-02 1.664922e-02
4.293254e-03 2.799654e-02 -4.383218e-02
3.585589e-02 -1.717321e-03 1.415305e-03
3.545962e-02 1.194939e-03 1.460863e-03
-1.761070e-02 3.389136e-02 -6.673625e-03
-2.495594e-02 1.393844e-02 1.005831e-02
7.871513e-03 1.132306e-03 2.305934e-02
7.692194e-03 -1.265056e-03 2.289625e-02
1.396646e-02 1.070115e-02 -5.524091e-02
-6.029585e-03 -1.276685e-02 -5.794056e-02
-1.813846e-02 -3.117649e-02 2.961397e-03
-2.644928e-02 -8.581609e-03 1.157176e-02
-6.976810e-03 1.793587e-02 -5.482849e-02
-3.659683e-03 -6.181250e-03 2.145345e-02
-1.243583e-03 4.111743e-02 -1.913200e-02
2.624726e-02 -3.170309e-02 -2.368773e-02
-1.521278e-02 -2.341289e-02 -4.508937e-02
-1.460696e-02 -3.278359e-02 -7.915454e-03
-5.023890e-03 -3.799132e-02 -3.234861e-02
1.134471e-02 1.945839e-02 1.503249e-02
-2.203439e-02 -1.411113e-02 1.452814e-02
1.101238e-02 3.988977e-02 -2.056232e-02
3.453769e-02 -1.972495e-02 -1.220605e-02
3.225675e-02 1.994121e-02 -9.878845e-03
1.896603e-02 2.585671e-02 8.743320e-03
-1.171994e-03 -6.824547e-03 2.324189e-02
8.642901e-03 -1.798177e-02 1.755398e-02
-1.810057e-02 2.363529e-02 -4.137130e-02
8.466146e-03 -3.920795e-03 2.297653e-02
8.638720e-03 -2.177489e-03 2.258434e-02
-1.131162e-02 -1.708598e-02 1.536098e-02
-2.538832e-02 2.083681e-02 -3.246939e-02
8.251106e-03 -2.429953e-02 -4.387571e-02
1.668291e-02 1.708577e-04 -4.850544e-02
-6.550011e-03 6.161329e-05 2.025062e-02
-5.222920e-03 -6.547430e-03 2.244800e-02
4.655672e-03 -1.566865e-03 -5.921173e-02
4.697553e-03 1.468211e-03 -5.928300e-02
-1.703339e-04 -1.291167e-02 -5.788576e-02
-5.872591e-03 4.866348e-03 2.272323e-02
-5.287622e-03 -5.432549e-03 2.095117e-02
8.823694e-03 -4.006280e-04 2.310786e-02
8.288360e-03 3.585370e-04 2.341853e-02
-6.088885e-03 4.871610e-03 2.064151e-02
-7.597281e-03 -2.108051e-03 2.286172e-02
-7.549374e-03 -3.794173e-03 2.140243e-02
-6.955461e-03 5.446857e-03 2.266030e-02
7.635020e-03 5.491330e-03 2.129323e-02
1.975040e-02 2.169314e-02 -4.638494e-02
9.166140e-03 -1.591044e-02 -5.495719e-02
8.731254e-03 -3.626029e-02 -1.190341e-02
-8.137528e-03 3.590680e-02 -5.668267e-03
-1.167496e-02 -1.815344e-02 1.801744e-02
7.660026e-03 3.527091e-03 2.274696e-02
2.380547e-02 -1.345704e-03 1.245583e-02
1.299439e-02 1.693473e-02 1.833925e-02
-3.316178e-02 -9.679089e-03 -3.670217e-02
2.716127e-03 -2.445054e-02 1.424526e-02
1.773419e-02 1.801125e-02 1.048216e-02
-1.887426e-02 3.102754e-03 1.869469e-02
-6.075205e-03 2.235062e-03 -6.145659e-02
-1.924165e-02 -3.627089e-03 1.898832e-02
2.457318e-02 -7.975891e-03 -4.912616e-02
-4.865036e-03 5.264280e-03 2.218132e-02
-1.138515e-02 2.089088e-02 1.612421e-02
-1.724825e-02 -1.348131e-02 1.652734e-02
3.374785e-02 -5.321930e-03 4.935681e-03
3.071845e-02 -1.550903e-02 3.670808e-03
4.551340e-03 -3.403339e-03 2.127743e-02
5.915876e-03 4.059364e-03 2.324215e-02
7.832685e-03 1.919412e-02 -5.346669e-02
-1.586469e-02 -9.246903e-03 -5.495268e-02
1.820752e-02 -9.024667e-03 1.742274e-02
1.932769e-02 9.920017e-03 1.734572e-02
-3.388270e-02 2.787233e-03 -3.942799e-02
1.562819e-02 1.723106e-02 1.725422e-02
2.818322e-02 -2.279745e-02 8.160075e-04
-1.456739e-02 -1.907938e-02 1.210818e-02
3.670460e-04 -1.288558e-03 -5.448164e-02
1.611128e-02 -1.477958e-02 1.750644e-02
1.643568e-02 1.470642e-02 1.743134e-02
2.711344e-02 -1.203063e-03 1.275772e-02
-4.735355e-05 8.206400e-04 2.397115e-02
1.557450e-02 -3.470581e-03 1.921510e-02
2.605099e-02 8.578300e-04 1.225707e-02
-7.746195e-03 1.666145e-02 1.657622e-02
5.393907e-03 -2.163840e-02 1.497255e-02
1.183408e-02 -2.096203e-02 1.536033e-02
3.429286e-02 4.260136e-03 -3.659849e-02
3.227277e-02 -5.705772e-03 -3.356819e-02
9.003997e-03 4.519618e-03 -5.452179e-02
6.654339e-03 -3.086025e-02 6.358364e-03
2.766175e-03 3.812353e-02 -9.707919e-03
3.656168e-03 8.118004e-03 2.256596e-02
1.556156e-02 3.491379e-03 1.917410e-02
2.788586e-03 -3.596907e-02 -2.201261e-03
-2.061451e-02 3.852436e-03 1.520060e-02
-1.597220e-02 1.296174e-02 1.846659e-02
-1.140293e-03 7.863757e-03 2.233344e-02
-2.885650e-02 -1.345111e-02 7.291572e-03
2.913714e-04 5.900144e-03 2.295283e-02
-3.684400e-03 7.600052e-03 2.268911e-02
1.834913e-02 1.104883e-02 1.667447e-02
1.794132e-02 -1.148980e-02 1.711244e-02
-4.084535e-02 3.846575e-03 -1.105272e-02
-4.169142e-03 -2.939355e-02 -4.492293e-02
-1.540740e-04 -3.510063e-02 -3.757989e-02
9.681742e-03 -2.736152e-02 -4.448602e-02
-1.501423e-02 -2.930622e-02 -3.404844e-02
-3.327827e-02 2.441313e-02 -1.605579e-02
7.029276e-03 1.983332e-02 1.475797e-02
2.984259e-02 -2.297005e-02 -1.430442e-03
9.098533e-03 1.621158e-02 1.830999e-02
-6.716854e-03 -3.759251e-03 2.239373e-02
7.473984e-03 2.364847e-03 2.076377e-02
7.335897e-03 -2.317810e-03 2.079826e-02
-1.699511e-02 -3.885544e-03 1.968413e-02
-1.698634e-03 6.084358e-04 -5.675734e-02
6.511053e-03 3.685817e-02 -5.234003e-03
-5.911606e-03 1.945699e-02 1.860437e-02
-2.599483e-03 7.470463e-03 2.201246e-02
-2.052069e-02 -1.219168e-05 1.758327e-02
-1.931011e-02 -1.182951e-02 1.790960e-02
-1.826494e-02 1.137927e-02 1.764879e-02
-1.969885e-02 -2.529015e-02 -3.220092e-02
-1.029842e-03 2.261117e-02 1.705807e-02
-3.067203e-02 8.052670e-03 5.972266e-03
-1.653597e-02 4.147562e-03 2.007054e-02
-3.080752e-02 -8.013963e-03 5.786783e-03
2.530697e-03 -9.047932e-03 2.290435e-02