# vtk DataFile Version 2.0
Electric current density generated by TTH
ASCII
DATASET UNSTRUCTURED_GRID
POINTS 5689 double
1.537621e-05 3.231193e-05 -2.018513e-22
-1.349472e-05 -3.139699e-05 -2.491163e-07
-3.134805e-05 -1.360801e-05 -2.491163e-07
2.420000e-05 2.561787e-05 -7.747279e-07
2.420000e-05 -2.561787e-05 -7.747279e-07
2.486937e-05 -2.499111e-05 -7.687479e-07
2.486937e-05 2.499111e-05 -7.687479e-07
3.413545e-05 8.817068e-06 7.691396e-07
-1.802176e-05 2.948549e-05 -7.189091e-07
1.760706e-05 3.043043e-05 8.001622e-07
1.756779e-05 -3.045955e-05 7.987666e-07
1.490791e-05 3.253065e-05 -2.018513e-22
1.671931e-05 -3.099302e-05 7.835823e-07
-1.357810e-05 3.171800e-05 -6.853478e-07
3.216613e-05 -1.143058e-05 -4.204514e-08
3.155189e-05 -1.333019e-05 -4.225349e-07
3.159709e-05 1.322658e-05 -4.250359e-07
2.963103e-05 -1.913778e-05 7.618894e-07
2.963103e-05 1.913778e-05 7.618894e-07
3.409364e-06 -3.403717e-05 -3.364658e-07
-2.901091e-05 -1.812512e-05 -3.364665e-07
-2.477948e-05 -2.358240e-05 -3.364665e-07
1.443649e-05 3.274258e-05 -2.018513e-22
-3.151320e-05 1.330679e-05 -3.364665e-07
-3.314037e-05 8.477539e-06 -3.364665e-07
-2.713086e-05 2.083432e-05 -3.364665e-07
-3.347649e-05 -7.033982e-06 -3.364665e-07
-1.802024e-05 -2.907617e-05 -3.364665e-07
-3.416773e-05 1.648817e-06 -3.364665e-07
2.443385e-05 2.384240e-05 7.423055e-08
2.443385e-05 -2.384240e-05 7.423055e-08
1.356806e-05 -3.248698e-05 7.863341e-07
3.293115e-05 -1.270935e-05 -7.512776e-07
1.396206e-05 3.294768e-05 -2.018513e-22
3.293115e-05 1.270935e-05 -7.512776e-07
7.884385e-07 -3.415259e-05 2.054323e-07
-2.541196e-05 2.283744e-05 2.215377e-07
-1.570486e-05 -3.034440e-05 2.271570e-07
-3.028749e-05 -1.581433e-05 2.271570e-07
3.316354e-05 8.169237e-06 -1.769496e-07
-1.257169e-05 -3.176391e-05 2.038491e-07
-3.171831e-05 -1.268631e-05 2.038491e-07
2.614206e-05 2.364405e-05 -7.719427e-07
2.614206e-05 -2.364405e-05 -7.719427e-07
1.348473e-05 3.314591e-05 -2.018513e-22
-4.128127e-08 -3.421963e-05 -3.624474e-07
-2.489984e-05 2.347303e-05 -3.624474e-07
-1.500083e-05 -3.075647e-05 -3.624474e-07
-3.070210e-05 -1.511179e-05 -3.624474e-07
-1.181988e-05 -3.211371e-05 -3.628999e-07
-3.207082e-05 -1.193577e-05 -3.628999e-07
2.297075e-05 2.525074e-05 1.576264e-08
2.297075e-05 -2.525074e-05 1.576264e-08
2.407791e-05 2.459790e-05 6.235610e-07
2.407791e-05 -2.459790e-05 6.235610e-07
1.300457e-05 3.333722e-05 -2.018513e-22
-1.956218e-05 -2.813045e-05 -4.411485e-07
-2.823922e-05 1.940482e-05 -4.411485e-07
-3.426333e-05 -1.575103e-07 -4.411485e-07
1.922090e-05 2.948924e-05 7.882599e-07
1.922090e-05 -2.948924e-05 7.882599e-07
3.394749e-05 -9.416638e-06 7.788009e-07
2.284851e-05 2.680645e-05 -7.810539e-07
2.284851e-05 -2.680645e-05 -7.810539e-07
1.578472e-05 -3.032369e-05 2.836058e-07
3.542913e-05 -1.033657e-06 6.667276e-07
1.252171e-05 3.352157e-05 -2.018513e-22
3.503541e-05 -1.895123e-06 8.143035e-07
3.542913e-05 1.033657e-06 6.667276e-07
3.503541e-05 1.895123e-06 8.143035e-07
1.563830e-05 3.036969e-05 1.968998e-07
1.500203e-05 3.071900e-05 -2.849701e-07
1.735524e-05 2.946658e-05 3.136976e-07
1.735851e-05 -2.947126e-05 3.271823e-07
1.957828e-05 -2.799723e-05 -2.128178e-07
1.957828e-05 2.799723e-05 -2.128178e-07
3.006550e-05 1.617929e-05 -1.050397e-07
1.203623e-05 3.369893e-05 -2.018513e-22
3.006550e-05 -1.617929e-05 -1.050397e-07
-2.706800e-06 3.448770e-05 7.383698e-07
2.471257e-06 -3.417084e-05 4.354064e-07
-1.722839e-05 -2.961356e-05 4.360378e-07
-2.657994e-05 2.161683e-05 4.360378e-07
-2.954606e-05 -1.734312e-05 4.354062e-07
1.655921e-05 2.994547e-05 -3.610531e-07
1.655878e-05 -2.992581e-05 -3.228916e-07
2.029918e-05 2.875217e-05 7.896072e-07
2.029918e-05 -2.875217e-05 7.896072e-07
1.154824e-05 3.386926e-05 -2.018513e-22
-3.115054e-05 -1.423838e-05 4.193796e-07
-1.412580e-05 -3.120175e-05 4.193796e-07
-1.147355e-05 3.265014e-05 7.449889e-07
4.495198e-07 3.414720e-05 -1.538149e-07
2.288174e-06 3.407378e-05 -1.557145e-07
-8.343877e-06 3.311514e-05 -1.537608e-07
-6.565519e-06 3.351266e-05 -1.515562e-07
1.044600e-05 3.263157e-05 4.397107e-07
5.426405e-06 3.418469e-05 7.474616e-07
3.504500e-05 -3.614202e-06 7.782622e-07
1.105784e-05 3.403253e-05 -2.018513e-22
3.504500e-05 3.614202e-06 7.782622e-07
9.186326e-06 3.401406e-05 -7.776149e-07
-1.344281e-05 3.258651e-05 -7.711910e-07
3.313049e-05 8.919196e-06 -5.069889e-07
3.367088e-05 1.060617e-05 -7.497946e-07
3.315757e-05 -8.156030e-06 -1.296490e-07
3.454368e-05 7.014195e-06 7.718542e-07
3.406176e-05 -3.483558e-06 4.003051e-07
3.406176e-05 3.483558e-06 4.003051e-07
1.629128e-05 -3.132244e-05 -7.479622e-07
1.056513e-05 3.418869e-05 -2.018513e-22
3.366768e-05 -1.056919e-05 -7.560864e-07
1.414443e-05 -3.109684e-05 2.086526e-07
-8.723008e-06 -3.415186e-05 -7.719838e-07
-3.524185e-05 -1.790635e-06 -7.562491e-07
-2.997421e-05 1.862098e-05 -7.562491e-07
-2.665050e-05 -2.312888e-05 -7.562491e-07
-2.146221e-05 -2.801014e-05 -7.562491e-07
-3.374944e-05 1.030385e-05 -7.562491e-07
-3.416411e-05 -8.832195e-06 -7.562491e-07
-3.513120e-05 3.315587e-06 -7.562491e-07
1.007022e-05 3.433773e-05 -2.018513e-22
-5.157393e-06 -3.489105e-05 -7.634473e-07
-3.706286e-06 -3.507082e-05 -7.650790e-07
1.040883e-05 -3.373909e-05 -7.468464e-07
8.988146e-06 -3.410576e-05 -7.634133e-07
3.516843e-05 -3.773011e-06 -7.146388e-07
3.516843e-05 3.773011e-06 -7.146388e-07
-3.405585e-05 2.420504e-06 9.990465e-08
-2.526057e-05 -2.296874e-05 9.990465e-08
-3.287577e-05 9.211031e-06 9.990465e-08
-3.324392e-05 -7.778247e-06 9.990465e-08
9.573213e-06 3.447960e-05 -2.018513e-22
3.222047e-05 -1.463882e-05 -7.029113e-07
3.222047e-05 1.463882e-05 -7.029113e-07
2.731099e-06 3.521122e-05 7.426961e-07
7.184192e-08 3.531691e-05 7.426960e-07
-6.412746e-06 3.472997e-05 7.426606e-07
-9.010066e-06 3.414843e-05 7.426431e-07
3.297786e-05 -1.246487e-05 7.694525e-07
3.359442e-05 6.244188e-06 -2.346617e-07
3.359442e-05 -6.244188e-06 -2.346617e-07
1.578473e-05 3.151981e-05 -7.708345e-07
9.074204e-06 3.461427e-05 -2.018513e-22
-2.015466e-05 2.756749e-05 1.493885e-07
3.208520e-05 1.209422e-05 4.786394e-07
1.861674e-05 -2.877014e-05 4.480514e-07
1.861674e-05 2.877014e-05 4.480514e-07
3.327736e-05 -1.184337e-05 -7.402295e-07
3.352740e-05 -1.100631e-05 7.560567e-07
-3.318132e-05 -1.184631e-05 7.776651e-07
-1.172074e-05 -3.322528e-05 7.778642e-07
-5.333632e-07 -3.522825e-05 7.777694e-07
-1.520346e-05 3.060131e-05 2.351985e-07
8.573303e-06 3.474172e-05 -2.018513e-22
3.095517e-05 -1.692913e-05 7.585336e-07
3.059556e-05 -1.765947e-05 7.381566e-07
3.095517e-05 1.692913e-05 7.585336e-07
3.059556e-05 1.765947e-05 7.381566e-07
1.519353e-05 -3.185249e-05 7.548259e-07
3.475398e-05 6.139171e-06 7.541803e-07
-2.086936e-05 2.850716e-05 7.364401e-07
-3.517616e-05 2.200775e-06 7.732226e-07
-3.438489e-05 -7.738538e-06 7.732226e-07
-3.401738e-05 9.220784e-06 7.732226e-07
8.070613e-06 3.486193e-05 -2.018513e-22
-3.266118e-05 1.324584e-05 7.732226e-07
-2.587496e-05 -2.393098e-05 7.732226e-07
5.893800e-06 -3.476449e-05 7.672832e-07
-3.496640e-05 -4.808972e-06 7.526283e-07
-3.471569e-05 6.375550e-06 7.523021e-07
-3.529753e-05 -7.421185e-07 7.481864e-07
-3.149524e-05 1.593351e-05 7.523021e-07
-2.940978e-05 1.943734e-05 7.703546e-07
-2.064575e-05 -2.857444e-05 7.703546e-07
-2.383464e-05 -2.603338e-05 7.523021e-07
7.566239e-06 3.497486e-05 -2.018513e-22
-2.857758e-05 -2.071592e-05 7.523021e-07
-2.431709e-05 2.396047e-05 6.589625e-08
3.211018e-05 -1.210297e-05 5.137151e-07
3.409724e-05 1.811622e-06 1.257901e-07
3.409724e-05 -1.811622e-06 1.257901e-07
1.428373e-05 3.115499e-05 4.559325e-07
-2.366863e-05 2.628668e-05 -7.135039e-07
-4.464833e-06 3.384265e-05 1.909249e-08
-2.090267e-05 2.698931e-05 4.903496e-08
1.168056e-05 3.341263e-05 6.995458e-07
7.060287e-06 3.508050e-05 -2.018513e-22
4.450153e-06 -3.502314e-05 -7.484632e-07
-1.939032e-05 -2.951722e-05 -7.429575e-07
-3.473084e-05 -6.339738e-06 -7.484649e-07
-2.856841e-05 2.076287e-05 -7.429575e-07
-3.442361e-05 7.838284e-06 -7.484649e-07
-2.943425e-05 -1.949484e-05 -7.484649e-07
-2.633421e-05 2.353226e-05 -7.429071e-07
-2.491910e-05 -2.500924e-05 -7.484649e-07
-3.125950e-05 -1.643476e-05 -7.429071e-07
-3.275876e-05 -1.319552e-05 -7.429066e-07
6.552862e-06 3.517881e-05 -2.018513e-22
-3.214793e-05 1.459228e-05 -7.484649e-07
-3.530803e-05 7.705378e-07 -7.429575e-07
-1.632177e-05 -3.131865e-05 -7.429071e-07
-1.307436e-05 -3.280730e-05 -7.429066e-07
8.952384e-07 -3.530519e-05 -7.429071e-07
-4.576534e-06 3.501996e-05 -7.423314e-07
2.783106e-05 2.177605e-05 -7.322858e-07
2.783106e-05 -2.177605e-05 -7.322858e-07
3.499311e-05 -4.512778e-06 7.581441e-07
3.499311e-05 4.512778e-06 7.581441e-07
6.044070e-06 3.526979e-05 -2.018513e-22
1.218897e-05 -3.301173e-05 -7.912799e-07
7.077366e-06 -3.447374e-05 -7.905202e-07
-1.787736e-06 -3.514730e-05 -7.905166e-07
-3.500092e-05 -3.669334e-06 -7.905166e-07
-2.287289e-05 -2.674620e-05 -7.905166e-07
-3.480911e-05 5.182086e-06 -7.905166e-07
-2.777859e-05 -2.160737e-05 -7.905166e-07
-3.084736e-05 1.694016e-05 -7.905166e-07
-3.305905e-05 1.206763e-05 -7.905166e-07
-3.355077e-05 -1.062422e-05 -7.905166e-07
5.534016e-06 3.535341e-05 -2.018513e-22
-1.050300e-05 -3.358892e-05 -7.905166e-07
5.150769e-06 3.496230e-05 7.313482e-07
-3.166295e-06 3.433898e-05 -6.733532e-07
2.842060e-05 -1.900132e-05 -2.874474e-07
2.842060e-05 1.900132e-05 -2.874474e-07
-1.134103e-05 3.346493e-05 7.340598e-07
3.343091e-05 -7.739116e-06 5.132426e-07
3.326741e-05 -8.848414e-06 -6.262183e-07
-3.177346e-05 -1.557133e-05 7.066323e-07
-1.545649e-05 -3.182948e-05 7.066323e-07
5.022808e-06 3.542965e-05 -2.018513e-22
3.329891e-05 1.192314e-05 -7.152518e-07
4.044726e-06 3.392314e-05 2.120278e-07
-1.337376e-06 3.413711e-05 2.115509e-07
-1.006965e-05 3.264557e-05 2.115675e-07
-3.024715e-05 1.831156e-05 7.214161e-07
-3.520287e-05 -3.457035e-06 7.135102e-07
-2.182686e-05 -2.781710e-05 7.214161e-07
-5.625216e-06 -3.490788e-05 7.214161e-07
1.149363e-05 3.214868e-05 -9.771014e-08
-3.551926e-06 -3.412954e-05 -5.118055e-07
4.510553e-06 3.549850e-05 -2.018513e-22
-8.495435e-06 -3.324559e-05 -5.118055e-07
[...]
POINT_DATA 5689
VECTORS 10.000GHz_fone_imag double
3.454475e+10 -1.810023e+10 3.664749e+08
-4.256985e+10 1.887529e+10 3.222749e+08
-1.887971e+10 4.219434e+10 -7.638797e+08
2.899168e+10 -2.760527e+10 3.989484e+08
-2.898971e+10 -2.759835e+10 -4.000552e+08
-2.837173e+10 -2.806556e+10 -7.138521e+08
2.836341e+10 -2.805487e+10 7.187853e+08
1.090245e+10 -3.975423e+10 5.213182e+08
3.670560e+10 2.293993e+10 2.149084e+08
3.563048e+10 -2.127968e+10 3.623245e+08
-3.563572e+10 -2.022570e+10 1.539257e+09
3.704453e+10 -1.693283e+10 1.321173e+09
-3.704361e+10 -1.930836e+10 -6.017867e+08
4.034988e+10 1.727753e+10 9.316367e+07
-1.625936e+10 -4.355103e+10 -2.625443e+08
-1.677823e+10 -4.131482e+10 -1.534763e+08
1.827689e+10 -4.138802e+10 -4.322618e+08
-2.159038e+10 -3.431075e+10 -3.343660e+08
2.158770e+10 -3.431128e+10 3.353612e+08
-4.323932e+10 -5.158990e+09 9.437161e+08
-2.365561e+10 3.634672e+10 7.706041e+08
-3.131956e+10 3.202224e+10 -1.732087e+08
3.482434e+10 -1.509247e+10 3.492625e+08
1.762680e+10 4.024473e+10 -6.620186e+08
9.795568e+09 4.369721e+10 6.860479e+07
2.649394e+10 3.713072e+10 8.197185e+08
-8.702183e+09 4.399428e+10 -5.110138e+08
-3.762585e+10 2.371884e+10 6.843201e+07
1.676987e+09 4.419063e+10 5.574951e+08
3.095019e+10 -3.266190e+10 -3.581898e+08
-3.094901e+10 -3.266037e+10 3.591766e+08
-3.715268e+10 -1.550637e+10 5.727246e+08
-1.401561e+10 -3.799299e+10 -1.072251e+09
3.505033e+10 -1.500118e+10 3.508632e+08
1.412354e+10 -3.850359e+10 -3.352497e+08
-4.605376e+10 -6.168397e+08 1.000861e+09
3.077811e+10 3.196883e+10 1.031935e+09
-3.931730e+10 2.117307e+10 -7.757669e+08
-2.123430e+10 3.908869e+10 7.585382e+08
1.076203e+10 -4.447169e+10 -5.886403e+08
-4.297231e+10 1.675115e+10 -1.066908e+09
-1.575395e+10 4.105830e+10 1.272783e+09
2.682528e+10 -2.933444e+10 1.623576e+08
-2.682969e+10 -2.934258e+10 -1.597370e+08
3.524444e+10 -1.591051e+10 8.023475e+08
-4.492133e+10 -4.540831e+08 8.886197e+08
2.959228e+10 3.310338e+10 -7.362760e+08
-3.930710e+10 2.015567e+10 -1.122540e+09
-2.064297e+10 3.971291e+10 4.678220e+08
-4.196566e+10 1.599511e+10 -8.718572e+08
-1.627122e+10 4.079848e+10 1.170896e+08
3.414548e+10 -3.127570e+10 6.710401e+08
-3.415273e+10 -3.128191e+10 -6.648438e+08
3.125286e+10 -3.150351e+10 1.814879e+09
-3.125583e+10 -3.150718e+10 -1.813860e+09
3.792120e+10 -1.412814e+10 1.031693e+09
-3.933151e+10 2.650923e+10 1.630593e+08
2.587648e+10 3.673806e+10 2.946469e+08
6.425659e+08 4.586551e+10 4.061681e+08
3.599461e+10 -2.247078e+10 1.264543e+09
-3.566586e+10 -2.277865e+10 -1.435989e+09
-1.087890e+10 -4.038515e+10 -2.384766e+08
3.137345e+10 -2.564766e+10 8.129624e+07
-3.139085e+10 -2.552611e+10 -1.012351e+08
-4.117838e+10 -2.067223e+10 -2.669479e+08
-9.042928e+08 -3.958203e+10 -8.550313e+08
3.620372e+10 -1.285924e+10 -3.842340e+08
-2.085328e+09 -4.155589e+10 -7.064969e+08
9.352628e+08 -3.960860e+10 8.433593e+08
2.003653e+09 -4.170895e+10 6.767728e+08
3.952647e+10 -2.055373e+10 4.931245e+08
4.110482e+10 -1.995340e+10 -5.486872e+08
3.810998e+10 -2.336527e+10 -4.435885e+06
-3.696087e+10 -2.346620e+10 -2.301909e+08
-3.800344e+10 -2.857450e+10 -4.642451e+08
3.801046e+10 -2.858203e+10 4.678641e+08
2.176238e+10 -4.053420e+10 -1.171089e+09
3.517660e+10 -1.335454e+10 -8.076185e+08
-2.173300e+10 -4.045987e+10 1.152733e+09
4.387176e+10 3.399974e+09 5.836998e+08
-4.506213e+10 -4.436837e+09 1.532864e+09
-3.854587e+10 2.201431e+10 -2.729767e+08
2.919171e+10 3.602243e+10 -2.596574e+08
-2.235152e+10 3.847993e+10 1.378799e+09
3.882921e+10 -2.287021e+10 -3.219865e+08
-3.958186e+10 -2.186332e+10 -2.864547e+08
3.347954e+10 -2.358549e+10 -4.341835e+08
-3.346892e+10 -2.355456e+10 4.490411e+08
3.580589e+10 -1.156670e+10 -1.444859e+08
-2.046406e+10 4.398574e+10 7.928730e+08
-4.153862e+10 1.951565e+10 -1.423496e+09
4.088786e+10 1.457002e+10 8.532425e+08
4.832510e+10 -9.115700e+07 5.326136e+08
4.521266e+10 -2.661425e+09 3.405580e+08
4.652581e+10 1.229798e+10 4.276621e+08
4.520762e+10 7.817697e+09 1.535918e+08
4.332192e+10 -1.347255e+10 1.036251e+09
4.289130e+10 -6.589220e+09 -6.412644e+08
-5.145478e+09 -3.969897e+10 3.214315e+08
3.684663e+10 -1.230859e+10 4.017400e+08
3.488920e+09 -4.054655e+10 9.404358e+07
4.019366e+10 -9.905855e+09 1.005639e+08
3.664041e+10 1.511032e+10 1.069400e+08
1.254394e+10 -4.343244e+10 5.951239e+08
1.214116e+10 -3.752205e+10 2.435623e+08
-9.700779e+09 -4.397655e+10 -3.928449e+07
7.983702e+09 -4.041968e+10 -6.567259e+08
-5.404333e+09 -4.689010e+10 -4.185389e+08
5.615026e+09 -4.626554e+10 -2.006568e+08
-3.434655e+10 -1.846473e+10 -1.022198e+09
3.610444e+10 -1.127108e+10 -6.903614e+08
-1.203056e+10 -4.035761e+10 -4.203740e+08
-4.168179e+10 -1.775123e+10 -2.133327e+08
-3.938638e+10 9.738732e+09 -8.832593e+08
-1.325871e+09 3.982435e+10 2.538281e+08
2.052081e+10 3.318685e+10 -5.333141e+08
-2.536882e+10 2.923154e+10 -1.264293e+09
-3.081653e+10 2.382182e+10 5.061219e+08
1.165226e+10 3.815700e+10 -6.292488e+08
-1.034143e+10 4.177257e+10 9.150813e+08
3.521230e+09 3.935475e+10 -7.249829e+08
3.755181e+10 -1.077884e+10 -1.115421e+09
-4.017148e+10 5.507495e+09 -6.972360e+08
-4.001014e+10 3.742650e+09 2.680533e+08
-3.761227e+10 -1.229631e+10 -1.104294e+07
-3.782837e+10 -1.002846e+10 -9.493050e+08
-5.907046e+09 -3.994806e+10 -8.064774e+08
3.831176e+09 -4.072234e+10 4.294122e+08
4.076337e+09 4.507174e+10 -4.402548e+07
-3.156636e+10 3.537435e+10 1.664021e+08
1.236920e+10 4.447700e+10 -1.178696e+09
-1.119340e+10 4.459447e+10 2.498000e+08
3.697857e+10 -9.243942e+09 -8.734550e+08
-1.591787e+10 -3.633962e+10 -3.786066e+08
1.478573e+10 -3.609486e+10 8.597141e+08
3.913113e+10 -3.757904e+09 4.107926e+08
3.948085e+10 8.996153e+08 6.722743e+08
3.925503e+10 6.819777e+09 -2.926833e+08
3.812090e+10 1.108702e+10 6.098302e+08
-1.527550e+10 -3.837471e+10 -3.622674e+08
7.835103e+09 -4.428985e+10 -7.147811e+08
-7.830224e+09 -4.537461e+10 -3.477168e+08
3.858568e+10 -1.903150e+10 -2.929901e+08
3.627681e+10 -1.012054e+10 -3.941079e+08
3.673318e+10 2.809585e+10 1.009415e+09
1.528926e+10 -4.182443e+10 -9.882200e+07
-3.695962e+10 -2.482972e+10 -3.475061e+08
3.711250e+10 -2.560495e+10 -4.720648e+08
-1.318354e+10 -3.723714e+10 -8.784904e+07
-1.280047e+10 -3.846069e+10 -1.856503e+08
-1.280036e+10 3.963655e+10 3.246526e+08
-3.892840e+10 1.346730e+10 2.831441e+08
-4.119263e+10 7.700608e+08 -3.207868e+08
4.045054e+10 1.847371e+10 4.380048e+08
3.734741e+10 -8.201886e+09 -5.252094e+07
-1.941919e+10 -3.530994e+10 1.426916e+09
-2.008154e+10 -3.529272e+10 6.044373e+08
1.936360e+10 -3.527106e+10 -1.424088e+09
2.009946e+10 -3.531141e+10 -6.206110e+08
-3.674413e+10 -1.689418e+10 -1.134342e+09
6.894791e+09 -3.927234e+10 -6.410785e+08
3.244171e+10 2.375323e+10 7.752237e+07
1.598959e+09 4.152244e+10 2.392614e+08
-9.870296e+09 3.997166e+10 -8.289859e+08
1.100295e+10 3.913727e+10 -3.351964e+08
3.771330e+10 -9.748405e+09 -6.891596e+08
1.531927e+10 3.861175e+10 -3.878729e+08
-2.678573e+10 2.860275e+10 3.515484e+08
-3.964152e+10 -7.360759e+09 -9.037856e+07
-5.675338e+09 3.983450e+10 2.263986e+07
6.881216e+09 3.871963e+10 -4.301744e+08
-4.477915e+08 4.094533e+10 -4.096898e+07
1.888395e+10 3.613725e+10 6.916898e+08
2.278298e+10 3.437267e+10 -9.059222e+08
-3.330248e+10 2.408747e+10 9.869479e+08
-3.047430e+10 2.711120e+10 -7.193907e+08
3.885631e+10 -8.149728e+09 2.384291e+08
-2.370949e+10 3.221096e+10 -4.165061e+08
3.293324e+10 3.166169e+10 3.360037e+07
-1.632058e+10 -4.179010e+10 -1.311036e+08
1.488808e+09 -4.587840e+10 8.618294e+08
-1.516611e+09 -4.590278e+10 -9.989872e+08
3.948651e+10 -1.837135e+10 3.752317e+08
2.936645e+10 2.654388e+10 1.126976e+08
4.637970e+10 6.557288e+09 1.679612e+09
3.535359e+10 2.752368e+10 8.691525e+07
3.710220e+10 -1.335116e+10 3.095753e+08
3.790596e+10 -8.155611e+09 4.385740e+08
-4.065297e+10 -4.264290e+09 1.562594e+07
-3.301080e+10 2.147939e+10 4.452998e+08
-6.430079e+09 3.928193e+10 -5.830860e+08
2.344729e+10 3.171619e+10 -2.236558e+07
8.770930e+09 3.840224e+10 7.150276e+08
-2.165705e+10 3.430724e+10 -1.276485e+07
2.672520e+10 2.965881e+10 4.606805e+07
-2.784677e+10 2.768572e+10 7.823815e+08
-1.813776e+10 3.420444e+10 2.450249e+08
-1.646993e+10 3.968954e+10 3.385774e+08
3.802792e+10 -6.990235e+09 1.355795e+09
1.554962e+10 3.628254e+10 6.595051e+06
7.625537e+08 3.916591e+10 -1.167132e+08
-3.410252e+10 1.792236e+10 -2.396523e+08
-3.661741e+10 1.475926e+10 -1.714412e+08
-3.951285e+10 -1.225672e+09 2.093556e+08
3.901175e+10 4.774864e+09 -1.454162e+09
2.725623e+10 -3.192747e+10 9.228599e+08
-2.725435e+10 -3.192457e+10 -9.221283e+08
-5.545496e+09 -3.931661e+10 1.442138e+09
3.762592e+09 -3.921032e+10 -2.172785e+09
3.752544e+10 -5.930787e+09 8.957042e+08
-3.905148e+10 -1.342644e+10 -1.048415e+09
-3.949941e+10 -8.493945e+09 9.853815e+08
-3.979561e+10 1.536751e+09 -9.655682e+08
-3.329538e+09 4.134942e+10 -1.330259e+09
-3.114959e+10 2.767550e+10 1.052907e+09
7.731317e+09 4.070902e+10 8.097518e+08
-2.443403e+10 3.302345e+10 1.639333e+09
1.930756e+10 3.690063e+10 -1.022005e+09
1.360107e+10 3.901922e+10 1.271677e+09
-1.269142e+10 3.840017e+10 -1.666567e+09
3.754182e+10 -6.813723e+09 1.122714e+09
-3.751227e+10 1.125625e+10 2.841902e+08
4.055048e+10 -6.873853e+09 6.324801e+08
4.411730e+10 4.134916e+09 -2.450574e+08
-2.452487e+10 -3.810438e+10 2.151076e+08
2.452699e+10 -3.810719e+10 -2.152502e+08
3.934785e+10 1.363401e+10 -2.619782e+08
-1.098909e+10 -4.367195e+10 6.540450e+07
-1.246029e+10 -4.006807e+10 5.278661e+08
-1.801664e+10 3.677582e+10 -4.591280e+08
-3.667279e+10 1.701547e+10 2.275306e+08
3.979652e+10 -4.038008e+09 9.230256e+08
1.328144e+10 -3.722706e+10 9.078027e+07
4.578998e+10 -6.046580e+09 1.102185e+09
4.554478e+10 2.545349e+09 -7.717483e+08
4.391067e+10 1.427150e+10 -1.081966e+09
2.170782e+10 3.596648e+10 5.733783e+07
-3.863274e+09 3.947739e+10 -3.872071e+08
-3.287952e+10 2.601176e+10 1.081728e+07
-3.964334e+10 6.731557e+09 -1.180670e+09
4.606265e+10 -1.665081e+10 -2.973643e+08
-4.550954e+10 5.623265e+09 5.400838e+08
3.847185e+10 -5.037792e+09 4.800235e+08
-4.450596e+10 1.070495e+10 5.134552e+08
4.038569e+10 2.663910e+09 -9.717170e+08
-4.160642e+10 -1.492762e+10 9.838158e+08
3.998322e+10 5.424922e+09 -1.154460e+08
2.826104e+10 2.731583e+10 -6.473278e+08
4.523244e+10 -5.237253e+09 1.821892e+09
3.304865e+10 -2.238848e+10 -9.894582e+08
-3.307571e+10 -2.238271e+10 9.712155e+08
-4.386136e+10 7.740746e+09 4.673801e+08
4.385191e+10 -7.675276e+09 1.237102e+09
3.821272e+10 -4.630815e+09 9.917455e+08
4.085044e+10 1.606523e+10 -1.558374e+09
4.219607e+10 1.352736e+10 -1.914767e+09
4.551396e+10 -3.864713e+09 -2.289631e+08
4.472126e+10 1.514930e+09 -1.126436e+09
4.274960e+10 1.360371e+10 -1.792115e+09
4.557912e+10 2.372975e+09 -9.665740e+08
-3.539929e+10 -2.687014e+10 -1.983764e+08
3.561977e+10 -2.703545e+10 2.048456e+08
3.345514e+10 2.870148e+10 4.252984e+08
-4.103323e+10 -4.733216e+09 2.853558e+08
3.764367e+10 -2.555828e+09 -8.330264e+06
2.550294e+10 3.294187e+10 -8.927502e+08
-3.422863e+10 2.076583e+10 2.089572e+08
-2.193557e+10 3.344339e+10 1.377716e+09
1.585016e+10 4.286606e+10 -4.693968e+08
-4.517230e+10 3.335286e+09 -1.858683e+08
-1.232008e+10 4.358746e+10 -2.407802e+08
-4.427145e+10 1.420666e+10 8.791926e+08
3.868486e+10 4.697397e+09 -7.458033e+08
4.160119e+10 1.568221e+10 4.315010e+08
4.429990e+10 -8.293067e+09 -6.016663e+08
3.788096e+10 -4.252512e+09 -2.897223e+07
3.575158e+10 -4.831997e+10 -5.168249e+08
-3.573110e+10 -4.829458e+10 5.171471e+08
3.458594e+10 3.126733e+10 -6.112926e+08
-4.279793e+10 -8.104392e+09 1.220141e+09
1.992845e+10 -3.527964e+10 -9.035311e+08
-1.994230e+10 -3.525518e+10 8.866019e+08
-5.188211e+09 4.483125e+10 -9.358385e+08
2.121138e+10 4.135274e+10 1.358843e+08
-3.446717e+10 3.118735e+10 -1.170032e+08
-2.713280e+10 3.612690e+10 -1.146172e+08
4.019812e+10 -3.311425e+09 -9.032543e+07
8.058846e+09 4.600252e+10 -6.422332e+07
4.134352e+10 -1.110946e+10 -2.712414e+08
-2.008868e+10 -3.788824e+10 -1.118436e+09
1.995617e+10 -3.805286e+10 1.072288e+09
1.517737e+10 -3.767441e+10 7.945529e+08
-9.755845e+09 -3.802769e+10 -1.429898e+09
1.013807e+10 -3.767270e+10 7.929852e+08
3.686456e+10 -1.844321e+10 -1.230773e+08
-1.646602e+10 -3.870248e+10 -7.029717e+08
1.674774e+10 -3.731455e+10 -1.135756e+09
3.946087e+10 -1.558486e+09 -3.854267e+08
-3.752472e+10 -1.440685e+10 2.287366e+08
3.742237e+10 2.126876e+10 -2.902799e+08
3.589840e+10 2.073043e+10 3.026363e+08
3.887097e+10 1.721419e+10 -6.138284e+08
2.706231e+10 2.990240e+10 3.634506e+08
-8.338898e+09 -4.023435e+10 7.238429e+07
1.996429e+10 3.957122e+10 9.254540e+08
8.861012e+09 4.404666e+10 -1.522623e+09
-4.923646e+09 4.386154e+10 -5.020309e+08
-2.619039e+10 3.590454e+10 -7.942878e+08
4.001776e+10 -1.250139e+09 6.063877e+08
-3.260445e+10 2.992565e+10 -9.374231e+08
-4.346662e+10 -8.437859e+09 2.337058e+08
-7.676786e+09 -4.226546e+10 -9.726669e+08
7.505288e+09 -4.148359e+10 1.055485e+09
-3.716508e+10 1.286946e+10 3.920827e+08
-3.946850e+10 2.618764e+09 -1.626147e+09
3.837890e+09 3.943316e+10 -4.271949e+08
-2.543243e+10 3.010915e+10 -1.783393e+09
-2.050708e+10 -3.903272e+10 5.181364e+08
2.082372e+10 -3.946639e+10 -6.272702e+08
3.806026e+10 -1.050604e+09 2.409776e+08
3.316975e+10 2.355130e+10 1.191953e+08
-3.753254e+10 -1.246142e+10 5.539658e+08
-1.023602e+10 3.796860e+10 -1.390504e+06
1.357515e+10 3.767078e+10 4.073344e+08
3.306728e+10 3.416654e+10 -1.062824e+09
-5.909379e+09 -4.548654e+10 -1.218735e+09
-6.752067e+09 -4.353702e+10 9.155714e+08
6.491922e+09 -4.728597e+10 -8.926638e+08
6.218905e+09 -4.290303e+10 -8.172264e+08
3.967432e+10 1.862203e+10 -8.832105e+08
3.744325e+10 -5.307837e+08 1.942349e+08
3.694329e+10 -1.590993e+10 1.992292e+08
-4.455096e+10 4.642330e+09 4.003488e+08
-4.360160e+10 1.232514e+10 -3.845022e+08
-3.898031e+10 -2.040627e+10 2.474177e+08
-1.501557e+10 -4.081648e+10 8.736228e+08
7.065279e+09 -4.289334e+10 9.031498e+08
3.827374e+10 -7.881720e+09 1.363213e+08
3.713188e+10 -8.406510e+09 -3.820040e+08
3.802805e+10 -9.608149e+09 -2.208174e+08
-1.359160e+10 -4.282229e+10 -2.819587e+08
3.859580e+10 9.810193e+08 -5.788434e+08
3.250287e+10 2.389364e+10 7.790648e+07
1.442843e+10 -4.221430e+10 -1.129376e+09
-2.487319e+10 -3.516947e+10 2.302418e+08
2.487019e+10 -3.516455e+10 -2.339009e+08
-8.599758e+09 -4.027878e+10 -4.920756e+07
2.181656e+10 -3.762840e+10 9.133988e+08
-2.183823e+10 -3.764001e+10 -9.194110e+08
3.056220e+10 2.575973e+10 -7.702620e+08
-1.329025e+10 -4.197628e+10 8.402396e+08
2.345038e+10 -3.267959e+10 7.721623e+08
3.809822e+10 -4.796567e+08 -7.954816e+08
-2.345974e+10 -3.268794e+10 -7.743209e+08
3.743202e+10 2.215882e+10 3.858557e+08
3.299158e+10 2.835127e+10 -2.944621e+08
3.428809e+10 -1.810264e+10 2.911400e+08
1.387184e+10 -3.779317e+10 5.080020e+08
4.181555e+10 7.866301e+09 -4.020229e+07
-1.697023e+10 -4.227877e+10 -1.393301e+09
-4.090817e+10 -1.155029e+10 6.792546e+08
3.131736e+10 -2.403101e+10 -4.852520e+08
-3.139196e+10 -2.392568e+10 -2.123020e+08
3.804954e+10 1.774150e+09 -1.008407e+09
-2.985988e+10 -2.834969e+10 1.063542e+09
2.985677e+10 -2.834940e+10 -1.063452e+09
3.992145e+10 1.971721e+10 1.153133e+08
5.099275e+09 -4.230797e+10 -5.885410e+07
-5.692057e+09 -3.991398e+10 -4.528867e+08
4.264219e+10 -1.054147e+10 -4.614914e+07
1.433740e+10 -4.113577e+10 -3.708984e+08
3.941580e+10 -2.001955e+10 8.105608e+08
3.896158e+10 -1.912568e+10 2.633961e+08
-2.732543e+09 -3.948546e+10 1.133490e+08
3.829701e+10 1.529606e+09 -9.485378e+07
2.430702e+09 -3.935263e+10 -3.382903e+08
2.502763e+10 -3.284843e+10 4.683340e+08
-2.503052e+10 -3.285082e+10 -4.680230e+08
-3.595898e+10 -1.479180e+10 -7.198983e+08
-4.253446e+10 8.146180e+09 -8.686513e+08
3.586473e+10 2.515730e+10 5.055906e+07
4.197365e+10 -1.573037e+10 -1.247400e+09
4.457890e+10 7.290137e+09 1.418371e+08
3.326467e+10 -2.817405e+10 3.954483e+07
-3.337748e+10 -2.815807e+10 2.842921e+06
3.975788e+10 2.253516e+09 -9.458589e+08
3.452698e+10 -1.917189e+10 1.186704e+09
-3.564340e+10 -1.954729e+10 -1.319161e+09
1.632284e+10 -4.188774e+10 2.793931e+08
1.449031e+09 -4.214617e+10 1.005993e+09
-1.420346e+09 -4.216271e+10 -1.018151e+09
2.836482e+10 -3.209904e+10 4.367803e+08
-2.835379e+10 -3.208993e+10 -4.414839e+08
4.759666e+10 7.081777e+09 -4.156261e+08
3.953913e+10 1.108203e+10 2.830917e+08
3.749503e+10 1.012597e+10 -3.184651e+08
3.821760e+10 3.439018e+09 -6.138872e+08
4.051400e+10 -4.208089e+09 2.679584e+08
4.303936e+10 -3.876232e+09 -4.665257e+08
4.092564e+10 6.694929e+08 3.428968e+08
3.870017e+10 2.014876e+08 -2.727340e+08
-3.556083e+10 -1.646579e+10 9.589339e+08
-1.569434e+10 3.694471e+10 -2.159666e+08
-3.899965e+10 1.678678e+10 8.245970e+08
-2.786354e+10 -3.394970e+10 -3.094565e+08
2.785576e+10 -3.394823e+10 3.056262e+08
-1.338172e+10 -3.600937e+10 4.025082e+08
3.772364e+10 3.056915e+09 -2.891848e+08
-3.589316e+10 2.057560e+10 8.490865e+08
2.582902e+10 3.048606e+10 -2.112795e+08
-2.033396e+10 3.580837e+10 -6.318985e+08
-4.153163e+10 -2.479305e+09 -2.294039e+08
-3.210103e+10 -3.013940e+10 1.712642e+09
3.209807e+10 -3.014130e+10 -1.710636e+09
3.453427e+10 1.653212e+10 8.591193e+08
-3.937151e+10 -5.606893e+09 4.735017e+07
-2.332377e+10 3.301402e+10 -3.788697e+08
-2.842385e+10 2.623149e+10 -8.538243e+08
3.902551e+10 3.156547e+09 -8.612322e+08
2.267328e+10 3.231922e+10 1.115404e+09
1.730586e+10 3.522499e+10 -2.207155e+08
-5.698324e+09 3.897467e+10 -1.151350e+08
-3.239230e+10 2.281361e+10 -1.545794e+09
2.967285e+08 3.933914e+10 9.459363e+08
7.321648e+09 3.836223e+10 -7.813321e+08
-3.189439e+10 -3.019987e+10 -6.611892e+08
3.191800e+10 -3.021988e+10 6.558223e+08
4.015862e+10 2.383080e+09 4.216388e+08
3.270696e+10 2.231807e+10 7.377245e+08
3.811514e+10 4.577535e+09 -6.914907e+08
3.437998e+10 -2.849022e+10 9.738259e+07
-3.405537e+10 -2.817109e+10 -8.265770e+07
3.638866e+10 -1.469109e+10 -5.238143e+06
2.622351e+10 3.580924e+10 8.017844e+08
-3.751360e+10 2.342095e+10 -8.647213e+08
9.153445e+08 4.560423e+10 3.788694e+08
2.936484e+10 -3.244624e+10 -1.308594e+08
-2.936516e+10 -3.244838e+10 1.307726e+08
-2.104335e+10 -3.465972e+10 6.910639e+08
2.104120e+10 -3.466311e+10 -6.929368e+08
3.833665e+10 5.085240e+09 -5.325920e+08
2.843023e+10 2.909553e+10 1.720049e+09
-3.678303e+10 -9.954003e+09 1.299835e+09
-3.855262e+10 4.790346e+09 1.038373e+09
-1.057111e+09 3.922446e+10 -3.256384e+08
-2.675396e+10 2.890002e+10 1.071467e+09
-3.151457e+10 2.346708e+10 1.007276e+09
2.119415e+10 3.301095e+10 -1.095698e+09
1.230466e+10 3.842822e+10 4.314779e+07
-9.197563e+09 3.880353e+10 -1.986483e+07
2.794816e+09 3.893399e+10 4.027981e+08
3.716580e+10 5.784527e+09 5.816695e+08
-3.772082e+10 9.426823e+09 6.017067e+08
-4.226083e+10 -1.601321e+10 4.936067e+07
-3.733331e+10 -1.247761e+10 1.263712e+08
-3.676121e+10 -2.379445e+10 -4.251833e+07
3.670468e+10 -2.377425e+10 -1.264474e+08
3.856046e+10 1.160742e+10 -1.006231e+09
3.565187e+10 -1.831657e+10 1.250393e+09
4.140763e+10 9.491680e+09 -5.003867e+08
-3.911818e+10 3.227150e+09 -7.779577e+07
-3.947748e+10 1.090630e+10 5.976400e+08
3.638266e+10 6.541234e+09 -5.577618e+08
-1.137981e+10 3.772556e+10 1.325599e+08
1.235003e+10 3.600784e+10 -1.860201e+08
-2.227713e+09 4.025716e+10 -7.002901e+08
2.018193e+10 3.483325e+10 -4.027144e+07
-2.524763e+10 3.130475e+10 -4.239475e+07
4.866424e+09 3.861180e+10 2.387067e+08
-3.119617e+10 2.534045e+10 1.124597e+08
-3.868168e+10 -9.512882e+09 3.739629e+08
4.374359e+10 -2.159074e+09 -6.661269e+08
4.000756e+10 -5.045904e+09 7.884770e+08
3.802024e+10 5.471964e+09 -5.570158e+08
3.379883e+10 2.730198e+10 4.468549e+08
2.313430e+10 -3.205373e+10 1.308324e+09
2.438923e+10 -3.430676e+10 -2.678791e+08
-2.313625e+10 -3.205363e+10 -1.302516e+09
-2.439130e+10 -3.430609e+10 2.689844e+08
-7.377196e+09 -3.908427e+10 -3.844215e+07
7.364203e+09 -3.815123e+10 3.414742e+08
3.684762e+10 2.707675e+10 -1.271581e+09
2.706136e+10 -2.897968e+10 -7.966691e+08
-2.706511e+10 -2.898322e+10 7.959366e+08
3.939933e+10 6.777308e+09 -5.775513e+08
4.130858e+10 7.085027e+09 1.126492e+08
4.254185e+10 -2.897236e+09 -1.453323e+08
-3.054491e+10 -2.470132e+10 -1.010678e+08
-3.047133e+10 -2.442889e+10 -1.132738e+08
3.069656e+10 -2.505258e+10 2.489936e+08
3.004836e+10 -2.430211e+10 2.802396e+08
-3.660825e+10 2.649401e+10 6.462008e+08