# vtk DataFile Version 2.0
Electric current density generated by TTH
ASCII
DATASET UNSTRUCTURED_GRID
POINTS 8107 double
3.892261e-05 -9.533291e-21 -1.508962e-22
3.876691e-05 3.477985e-06 -1.508962e-22
2.154374e-05 3.241662e-05 -1.508962e-22
-6.687284e-06 -3.753040e-05 5.876466e-07
3.768200e-05 -3.487470e-06 4.058646e-07
3.768200e-05 3.487470e-06 -4.058646e-07
2.499532e-05 2.874024e-05 -5.763747e-07
2.611902e-05 2.745450e-05 4.575384e-07
2.356604e-05 2.967510e-05 4.577490e-07
-9.138573e-06 -3.678538e-05 -4.659881e-07
2.931490e-05 2.473640e-05 -6.140165e-07
1.467902e-05 -3.503639e-05 -5.268170e-07
3.792500e-05 5.188062e-06 6.154294e-07
2.122041e-05 3.262919e-05 -1.508962e-22
3.742932e-05 6.008387e-06 4.702461e-07
3.792500e-05 -5.188062e-06 -6.154294e-07
3.742932e-05 -6.008387e-06 -4.702461e-07
2.042594e-05 3.202802e-05 5.267482e-07
7.816780e-06 -3.704481e-05 -4.250142e-07
-2.601758e-06 -3.777103e-05 -4.250165e-07
2.341919e-05 -2.974843e-05 -4.251225e-07
2.621193e-05 -2.732006e-05 -4.254494e-07
-1.740860e-05 -3.398469e-05 -6.037744e-07
-1.663644e-05 -3.447577e-05 -6.155039e-07
2.089497e-05 3.283854e-05 -1.508962e-22
3.565932e-05 1.290280e-05 4.812507e-07
3.622864e-05 1.201770e-05 6.007323e-07
3.565932e-05 -1.290280e-05 -4.812507e-07
3.622864e-05 -1.201770e-05 -6.007323e-07
2.854668e-05 -2.488301e-05 -4.339399e-07
-3.421092e-05 -1.588140e-05 1.803648e-07
-2.763721e-05 2.566691e-05 1.803648e-07
-3.273583e-05 -1.873422e-05 1.803648e-07
-5.338082e-06 3.733779e-05 1.803648e-07
-3.235688e-05 1.938138e-05 1.803648e-07
2.056747e-05 3.304465e-05 -1.508962e-22
-3.608339e-05 -1.098155e-05 1.803648e-07
-3.132612e-05 -2.100617e-05 1.794509e-07
-3.523244e-05 -1.346407e-05 1.803648e-07
-3.702643e-05 7.186739e-06 1.803648e-07
-3.771058e-05 -6.091809e-07 1.738999e-07
-3.019504e-05 -2.259961e-05 1.749491e-07
-3.360919e-05 1.711397e-05 1.741804e-07
-2.762630e-06 3.761427e-05 1.741804e-07
7.679667e-06 3.692544e-05 1.741704e-07
-3.382807e-06 3.779267e-05 -4.979497e-07
2.023794e-05 3.324749e-05 -1.508962e-22
-3.353349e-05 1.775484e-05 -4.979497e-07
-3.794376e-05 -7.741955e-09 -4.979497e-07
-3.077944e-05 -2.220834e-05 -5.059693e-07
7.132379e-06 3.726740e-05 -4.979536e-07
-1.249371e-05 -3.575458e-05 -4.392673e-07
3.524956e-05 -1.466191e-05 6.023651e-07
3.524956e-05 1.466191e-05 -6.023651e-07
3.736195e-05 -7.716460e-06 -5.959897e-07
3.736195e-05 7.716460e-06 5.959897e-07
3.756044e-05 -6.955395e-06 -6.066252e-07
1.990641e-05 3.344705e-05 -1.508962e-22
3.756044e-05 6.955395e-06 6.066252e-07
-3.645214e-05 -1.044945e-05 -4.799805e-07
-3.568742e-05 -1.283328e-05 -4.835077e-07
-3.710320e-05 7.829552e-06 -4.799805e-07
-2.736271e-05 2.625322e-05 -4.799805e-07
-3.220986e-05 2.001185e-05 -4.799805e-07
-5.976287e-06 3.744641e-05 -4.799805e-07
-3.253593e-05 -1.948585e-05 -4.835077e-07
-3.470866e-05 -1.528378e-05 -4.835077e-07
9.839124e-06 -3.683973e-05 -5.905471e-07
1.957290e-05 3.364329e-05 -1.508962e-22
2.196532e-05 -3.116887e-05 -5.905479e-07
-4.632975e-06 -3.784852e-05 -5.905519e-07
2.781932e-05 -2.608252e-05 -5.914694e-07
3.354430e-05 1.850242e-05 -6.160764e-07
3.398269e-05 1.729125e-05 -5.899074e-07
3.354430e-05 -1.850242e-05 6.160764e-07
3.398269e-05 -1.729125e-05 5.899074e-07
3.108669e-05 2.225692e-05 -6.116609e-07
3.108669e-05 -2.225692e-05 6.116609e-07
-3.535447e-05 -1.480277e-05 -6.156947e-07
1.923747e-05 3.383622e-05 -1.508962e-22
-2.703152e-05 2.716512e-05 -6.158622e-07
-3.251678e-05 -2.029088e-05 -6.156947e-07
-3.207487e-05 2.097259e-05 -6.158622e-07
-6.914336e-06 3.769401e-05 -6.158622e-07
-3.730389e-05 8.778745e-06 -6.158622e-07
-3.629822e-05 -1.230853e-05 -6.156947e-07
-3.707381e-05 -9.704622e-06 -6.158622e-07
9.436032e-06 -3.673369e-05 4.847268e-07
2.215222e-05 -3.077985e-05 4.817856e-07
-4.286045e-06 -3.767395e-05 4.772830e-07
1.890013e-05 3.402580e-05 -1.508962e-22
2.741824e-05 -2.621115e-05 4.886299e-07
3.534096e-05 1.438910e-05 5.978960e-07
3.534096e-05 -1.438910e-05 -5.978960e-07
3.588458e-05 1.311350e-05 -6.077545e-07
3.588458e-05 -1.311350e-05 6.077545e-07
-3.833293e-05 8.236293e-07 -6.150716e-07
-3.155708e-05 -2.177884e-05 -6.150147e-07
-3.348821e-05 1.867167e-05 -6.150716e-07
-4.245627e-06 3.810599e-05 -6.150716e-07
6.388867e-06 3.780574e-05 -6.150716e-07
1.856093e-05 3.421201e-05 -1.508962e-22
-4.548517e-06 3.741534e-05 -2.073399e-08
-3.581916e-05 -1.172962e-05 -2.073399e-08
-3.491683e-05 -1.419195e-05 -2.073399e-08
-2.814374e-05 2.507183e-05 3.970619e-08
-3.176537e-05 -2.028688e-05 -2.073399e-08
-3.384546e-05 -1.658558e-05 -2.073399e-08
-3.317183e-05 -1.789444e-05 -1.336833e-08
-3.273415e-05 1.868346e-05 -2.073399e-08
-3.714311e-05 6.402002e-06 -2.073399e-08
1.110409e-05 3.601904e-05 4.082751e-08
3.873042e-05 3.863217e-06 -1.508962e-22
1.821989e-05 3.439485e-05 -1.508962e-22
7.238051e-07 3.768760e-05 7.092467e-08
-1.795276e-05 3.314480e-05 7.092467e-08
-2.796275e-05 -2.527773e-05 7.092467e-08
-3.502699e-05 1.392800e-05 7.092467e-08
-3.747216e-05 -4.088538e-06 7.092467e-08
3.806773e-05 -2.446169e-06 5.948641e-07
3.806773e-05 2.446169e-06 -5.948641e-07
2.183669e-05 3.125424e-05 -5.893428e-07
2.271133e-05 3.063152e-05 -5.910161e-07
1.320253e-05 -3.576910e-05 5.896098e-07
1.787705e-05 3.457428e-05 -1.508962e-22
2.937335e-05 -2.478572e-05 -6.028775e-07
2.940274e-05 2.475689e-05 6.020464e-07
2.836474e-05 2.593391e-05 6.028775e-07
3.862203e-05 8.282863e-07 -5.237679e-07
3.862203e-05 -8.282863e-07 5.237679e-07
2.329745e-05 -3.057106e-05 -6.022258e-07
8.526303e-06 -3.747884e-05 -6.022252e-07
-3.244203e-06 -3.829930e-05 -6.022251e-07
2.704330e-05 -2.731350e-05 -6.022069e-07
2.244810e-05 3.111780e-05 6.128325e-07
1.753244e-05 3.475030e-05 -1.508962e-22
2.517863e-05 2.895183e-05 6.129160e-07
3.031529e-05 -2.341134e-05 6.160694e-07
3.031944e-05 2.341012e-05 -6.160793e-07
2.057302e-05 3.224592e-05 -6.134643e-07
1.477491e-05 -3.527833e-05 6.132300e-07
3.731652e-05 8.614575e-06 -6.160207e-07
3.731652e-05 -8.614575e-06 6.160207e-07
-2.197878e-05 -3.062532e-05 8.138361e-08
2.120056e-05 -3.152431e-05 -5.285900e-07
3.458545e-05 1.596496e-05 -5.776822e-07
1.718610e-05 3.492288e-05 -1.508962e-22
3.458545e-05 -1.596496e-05 5.776822e-07
3.407467e-05 -1.739112e-05 -6.140183e-07
3.472936e-05 -1.604409e-05 -6.140256e-07
3.407467e-05 1.739112e-05 6.140183e-07
3.472936e-05 1.604409e-05 6.140256e-07
1.253015e-05 -3.631558e-05 6.061892e-07
1.574784e-05 3.496210e-05 -6.148751e-07
-2.406950e-05 -2.963888e-05 -6.031973e-07
-2.908404e-05 2.466492e-05 -5.915725e-07
-1.180107e-05 3.631169e-05 -6.031973e-07
1.683807e-05 3.509201e-05 -1.508962e-22
-2.311050e-05 3.039258e-05 -6.031973e-07
-3.772529e-05 5.571528e-06 -5.915725e-07
3.692139e-05 1.035349e-05 6.148414e-07
3.692139e-05 -1.035349e-05 -6.148414e-07
2.729899e-05 2.692270e-05 -6.150903e-07
-2.324151e-05 -2.982316e-05 -3.645752e-07
-1.096220e-05 3.618590e-05 -3.645752e-07
-2.348525e-05 2.963160e-05 -3.645752e-07
1.467943e-05 3.543928e-05 6.138246e-07
1.518824e-05 3.468434e-05 4.286726e-07
1.648836e-05 3.525768e-05 -1.508962e-22
1.595700e-05 3.485752e-05 6.153606e-07
-1.642365e-05 -3.466915e-05 6.135274e-07
-1.503234e-05 -3.529468e-05 6.135274e-07
1.685522e-05 3.371280e-05 -3.638574e-08
1.706876e-05 3.413003e-05 -5.984507e-07
3.580034e-05 1.395150e-05 -6.050173e-07
3.580034e-05 -1.395150e-05 6.050173e-07
-2.869878e-05 -2.443290e-05 1.633317e-08
-1.695791e-05 3.366030e-05 1.633317e-08
-3.459397e-05 1.496142e-05 1.633317e-08
1.613703e-05 3.541985e-05 -1.508962e-22
-3.757326e-05 -2.972632e-06 1.633317e-08
-3.966707e-07 3.768858e-05 1.633317e-08
9.957881e-06 3.635253e-05 3.950770e-08
2.790385e-05 2.598436e-05 -5.899121e-07
2.853931e-05 2.533799e-05 -5.994118e-07
3.040769e-05 2.266550e-05 4.842086e-07
3.040769e-05 -2.266550e-05 -4.842086e-07
-1.746135e-05 -3.418576e-05 6.107979e-07
1.597106e-05 -3.415234e-05 -1.198302e-07
3.208640e-05 -2.109509e-05 6.089890e-07
1.578411e-05 3.557853e-05 -1.508962e-22
3.208640e-05 2.109509e-05 -6.089890e-07
-3.656386e-05 -9.292054e-06 -2.065090e-07
-3.672513e-05 -8.548916e-06 1.419213e-07
-3.666014e-05 8.904612e-06 -2.065090e-07
-3.645479e-05 9.636796e-06 1.419213e-07
-2.641848e-05 2.693180e-05 -2.065090e-07
-2.585724e-05 2.744490e-05 1.419213e-07
-3.142678e-05 2.087140e-05 -2.065090e-07
-3.098418e-05 2.148954e-05 1.419387e-07
-7.072034e-06 3.705731e-05 -2.065090e-07
1.542962e-05 3.573369e-05 -1.508962e-22
-7.813517e-06 3.688860e-05 1.419213e-07
5.991160e-06 3.724937e-05 -2.120701e-07
5.235398e-06 3.734041e-05 1.359664e-07
-3.771038e-05 1.044706e-06 -2.029856e-07
3.479568e-05 1.448595e-05 1.414237e-08
3.479568e-05 -1.448595e-05 -1.414237e-08
3.151517e-05 -2.209311e-05 -5.888059e-07
3.151517e-05 2.209311e-05 5.888059e-07
-2.415663e-05 -2.897524e-05 -2.008163e-07
-2.476107e-05 -2.847282e-05 2.260782e-07
1.507361e-05 3.588532e-05 -1.508962e-22
-1.209872e-05 3.571384e-05 -1.440165e-07
-1.290247e-05 3.545263e-05 2.103769e-07
-2.908312e-05 2.400520e-05 -1.556606e-07
-2.968779e-05 2.328087e-05 2.104037e-07
-2.244507e-05 3.032040e-05 -2.008163e-07
-2.181402e-05 3.078896e-05 2.260782e-07
-3.739081e-05 4.904268e-06 -1.580357e-07
-3.750794e-05 4.119045e-06 2.260782e-07
-1.184530e-05 3.657978e-05 5.991774e-07
-3.844294e-05 5.339993e-07 5.999362e-07
3.869010e-05 4.248068e-06 -1.508962e-22
1.471610e-05 3.603340e-05 -1.508962e-22
-2.938593e-05 2.479634e-05 5.991774e-07
-2.360845e-05 3.034852e-05 5.991774e-07
2.138267e-05 3.195016e-05 -6.002781e-07
1.406514e-05 -3.578048e-05 6.001598e-07
2.480840e-05 -2.860856e-05 4.316597e-07
-6.994630e-07 -3.786054e-05 4.316991e-07
6.050799e-06 -3.738044e-05 4.316994e-07
-5.732731e-06 -3.790499e-05 6.153730e-07
3.835230e-05 2.481834e-06 6.030608e-07
3.835230e-05 -2.481834e-06 -6.030608e-07
1.435715e-05 3.617792e-05 -1.508962e-22
-2.888993e-05 2.537817e-05 -5.982688e-07
-3.793739e-05 6.279633e-06 -5.982688e-07
-3.387747e-05 -1.816205e-05 -6.017109e-07
-3.413523e-05 -1.719766e-05 -6.103471e-07
3.224847e-05 1.951185e-05 4.165191e-08
3.224847e-05 -1.951185e-05 -4.165191e-08
3.458675e-05 1.680066e-05 -5.988218e-07
3.458675e-05 -1.680066e-05 5.988218e-07
[...]
POINT_DATA 8107
VECTORS 10.000GHz_fone_imag double
1.728422e-05 -8.335846e-05 2.160774e-02
-3.652167e-04 2.059078e-04 2.125918e-02
-2.296120e-04 -3.210207e-04 2.123799e-02
3.905364e-03 2.152473e-02 -7.337231e-03
-1.543107e-02 1.380560e-03 -1.826076e-02
1.534518e-02 1.340193e-03 -1.832450e-02
1.400923e-02 1.628478e-02 -9.254914e-03
-1.188226e-02 -1.232671e-02 -1.640428e-02
-1.065503e-02 -1.351254e-02 -1.641849e-02
-4.015686e-03 -1.693278e-02 -1.607566e-02
1.735887e-02 1.492852e-02 1.206971e-03
7.461603e-03 -1.857131e-02 -1.276927e-02
-2.259456e-02 -3.210257e-03 -2.249629e-03
-8.017121e-05 -4.395535e-04 2.130534e-02
-1.785147e-02 -3.000237e-03 -1.573362e-02
2.272355e-02 -3.067070e-03 -1.941954e-03
1.761686e-02 -2.725125e-03 -1.575990e-02
-1.062891e-02 -1.655118e-02 -1.309021e-02
3.526347e-03 -1.548052e-02 -1.771843e-02
-1.246423e-03 -1.592941e-02 -1.759832e-02
9.741302e-03 -1.267462e-02 -1.759330e-02
1.118482e-02 -1.140848e-02 -1.760056e-02
-1.018334e-02 -2.017582e-02 -5.174748e-03
-1.011967e-02 -2.056659e-02 -1.204093e-03
-8.605592e-06 -2.246436e-04 2.142056e-02
-1.705066e-02 -6.026853e-03 -1.524404e-02
-2.111452e-02 -7.148084e-03 -5.837563e-03
1.699821e-02 -6.237385e-03 -1.527040e-02
2.118848e-02 -7.184859e-03 -5.639252e-03
1.269555e-02 -1.074545e-02 -1.739218e-02
6.249371e-03 3.125510e-03 -2.328078e-02
5.316292e-03 -4.678229e-03 -2.324320e-02
6.083322e-03 3.343686e-03 -2.325730e-02
8.178889e-04 -6.991464e-03 -2.330770e-02
6.049456e-03 -3.406839e-03 -2.326700e-02
6.497542e-05 4.575960e-05 2.133089e-02
6.579005e-03 2.184563e-03 -2.327045e-02
5.426076e-03 3.775076e-03 -2.320331e-02
6.402962e-03 2.680736e-03 -2.332988e-02
6.878569e-03 -1.193002e-03 -2.325123e-02
6.630447e-03 2.522185e-04 -2.317761e-02
5.289372e-03 4.156613e-03 -2.321629e-02
6.001469e-03 -2.877339e-03 -2.318506e-02
3.196393e-04 -6.632508e-03 -2.318452e-02
-1.617095e-03 -6.105242e-03 -2.319274e-02
-1.694629e-03 1.869991e-02 -1.415710e-02
2.634419e-04 1.816347e-04 2.136100e-02
-1.655064e-02 8.783477e-03 -1.418849e-02
-1.884612e-02 1.360846e-06 -1.401021e-02
-1.533978e-02 -1.123183e-02 -1.372500e-02
3.612695e-03 1.834586e-02 -1.415115e-02
-5.356887e-03 -1.560818e-02 -1.733436e-02
-2.063795e-02 8.695105e-03 -5.802810e-03
2.077744e-02 8.745569e-03 -5.369201e-03
2.184013e-02 -4.185990e-03 -6.623063e-03
-2.188582e-02 -4.392135e-03 -6.447608e-03
2.208618e-02 -3.938674e-03 -4.463678e-03
-2.511460e-04 2.423697e-04 2.131917e-02
-2.203955e-02 -3.765421e-03 -4.504869e-03
-1.752806e-02 -5.049114e-03 -1.479896e-02
-1.733264e-02 -6.273375e-03 -1.465597e-02
-1.781252e-02 3.742362e-03 -1.488121e-02
-1.327039e-02 1.257799e-02 -1.490010e-02
-1.555470e-02 9.526021e-03 -1.486050e-02
-2.757562e-03 1.806737e-02 -1.487094e-02
-1.584984e-02 -9.534841e-03 -1.470579e-02
-1.688310e-02 -7.460376e-03 -1.468792e-02
5.997219e-03 -2.148543e-02 -7.357162e-03
-1.063549e-04 -1.711788e-04 2.149808e-02
1.259408e-02 -1.820354e-02 -7.133823e-03
-3.003232e-03 -2.206359e-02 -7.387965e-03
1.624666e-02 -1.531608e-02 -7.236367e-03
2.012057e-02 1.100084e-02 -6.364813e-04
1.957538e-02 9.848238e-03 -7.506605e-03
-2.015569e-02 1.098979e-02 -6.027265e-04
-1.975487e-02 9.930471e-03 -7.491572e-03
1.837387e-02 1.327329e-02 -3.288422e-03
-1.834182e-02 1.339260e-02 -3.131730e-03
-2.085600e-02 -8.872296e-03 1.184214e-05
4.068817e-05 -8.371466e-05 2.133658e-02
-1.618749e-02 1.606391e-02 -5.700182e-04
-1.932529e-02 -1.185614e-02 -9.831576e-05
-1.916273e-02 1.236596e-02 -5.402330e-04
-3.987948e-03 2.247567e-02 -5.383198e-04
-2.221747e-02 5.087313e-03 -5.255426e-04
-2.140444e-02 -7.400676e-03 7.746305e-06
-2.202671e-02 -5.898310e-03 -4.841751e-04
-4.408496e-03 1.802431e-02 -1.463831e-02
-1.093283e-02 1.492916e-02 -1.473200e-02
1.612270e-03 1.784707e-02 -1.506516e-02
-2.571062e-04 -2.019457e-04 2.129888e-02
-1.343606e-02 1.291357e-02 -1.451936e-02
-2.071842e-02 -8.213033e-03 -6.066183e-03
2.046606e-02 -8.172086e-03 -6.537467e-03
2.114916e-02 7.965889e-03 -4.630058e-03
-2.114385e-02 8.018882e-03 -4.563362e-03
-2.283956e-02 4.213632e-04 7.096806e-04
-1.884842e-02 -1.269762e-02 1.041100e-03
-1.983382e-02 1.107784e-02 5.785418e-04
-2.523174e-03 2.266974e-02 6.168544e-04
3.700642e-03 2.246792e-02 8.364627e-04
1.304899e-04 -2.240019e-04 2.146925e-02
-2.052203e-04 8.679629e-04 -2.422741e-02
-8.723779e-04 -1.377358e-04 -2.421312e-02
-8.393335e-04 -1.867159e-04 -2.422074e-02
1.323972e-03 -1.270509e-03 -2.404444e-02
-6.990897e-04 -5.059944e-04 -2.425856e-02
-1.260904e-04 8.821248e-05 -2.448847e-02
-3.202449e-04 -3.776050e-04 -2.423276e-02
-7.565674e-04 5.007965e-04 -2.421246e-02
-8.356257e-04 3.311965e-04 -2.428642e-02
-5.275099e-04 -1.364053e-03 -2.406956e-02
-2.188009e-05 -5.248404e-05 2.131618e-02
1.934108e-04 3.225326e-04 2.139632e-02
-3.344659e-05 -2.480463e-03 -2.404341e-02
1.358580e-03 -2.133804e-03 -2.400913e-02
2.037288e-03 1.669003e-03 -2.405230e-02
2.285081e-03 -9.267892e-04 -2.399668e-02
2.496820e-03 2.814076e-04 -2.407875e-02
-2.208567e-02 1.369028e-03 -6.850852e-03
2.212205e-02 1.494722e-03 -6.663575e-03
1.273681e-02 1.784345e-02 -7.124519e-03
1.286585e-02 1.768033e-02 -7.002916e-03
-7.442666e-03 2.078384e-02 -7.226000e-03
-1.277370e-04 -3.534217e-06 2.122850e-02
1.692843e-02 -1.415949e-02 4.678156e-03
-1.677068e-02 -1.428354e-02 4.375277e-03
-1.665418e-02 -1.481700e-02 4.522242e-03
1.896189e-02 5.024370e-04 1.101782e-02
-1.911179e-02 5.258415e-04 1.076068e-02
1.310247e-02 -1.770325e-02 4.664935e-03
5.124257e-03 -2.136240e-02 4.740710e-03
-2.186143e-03 -2.198535e-02 4.706870e-03
1.573285e-02 -1.549890e-02 4.669608e-03
-1.332347e-02 -1.848340e-02 2.011012e-03
1.814364e-04 8.909060e-05 2.136737e-02
-1.476080e-02 -1.725024e-02 1.152124e-03
-1.798435e-02 1.390780e-02 -7.724690e-04
1.799656e-02 1.397523e-02 -3.645778e-04
1.233841e-02 1.907216e-02 -2.877530e-03
-8.656141e-03 2.114806e-02 -3.034233e-03
2.224164e-02 4.971120e-03 -1.224964e-03
-2.230037e-02 4.996879e-03 -1.119778e-03
1.747423e-03 2.367619e-03 -2.387791e-02
1.141101e-02 -1.689871e-02 -1.209409e-02
1.978527e-02 9.070042e-03 -8.647359e-03
-1.571328e-04 -3.307241e-04 2.141750e-02
-1.971129e-02 8.939484e-03 -8.744331e-03
2.027453e-02 -1.018336e-02 -2.300041e-03
2.063235e-02 -9.591680e-03 -2.373924e-03
-2.029177e-02 -1.025970e-02 -2.423117e-03
-2.052341e-02 -9.680658e-03 -2.214779e-03
-7.287679e-03 2.100529e-02 3.597403e-03
9.285307e-03 2.061020e-02 8.330452e-04
-1.410899e-02 -1.740970e-02 -5.142697e-03
-1.684286e-02 1.411207e-02 -7.178334e-03
-6.691424e-03 2.128901e-02 -5.390165e-03
1.525093e-04 2.402648e-04 2.142145e-02
-1.373370e-02 1.754603e-02 -5.482433e-03
-2.192376e-02 3.247606e-03 -7.208559e-03
-2.170371e-02 -6.060532e-03 6.726385e-04
2.172949e-02 -6.067290e-03 7.469994e-04
1.612206e-02 1.605009e-02 3.211040e-04
-8.453040e-03 -1.089309e-02 -1.944417e-02
-3.906602e-03 1.361714e-02 -1.932626e-02
-8.943283e-03 1.099131e-02 -1.942329e-02
-8.791788e-03 -2.079816e-02 1.060622e-03
-6.427517e-03 -1.504037e-02 -1.720787e-02
-1.898725e-04 1.000665e-04 2.140466e-02
-9.436531e-03 -2.075913e-02 1.984330e-04
9.742143e-03 2.034202e-02 1.264339e-03
8.902347e-03 2.094263e-02 1.592958e-03
8.628747e-04 1.398667e-03 -2.441644e-02
9.842345e-03 1.986384e-02 -5.997078e-03
2.067574e-02 8.090211e-03 3.649813e-03
-2.044972e-02 7.755995e-03 3.346638e-03
5.610784e-04 1.669025e-04 -2.412471e-02
3.089306e-04 -6.403339e-04 -2.421082e-02
6.475535e-04 -2.971274e-04 -2.420233e-02
-2.175341e-04 -6.864344e-05 2.119022e-02
7.149467e-04 4.728176e-05 -2.420419e-02
2.970073e-05 -7.163361e-04 -2.420405e-02
-4.315482e-04 -1.240403e-03 -2.428155e-02
1.620518e-02 1.498989e-02 -7.415051e-03
1.696900e-02 1.471803e-02 -6.284181e-03
-1.451096e-02 -1.107142e-02 -1.516959e-02
1.458373e-02 -1.104190e-02 -1.523494e-02
1.021374e-02 1.997654e-02 2.893809e-03
1.919473e-03 -4.295312e-03 -2.388185e-02
-1.880584e-02 1.221253e-02 2.874589e-03
-2.650334e-04 -4.358979e-04 2.140292e-02
1.882037e-02 1.219154e-02 2.895995e-03
-8.245978e-03 -2.050866e-03 -2.273602e-02
5.254952e-03 1.237313e-03 -2.339573e-02
-8.296790e-03 2.001986e-03 -2.267681e-02
5.193550e-03 -1.372652e-03 -2.337061e-02
-5.968906e-03 6.089579e-03 -2.267813e-02
3.721491e-03 -3.965647e-03 -2.347398e-02
-7.124931e-03 4.733874e-03 -2.266896e-02
4.406571e-03 -3.092842e-03 -2.340474e-02
-1.600659e-03 8.368993e-03 -2.270022e-02
1.346103e-04 -3.404409e-04 2.134611e-02
1.184248e-03 -5.193299e-03 -2.350626e-02
1.343385e-03 8.592401e-03 -2.264224e-02
-5.942105e-04 -4.970694e-03 -2.356285e-02
-8.088869e-03 1.950487e-04 -2.263405e-02
-7.104662e-04 -2.184715e-04 -2.441836e-02
6.172769e-04 -1.409913e-04 -2.433947e-02
1.782066e-02 -1.227873e-02 5.913384e-03
-1.792263e-02 -1.226648e-02 5.897762e-03
-5.146268e-03 -6.168224e-03 -2.292367e-02
5.831850e-03 6.976537e-03 -2.235181e-02
8.934352e-05 1.953668e-04 2.140977e-02
-1.773933e-03 5.394619e-03 -2.330678e-02
2.771277e-03 -7.873866e-03 -2.268005e-02
-4.646587e-03 3.857850e-03 -2.334482e-02
6.499158e-03 -5.210024e-03 -2.255713e-02
-4.664005e-03 6.326059e-03 -2.273924e-02
5.272501e-03 -7.252531e-03 -2.237964e-02
-6.521429e-03 6.996789e-04 -2.337785e-02
9.024194e-03 -1.047986e-03 -2.232183e-02
6.811077e-03 -2.101052e-02 4.717554e-03
2.197803e-02 -1.525341e-04 4.891497e-03
-2.055360e-04 1.086846e-04 2.125261e-02
4.708272e-05 1.275892e-04 2.128695e-02
1.696120e-02 -1.409322e-02 4.575363e-03
1.369812e-02 -1.741186e-02 4.593726e-03
1.229058e-02 1.843226e-02 4.561888e-03
-8.265036e-03 2.047737e-02 4.231271e-03
-1.099611e-02 1.254053e-02 -1.677896e-02
2.876814e-04 1.676555e-02 -1.689476e-02
-2.755487e-03 1.608980e-02 -1.739535e-02
3.472954e-03 2.236723e-02 5.193590e-04
-2.197786e-02 -1.474038e-03 4.400783e-03
2.200020e-02 -1.364454e-03 4.355056e-03
3.673151e-05 1.931016e-04 2.134968e-02
-1.631125e-02 1.465204e-02 4.933714e-03
-2.156347e-02 3.586702e-03 5.206689e-03
-1.960084e-02 -1.053682e-02 4.387263e-03
-2.034086e-02 -1.014823e-02 -3.713947e-03
-1.725317e-03 -8.110745e-04 -2.412366e-02
1.709511e-03 -7.562981e-04 -2.419720e-02
1.971984e-02 9.518362e-03 5.103015e-03
-1.969252e-02 9.607061e-03 5.074023e-03
2.185292e-02 -4.995032e-03 -4.930649e-03
-2.185120e-02 -5.031502e-03 -5.016286e-03
-3.206023e-04 -1.596888e-04 2.145099e-02
1.638730e-04 -2.298211e-04 -2.408058e-02
-1.650262e-02 1.485499e-02 4.754313e-03
-4.102021e-03 2.149793e-02 5.084347e-03
1.169579e-03 2.201174e-02 4.381590e-03
-1.503608e-02 1.611041e-02 4.340368e-03
-1.395190e-02 1.702128e-02 5.124319e-03
-1.988787e-02 8.860739e-03 5.098224e-03
1.989092e-02 8.865806e-03 5.073935e-03
1.181597e-02 1.833875e-02 5.169770e-03
2.197943e-02 2.466232e-04 4.952279e-03
2.034951e-04 -3.580008e-04 2.147813e-02
1.756224e-02 1.317504e-02 5.066676e-03
1.960789e-02 -9.936786e-03 5.010507e-03
1.577610e-03 -2.193110e-02 4.993876e-03
-4.500448e-03 -2.169688e-02 4.906974e-03
-1.680988e-03 -2.179144e-02 5.223118e-03
2.077122e-02 -7.076624e-03 5.179551e-03
1.537108e-02 1.551461e-02 5.110246e-03
2.161103e-02 3.592547e-03 5.280639e-03
1.141057e-02 -1.860721e-02 5.080048e-03
-1.750419e-02 1.190721e-02 -1.007374e-02
9.462567e-05 3.675118e-05 2.136128e-02
1.750735e-02 1.188450e-02 -1.006412e-02
-1.180579e-03 -2.424623e-03 -2.416285e-02
-5.530821e-04 -1.911309e-04 -2.430228e-02
6.262041e-04 -1.407298e-04 -2.434917e-02
-5.318430e-03 2.227107e-02 3.289663e-04
2.157614e-03 2.264284e-02 4.698619e-05
-1.622706e-02 1.598188e-02 9.586836e-04
-1.365355e-02 1.834826e-02 3.564758e-04
1.298147e-03 -3.138826e-03 -2.408279e-02
-2.259235e-02 -1.911032e-03 7.634149e-04
2.747215e-05 3.196128e-04 2.150852e-02
2.255452e-02 -2.093629e-03 8.670709e-04
-3.500903e-03 -2.161665e-02 5.478658e-03
2.138145e-02 -5.094466e-03 5.625098e-03
2.016151e-02 8.364432e-03 5.415740e-03
2.070409e-02 6.951667e-03 5.430502e-03
1.951335e-02 9.137387e-03 5.927328e-03
2.166083e-02 -3.486858e-03 5.177934e-03
1.551042e-02 -1.541356e-02 5.605957e-03
3.837974e-03 -2.150922e-02 5.621967e-03
1.799161e-02 1.234314e-02 5.556144e-03
-4.686278e-05 -2.437543e-04 2.138137e-02
2.955561e-03 -2.133088e-02 5.887457e-03
2.335662e-03 -2.159226e-02 5.619707e-03
1.579353e-02 -1.459049e-02 5.898331e-03
1.835735e-02 -1.188589e-02 5.628335e-03
1.908689e-02 -1.056682e-02 5.685186e-03
1.880301e-02 1.062931e-02 5.828576e-03
1.940568e-02 1.006290e-02 5.356741e-03
1.860383e-02 -1.119462e-02 5.852470e-03
1.353561e-02 1.667506e-02 5.863901e-03
1.356745e-02 1.750180e-02 4.077514e-03
5.770434e-05 -5.944878e-05 2.132422e-02
1.847952e-02 1.145413e-02 5.747783e-03
2.077652e-02 6.423732e-03 5.291827e-03
2.123167e-02 -3.867207e-03 5.765621e-03
2.112719e-02 5.604732e-03 5.524000e-03
2.030995e-02 7.695253e-03 5.970273e-03
1.671791e-02 -1.352842e-02 5.836965e-03
-1.693487e-02 -1.351183e-02 5.562267e-03
1.911292e-02 1.137923e-02 3.382539e-03
-1.910843e-02 1.133577e-02 3.411803e-03
-2.045741e-02 6.996118e-03 5.877638e-03
-3.830888e-05 -4.579343e-05 2.153194e-02
2.053071e-02 7.027988e-03 5.625346e-03
1.897844e-02 -1.028279e-02 6.118183e-03
1.972707e-02 -8.620222e-03 6.063117e-03
-1.982742e-02 -8.445839e-03 5.939412e-03
-1.900674e-02 -1.026821e-02 6.099593e-03
8.400214e-03 2.102126e-02 -3.823565e-03
-1.256402e-02 1.842875e-02 4.664857e-03
-3.093027e-03 2.245437e-02 5.258417e-04
-6.711450e-03 2.103544e-02 -7.255665e-03
-5.945219e-03 2.103116e-02 5.796890e-03
9.245697e-05 1.073132e-04 2.144689e-02
-4.157982e-03 1.187275e-02 -2.050554e-02
-2.217555e-02 4.129332e-03 -5.818093e-03
2.212587e-02 4.063495e-03 -5.900847e-03
-2.120052e-03 7.502551e-05 -2.423460e-02
-9.113748e-04 2.678095e-03 -2.399488e-02
3.185064e-03 -7.330281e-03 -2.319247e-02
-1.796838e-03 1.054705e-03 -2.430956e-02
-1.772914e-03 -1.257047e-03 -2.425305e-02
-2.774174e-04 2.068985e-03 -2.431953e-02
3.800620e-04 1.986522e-03 -2.420133e-02
-3.088910e-04 -7.502219e-05 2.125059e-02
-9.870834e-05 6.626208e-05 2.125860e-02
5.685503e-03 2.217288e-02 -3.086651e-04
6.141069e-03 2.176471e-02 -3.026266e-03
-1.866765e-02 -1.245228e-02 -5.454415e-03
1.865825e-02 -1.247353e-02 -5.455060e-03
-1.508634e-02 1.668101e-02 -7.229593e-05
-3.074848e-03 -5.907408e-03 -2.331573e-02
8.377519e-04 2.249355e-02 -7.742515e-05
-4.146417e-03 -2.216946e-02 1.375632e-03
7.148023e-03 -2.144884e-02 1.237801e-03
1.821800e-03 -2.247374e-02 2.167191e-03
-1.976218e-04 -1.727390e-04 2.132788e-02
1.199304e-03 -2.264237e-02 1.826006e-03
2.961070e-03 2.185549e-02 4.691733e-03
6.484345e-03 5.424097e-03 -2.243640e-02
-2.639176e-03 2.258354e-02 -9.601597e-04
-1.665603e-03 1.927781e-02 -1.350663e-02
-1.531779e-03 2.233196e-02 -1.193617e-03
-8.647098e-04 2.176920e-02 -5.792965e-03
-4.698159e-04 1.070181e-02 -2.168557e-02
-2.838175e-04 2.158994e-02 5.650520e-03
-2.065657e-02 -5.351743e-03 6.813252e-03
1.313388e-04 -3.063316e-04 2.142083e-02
2.065568e-02 -5.349832e-03 6.808200e-03
-2.844314e-03 -3.419108e-04 -2.382567e-02
9.319376e-03 1.898496e-03 -2.247349e-02
-2.222770e-03 -1.150798e-04 -2.421644e-02
8.851540e-03 -7.971593e-04 -2.285913e-02
-2.572043e-03 8.840912e-04 -2.372798e-02
8.911903e-03 -2.698048e-03 -2.236988e-02
-7.693530e-04 3.119162e-03 -2.384135e-02
2.165008e-03 -9.136969e-03 -2.243413e-02
-1.976164e-03 -1.948256e-03 -2.376892e-02
6.883745e-05 3.335132e-04 2.143921e-02
6.039497e-03 6.524828e-03 -2.279655e-02
-2.003693e-03 2.416042e-03 -2.393421e-02
6.275773e-03 -7.060836e-03 -2.246279e-02
-1.388632e-03 2.369716e-03 -2.372137e-02
4.912646e-03 -7.276630e-03 -2.285805e-02
2.291558e-05 2.855160e-03 -2.386060e-02
-1.028919e-03 -9.431013e-03 -2.240991e-02
-1.522476e-02 -1.460043e-02 7.260486e-03
-1.748335e-03 -2.714426e-03 -2.374709e-02
1.233193e-02 -1.664041e-02 8.532932e-03
-2.531747e-04 -1.915427e-05 2.142123e-02
4.856237e-03 -2.011890e-02 8.535862e-03
-2.006042e-03 -2.082496e-02 8.575954e-03
5.250853e-03 8.828097e-03 -2.189507e-02
-3.126061e-03 -5.433324e-03 -2.373737e-02
-8.002823e-03 -1.898085e-02 8.197680e-03
-8.039433e-03 -1.946790e-02 7.532219e-03
1.759617e-02 1.216609e-02 7.162812e-03
1.888478e-02 -7.365500e-03 -1.210758e-02
-1.879518e-02 -7.375440e-03 -1.216900e-02
2.082538e-02 2.878212e-03 7.037088e-03
-2.893389e-04 -3.726176e-04 2.130666e-02
-2.086915e-02 2.929406e-03 6.970528e-03
6.698539e-03 2.170922e-02 7.980460e-05
7.440895e-03 2.114438e-02 2.836268e-03
-2.058639e-02 -9.668805e-03 -2.047454e-03
2.046381e-02 -9.923216e-03 -2.117574e-03
2.940656e-04 1.734133e-04 -2.436384e-02
-7.233525e-05 2.274468e-04 -2.432212e-02
8.275429e-04 -3.404365e-04 -2.416406e-02
-9.397480e-04 -4.968808e-04 -2.432199e-02
-6.814282e-06 -1.284495e-04 -2.443787e-02
2.427718e-05 -4.056525e-04 2.151626e-02
-4.994694e-05 -3.110379e-04 -2.435964e-02
-8.061621e-03 -2.094065e-02 2.562296e-03
-5.442570e-03 1.335395e-04 -2.374663e-02
5.306809e-03 7.710188e-05 -2.363951e-02
-4.098325e-03 -9.570352e-03 -2.179137e-02
-8.858885e-03 1.936498e-02 7.084460e-03
-9.653122e-05 2.221047e-02 1.935352e-03
-3.801191e-03 2.206469e-02 2.362197e-03
-1.421523e-02 1.742961e-02 2.024835e-03
-5.425962e-03 1.574384e-03 -2.341270e-02
1.142986e-04 -1.748861e-04 2.117939e-02
5.319175e-03 1.605983e-03 -2.338719e-02
3.687777e-03 6.108705e-03 -2.332529e-02
-3.853795e-03 6.160344e-03 -2.342557e-02
-3.172712e-03 -2.036220e-02 -1.162407e-02
5.736441e-03 -2.000674e-02 -1.128129e-02
1.505143e-02 -1.466326e-02 7.505758e-03
1.685230e-02 -1.548331e-02 -3.323384e-03
6.589863e-03 2.076881e-02 5.233671e-03
-1.352376e-02 1.138233e-02 -1.616073e-02
5.572313e-03 2.082179e-02 6.355719e-03
2.516058e-04 1.856995e-04 2.127733e-02
2.864794e-03 2.164130e-02 5.390177e-03
4.758672e-04 2.167817e-02 5.345043e-03
-4.059533e-04 2.155081e-02 6.320578e-03
-1.132330e-02 -1.867476e-02 5.465169e-03
-1.083606e-02 -1.930565e-02 5.042754e-03
-1.712882e-02 -1.354866e-02 5.369690e-03
-1.600263e-02 -1.458844e-02 5.397524e-03
-1.669575e-02 -1.397774e-02 5.271323e-03
-1.572957e-02 -1.534731e-02 4.815700e-03
-2.128480e-02 -4.842141e-03 5.226825e-03
2.037200e-04 2.809017e-04 2.135612e-02
-2.084674e-02 6.489776e-03 5.477308e-03
-2.146018e-02 -4.089414e-03 5.506079e-03
-2.018165e-02 8.009481e-03 5.170464e-03
-4.655522e-03 2.131983e-02 5.457017e-03
-2.047943e-02 7.310680e-03 5.404650e-03
-1.040776e-02 1.899295e-02 5.383259e-03
-9.177828e-03 1.977683e-02 5.631250e-03
-1.975887e-02 9.350222e-03 5.489709e-03
-1.421021e-02 1.657035e-02 5.543544e-03
-2.172207e-02 2.335561e-03 5.666056e-03
-9.625395e-05 -1.977753e-04 2.138927e-02
-1.166490e-04 3.247875e-04 2.130479e-02
-1.114285e-02 1.884009e-02 4.763467e-03
-9.532384e-03 1.931326e-02 6.278261e-03
-1.488464e-02 1.598142e-02 5.153843e-03
-5.465781e-03 2.109124e-02 5.310740e-03
-1.211605e-02 -1.817662e-02 5.324303e-03
-2.114642e-02 5.670843e-03 5.339908e-03
-1.735647e-02 1.331561e-02 5.558435e-03
-1.971584e-02 8.714976e-03 6.260839e-03
-1.789431e-02 1.256305e-02 5.375128e-03
-2.153377e-02 -3.158067e-03 5.246620e-03
-8.713629e-06 -9.212010e-05 2.148777e-02
-1.228844e-02 1.790389e-02 5.743967e-03
-8.175405e-03 2.017908e-02 5.338683e-03
-2.148659e-02 -1.532155e-03 6.314041e-03
-2.153989e-02 -2.448285e-03 5.381433e-03
-2.172090e-02 1.442057e-03 5.568982e-03
-1.187433e-02 1.825275e-02 5.903209e-03
-7.545584e-03 2.022115e-02 6.319454e-03
-1.262638e-02 -1.772864e-02 5.326978e-03
-2.178893e-02 -9.851274e-04 5.357646e-03
-1.447479e-02 -1.636179e-02 5.608936e-03
1.889679e-04 1.283242e-04 2.145957e-02
-1.481320e-02 -1.585870e-02 5.927248e-03
-9.724037e-04 2.181538e-02 5.481559e-03
1.249288e-03 2.186944e-02 4.674586e-03
2.265616e-03 2.162501e-02 5.917797e-03
4.946144e-03 2.128247e-02 5.392237e-03
7.319892e-03 2.058976e-02 5.326516e-03
-4.364639e-03 1.395324e-03 -2.370780e-02
4.501625e-03 1.294659e-03 -2.370142e-02
-1.314109e-03 -2.291782e-03 -2.434150e-02
1.662798e-03 -3.028999e-03 -2.404225e-02
-7.729993e-05 4.656768e-04 2.128417e-02
-2.478661e-03 -2.606018e-03 -2.373361e-02
-3.172643e-03 -4.185252e-03 -2.353976e-02
-8.850323e-03 1.984022e-02 5.856439e-03
1.519234e-04 -1.597489e-02 -1.756392e-02
2.027417e-03 -1.603632e-02 -1.727591e-02
-1.590884e-02 1.466912e-02 5.642957e-03
-9.518126e-03 -8.946034e-03 -2.003320e-02
6.470044e-03 -1.875359e-02 9.767821e-03
-3.631351e-03 -1.964686e-02 9.546067e-03
-5.898578e-03 2.102701e-02 5.090788e-03
-2.007156e-04 -1.491015e-04 2.139607e-02
-1.239933e-02 1.789206e-02 5.135853e-03