# vtk DataFile Version 2.0
Electric current density generated by TTH
ASCII
DATASET UNSTRUCTURED_GRID
POINTS 279 double
-5.000000e-06 -5.000000e-06 0.000000e+00
-1.500000e-05 1.500000e-05 2.000000e-07
1.198615e-05 -1.565241e-06 0.000000e+00
-1.024345e-05 -2.007805e-06 0.000000e+00
2.042098e-08 9.419897e-06 0.000000e+00
4.054310e-06 9.814582e-06 0.000000e+00
1.932889e-06 1.239011e-05 0.000000e+00
5.596038e-06 1.243607e-05 0.000000e+00
1.223281e-05 1.194108e-05 0.000000e+00
1.064475e-05 -8.812376e-06 0.000000e+00
9.814358e-06 -4.501036e-06 0.000000e+00
8.957306e-06 -1.238143e-05 0.000000e+00
-1.500000e-05 -1.500000e-05 2.000000e-07
-8.812376e-06 -1.064475e-05 0.000000e+00
-4.464435e-06 -9.826590e-06 0.000000e+00
-1.238143e-05 -8.957306e-06 0.000000e+00
-1.064475e-05 8.812376e-06 0.000000e+00
-9.750748e-06 4.556404e-06 0.000000e+00
-6.636538e-06 6.992155e-06 0.000000e+00
-7.088391e-06 1.016304e-05 0.000000e+00
-8.981693e-06 1.236380e-05 0.000000e+00
9.780969e-06 4.975718e-06 0.000000e+00
7.196428e-06 3.473776e-06 0.000000e+00
1.500000e-05 -1.500000e-05 2.000000e-07
1.233409e-05 2.490025e-06 0.000000e+00
1.217041e-05 -1.248876e-05 0.000000e+00
-1.248876e-05 -1.217041e-05 0.000000e+00
-1.217529e-05 1.248524e-05 0.000000e+00
5.078101e-06 -1.255855e-05 0.000000e+00
-3.947712e-06 9.856724e-06 0.000000e+00
-2.866091e-06 7.203580e-06 0.000000e+00
-5.466839e-06 1.253676e-05 0.000000e+00
-1.255797e-05 -5.078094e-06 0.000000e+00
1.009819e-05 8.819110e-06 0.000000e+00
-5.000000e-06 -5.000000e-06 2.000000e-07
6.613302e-06 7.090576e-06 0.000000e+00
7.277099e-06 1.017875e-05 0.000000e+00
1.248905e-05 -5.225731e-06 0.000000e+00
-1.376614e-06 -9.425451e-06 0.000000e+00
-1.550548e-06 -1.214759e-05 0.000000e+00
-5.215472e-06 -1.252379e-05 0.000000e+00
-9.425451e-06 1.376614e-06 0.000000e+00
-1.213382e-05 1.567138e-06 0.000000e+00
-1.250586e-05 5.237184e-06 0.000000e+00
7.168471e-06 -3.421337e-06 0.000000e+00
-5.000000e-06 5.000000e-06 2.000000e-07
-7.158068e-06 3.352958e-06 0.000000e+00
-3.352958e-06 -7.158068e-06 0.000000e+00
1.942455e-06 -1.301126e-05 0.000000e+00
2.478882e-07 -7.333647e-06 0.000000e+00
-1.301121e-05 -1.942429e-06 0.000000e+00
-7.333647e-06 -2.478882e-07 0.000000e+00
1.250991e-05 6.264817e-06 0.000000e+00
1.312500e-05 9.375000e-06 0.000000e+00
-1.950511e-06 1.234949e-05 0.000000e+00
8.923639e-06 1.220237e-05 0.000000e+00
5.000000e-06 5.000000e-06 2.000000e-07
3.394770e-08 6.952707e-06 0.000000e+00
2.886113e-06 7.372092e-06 0.000000e+00
7.255838e-06 -3.933547e-08 0.000000e+00
7.060632e-06 -6.495357e-06 2.000000e-07
3.518855e-06 -7.568379e-06 2.000000e-07
6.221505e-06 -9.674404e-06 2.000000e-07
9.659101e-06 1.554594e-06 2.000000e-07
9.538064e-06 -1.484805e-06 2.000000e-07
1.196966e-05 -1.556335e-06 2.000000e-07
2.043899e-06 -1.023459e-05 2.000000e-07
5.000000e-06 -5.000000e-06 2.000000e-07
-6.475331e-06 -7.063091e-06 2.000000e-07
-7.568379e-06 -3.518855e-06 2.000000e-07
-9.670568e-06 -6.221502e-06 2.000000e-07
-1.023199e-05 -2.041484e-06 2.000000e-07
5.845486e-08 9.449794e-06 2.000000e-07
4.072878e-06 9.831979e-06 2.000000e-07
2.025207e-06 1.244489e-05 2.000000e-07
5.596038e-06 1.243607e-05 2.000000e-07
9.810981e-06 -4.498471e-06 2.000000e-07
1.248508e-05 -5.223436e-06 2.000000e-07
1.223102e-05 1.194178e-05 2.000000e-07
1.064475e-05 -8.812376e-06 2.000000e-07
8.954814e-06 -1.238112e-05 2.000000e-07
-8.812376e-06 -1.064475e-05 2.000000e-07
-4.453648e-06 -9.828931e-06 2.000000e-07
-1.238112e-05 -8.954814e-06 2.000000e-07
-1.064475e-05 8.812376e-06 2.000000e-07
-9.751679e-06 4.547063e-06 2.000000e-07
-6.631848e-06 6.996935e-06 2.000000e-07
-7.082003e-06 1.017350e-05 2.000000e-07
-8.977887e-06 1.236687e-05 2.000000e-07
9.705797e-06 5.005145e-06 2.000000e-07
7.172499e-06 3.485303e-06 2.000000e-07
1.229440e-05 2.507772e-06 2.000000e-07
-1.360154e-06 -9.443273e-06 2.000000e-07
-1.519838e-06 -1.213602e-05 2.000000e-07
-5.207172e-06 -1.252194e-05 2.000000e-07
-9.443273e-06 1.360154e-06 2.000000e-07
-1.212201e-05 1.536679e-06 2.000000e-07
-1.250369e-05 5.229224e-06 2.000000e-07
-5.000000e-06 -1.666667e-06 0.000000e+00
1.216991e-05 -1.248870e-05 2.000000e-07
-1.248870e-05 -1.216991e-05 2.000000e-07
-1.217453e-05 1.248585e-05 2.000000e-07
5.106077e-06 -1.255460e-05 2.000000e-07
-1.255422e-05 -5.106015e-06 2.000000e-07
-3.924401e-06 9.883578e-06 2.000000e-07
-2.855597e-06 7.215017e-06 2.000000e-07
-5.444004e-06 1.255515e-05 2.000000e-07
1.008745e-05 8.823314e-06 2.000000e-07
6.599525e-06 7.100858e-06 2.000000e-07
-5.000000e-06 5.000000e-06 0.000000e+00
-5.000000e-06 1.666667e-06 0.000000e+00
7.277099e-06 1.017875e-05 2.000000e-07
7.167699e-06 -3.418515e-06 2.000000e-07
-7.164504e-06 3.347014e-06 2.000000e-07
-3.347014e-06 -7.164504e-06 2.000000e-07
2.088207e-06 -1.292342e-05 2.000000e-07
2.526399e-07 -7.342042e-06 2.000000e-07
-1.292342e-05 -2.088207e-06 2.000000e-07
-7.342042e-06 -2.526399e-07 2.000000e-07
1.243182e-05 6.293226e-06 2.000000e-07
1.312500e-05 9.375000e-06 2.000000e-07
-1.666667e-06 5.000000e-06 0.000000e+00
-1.820725e-06 1.243178e-05 2.000000e-07
8.923639e-06 1.220237e-05 2.000000e-07
3.087768e-08 6.959796e-06 2.000000e-07
2.880944e-06 7.381513e-06 2.000000e-07
7.255838e-06 -3.933547e-08 2.000000e-07
1.328514e-05 1.310233e-05 1.000010e-07
1.376401e-05 -1.592303e-06 9.996766e-08
-8.092230e-06 -1.322625e-05 1.000015e-07
-1.322549e-05 8.096014e-06 9.999958e-08
-1.381279e-05 1.719868e-06 9.992334e-08
1.666667e-06 5.000000e-06 0.000000e+00
-1.709945e-06 -1.381647e-05 9.990751e-08
5.525673e-06 1.382795e-05 1.000123e-07
1.315712e-05 -1.015237e-05 1.000008e-07
-6.202709e-06 -2.636523e-06 1.000246e-07
-1.313509e-05 1.335222e-05 9.999858e-08
1.387117e-05 5.926342e-06 9.988926e-08
-7.446253e-06 1.356058e-05 9.988490e-08
-1.364319e-05 -1.002931e-05 9.998706e-08
9.070658e-06 -1.383733e-05 9.998685e-08
-7.742156e-07 6.065304e-06 1.001042e-07
5.000000e-06 1.666667e-06 0.000000e+00
-3.711740e-06 1.358246e-05 9.931499e-08
-1.376984e-05 -4.601198e-06 1.005506e-07
6.011654e-06 -8.884170e-08 9.995012e-08
-6.056778e-06 2.472238e-06 1.000372e-07
2.603614e-06 -6.179493e-06 1.003478e-07
3.749854e-06 -1.369680e-05 1.006261e-07
9.164631e-06 1.376291e-05 9.999817e-08
1.056732e-07 1.357346e-05 9.997650e-08
-1.335516e-05 -1.313229e-05 1.000003e-07
1.322605e-05 -1.327855e-05 1.000004e-07
5.000000e-06 -1.666667e-06 0.000000e+00
1.353397e-05 3.969836e-06 9.997271e-08
-1.360037e-05 -7.269122e-06 1.001128e-07
1.373612e-05 7.696819e-06 1.001342e-07
3.077612e-06 6.002977e-06 9.994577e-08
-5.536488e-06 -1.380311e-05 9.997872e-08
1.215594e-07 -6.020291e-06 9.996814e-08
-6.016822e-06 -1.226058e-07 9.999887e-08
6.334394e-06 -1.376626e-05 1.000926e-07
6.062654e-06 -2.521144e-06 1.005045e-07
-3.981380e-06 6.003168e-06 1.000323e-07
1.666667e-06 -5.000000e-06 0.000000e+00
-4.837429e-06 -6.130673e-06 9.999018e-08
8.321447e-08 -1.366403e-05 9.992078e-08
5.971538e-06 3.372801e-06 9.996632e-08
-1.395310e-05 -2.001391e-06 1.008697e-07
-5.547064e-06 1.383973e-05 1.000053e-07
1.375474e-05 -5.475854e-06 1.000052e-07
-1.004715e-05 1.363686e-05 1.000003e-07
-1.379754e-05 5.545051e-06 9.998334e-08
-1.290301e-05 1.082203e-05 1.000053e-07
2.830643e-06 1.370394e-05 9.990209e-08
-1.666667e-06 -5.000000e-06 0.000000e+00
-1.082289e-05 -1.290136e-05 1.000023e-07
-1.857471e-06 1.382016e-05 1.001510e-07
6.094409e-06 -4.516172e-06 8.950192e-08
1.096477e-05 1.320693e-05 1.000035e-07
-2.426281e-06 -6.078038e-06 1.000353e-07
1.935556e-06 -1.392726e-05 1.002824e-07
-5.872363e-06 5.065361e-06 9.992714e-08
5.858886e-06 5.096003e-06 9.992522e-08
-3.578992e-06 -1.352132e-05 9.978011e-08
1.506579e-06 6.236239e-06 1.000137e-07
1.125000e-05 1.500000e-05 0.000000e+00
1.363877e-05 1.167720e-06 1.000334e-07
1.298884e-05 -7.382462e-06 1.000069e-07
1.386436e-05 1.009292e-05 9.998662e-08
1.345589e-05 -3.556543e-06 9.989558e-08
6.173014e-06 1.677176e-06 9.987791e-08
-1.367066e-05 -8.897570e-08 9.984759e-08
-1.351105e-05 3.588914e-06 9.978271e-08
-5.978562e-06 -4.990603e-06 9.996387e-08
4.808918e-06 6.145040e-06 1.000683e-07
7.375052e-06 1.345970e-05 9.999830e-08
7.500000e-06 1.500000e-05 0.000000e+00
4.619028e-06 -6.056763e-06 9.203587e-08
1.092915e-05 -1.347886e-05 9.998611e-08
3.750000e-06 1.500000e-05 0.000000e+00
5.000000e-06 5.000000e-06 0.000000e+00
3.937687e-17 1.500000e-05 0.000000e+00
-3.750000e-06 1.500000e-05 0.000000e+00
-7.500000e-06 1.500000e-05 0.000000e+00
-1.125000e-05 1.500000e-05 0.000000e+00
-1.500000e-05 1.125000e-05 0.000000e+00
-1.500000e-05 7.500000e-06 0.000000e+00
-1.500000e-05 3.750000e-06 0.000000e+00
-1.500000e-05 3.937687e-17 0.000000e+00
-1.500000e-05 -3.750000e-06 0.000000e+00
-1.500000e-05 -7.500000e-06 0.000000e+00
5.000000e-06 -5.000000e-06 0.000000e+00
-1.500000e-05 -1.125000e-05 0.000000e+00
-1.125000e-05 -1.500000e-05 0.000000e+00
-7.500000e-06 -1.500000e-05 0.000000e+00
-3.750000e-06 -1.500000e-05 0.000000e+00
-3.937687e-17 -1.500000e-05 0.000000e+00
3.750000e-06 -1.500000e-05 0.000000e+00
7.500000e-06 -1.500000e-05 0.000000e+00
1.125000e-05 -1.500000e-05 0.000000e+00
1.500000e-05 -1.125000e-05 0.000000e+00
1.500000e-05 -7.500000e-06 0.000000e+00
1.500000e-05 1.500000e-05 0.000000e+00
1.500000e-05 -3.750000e-06 0.000000e+00
1.500000e-05 -3.937687e-17 0.000000e+00
1.500000e-05 3.750000e-06 0.000000e+00
1.500000e-05 7.500000e-06 0.000000e+00
1.500000e-05 1.125000e-05 0.000000e+00
1.125000e-05 1.500000e-05 2.000000e-07
7.500000e-06 1.500000e-05 2.000000e-07
3.750000e-06 1.500000e-05 2.000000e-07
3.937687e-17 1.500000e-05 2.000000e-07
-3.750000e-06 1.500000e-05 2.000000e-07
-1.500000e-05 1.500000e-05 0.000000e+00
-7.500000e-06 1.500000e-05 2.000000e-07
-1.125000e-05 1.500000e-05 2.000000e-07
-1.500000e-05 1.125000e-05 2.000000e-07
-1.500000e-05 7.500000e-06 2.000000e-07
-1.500000e-05 3.750000e-06 2.000000e-07
-1.500000e-05 3.937687e-17 2.000000e-07
-1.500000e-05 -3.750000e-06 2.000000e-07
-1.500000e-05 -7.500000e-06 2.000000e-07
-1.500000e-05 -1.125000e-05 2.000000e-07
-1.125000e-05 -1.500000e-05 2.000000e-07
-1.500000e-05 -1.500000e-05 0.000000e+00
[...]
POINT_DATA 279
VECTORS 10.000GHz_fone_imag double
-7.449293e+11 7.165772e+11 1.566517e+08
4.066989e+10 3.500126e+10 3.024646e+07
-1.437635e+10 -2.037721e+11 5.011792e+07
-1.377961e+10 2.504299e+11 -1.285330e+08
3.228847e+11 5.532252e+09 -1.287078e+08
2.530827e+11 -6.699935e+10 -5.826396e+08
2.104954e+11 -8.401708e+09 2.313579e+08
1.769719e+11 -3.449848e+10 7.600980e+07
5.499473e+10 -6.275468e+10 6.644105e+07
-8.334927e+10 -1.284772e+11 8.270411e+07
-5.657190e+10 -2.109697e+11 -3.256163e+08
-1.184828e+11 -5.143225e+10 -1.260358e+08
-3.492669e+10 4.077143e+10 3.184144e+07
-1.161914e+11 8.859181e+10 -7.120868e+07
-2.312563e+11 8.531305e+10 -2.892907e+08
-5.275673e+10 1.184140e+11 -1.120339e+08
6.552130e+10 1.046654e+11 7.953602e+07
6.883671e+10 1.979025e+11 5.081968e+08
2.960818e+11 3.132294e+11 -1.159496e+09
1.573416e+11 1.067613e+11 -3.379386e+08
1.103113e+11 5.354535e+10 3.506764e+07
5.950202e+10 -2.093965e+11 5.088911e+07
9.109497e+10 -5.143774e+11 7.886577e+08
-3.873413e+10 -3.690693e+10 -4.552428e+06
1.451679e+10 -2.030288e+11 -1.111562e+08
-6.034874e+10 -5.425866e+10 3.571657e+07
-5.299142e+10 6.206231e+10 3.996076e+07
6.189377e+10 5.318665e+10 3.216543e+07
-1.853998e+11 -2.819840e+10 -1.298292e+08
2.496332e+11 8.706795e+10 2.847850e+08
5.652173e+11 9.924013e+10 -1.165916e+09
1.682324e+11 3.973578e+10 4.598013e+07
-3.004139e+10 1.825197e+11 -1.040483e+08
7.424620e+10 -1.205136e+11 -3.324553e+08
-7.328237e+11 7.073933e+11 -1.316460e+08
2.756941e+11 -3.043722e+11 8.155787e+08
1.642505e+11 -9.335155e+10 2.833579e+08
-3.147903e+10 -1.743095e+11 8.336748e+07
-2.931215e+11 3.003805e+10 -2.191824e+08
-2.043593e+11 1.819933e+10 -9.267579e+07
-1.662976e+11 3.615145e+10 -6.426088e+06
2.976988e+10 2.946991e+11 3.335257e+08
1.858911e+10 2.043649e+11 -9.733786e+07
3.660473e+10 1.658190e+11 -9.328489e+06
-8.561945e+10 -5.432964e+11 -1.346658e+08
8.401840e+11 7.382637e+11 -6.599461e+08
1.024685e+11 5.551597e+11 -4.558217e+08
-5.447389e+11 1.181168e+11 1.177803e+09
-2.100313e+11 -8.633152e+09 -1.181904e+08
-5.475343e+11 8.165778e+09 5.779315e+08
-7.990748e+09 2.099087e+11 -1.252432e+08
6.376288e+09 5.482333e+11 5.406042e+08
3.244832e+10 -1.682806e+11 -1.402574e+08
3.695726e+10 -1.177807e+11 -9.367421e+07
2.072308e+11 1.728120e+10 8.617531e+07
1.130439e+11 -5.317809e+10 1.014216e+08
7.187679e+11 -8.088961e+11 -2.245000e+08
5.588543e+11 2.314924e+08 1.910589e+08
5.411117e+11 -1.049019e+11 9.538535e+08
-1.142592e+10 -4.981860e+11 6.361983e+07
-2.146812e+11 -2.540318e+11 2.176276e+08
-4.787245e+11 -1.330565e+11 2.534901e+09
-1.672222e+11 -1.121313e+11 -4.793731e+08
3.577690e+10 -2.992672e+11 -1.652641e+08
-1.073591e+10 -2.984691e+11 -6.182269e+08
-1.193215e+10 -2.119147e+11 -1.407392e+08
-2.410181e+11 -4.632478e+10 -1.309073e+08
-7.292494e+11 -6.736252e+11 -8.475400e+07
-3.458832e+11 2.529763e+11 1.132673e+09
-1.380470e+11 4.692809e+11 8.230140e+08
-1.108877e+11 1.681804e+11 -4.110438e+08
-4.689290e+10 2.400058e+11 -1.396062e+08
2.536083e+11 -8.644940e+09 -9.324647e+07
2.051892e+11 -6.571599e+10 -4.503431e+08
2.030095e+11 -2.001267e+10 1.342635e+08
1.630400e+11 -3.964399e+10 4.672556e+07
-8.592179e+10 -2.445255e+11 -4.273325e+07
-3.855467e+10 -1.727178e+11 1.906055e+07
6.075008e+10 -6.946912e+10 9.591520e+06
-7.056680e+10 -1.071080e+11 -5.542800e+06
-1.208033e+11 -4.115849e+10 -2.780939e+07
-1.220412e+11 6.896019e+10 -3.557694e+08
-2.294778e+11 5.370749e+10 -2.157282e+08
-4.118167e+10 1.202399e+11 -4.283720e+07
8.610344e+10 1.258112e+11 -1.235822e+08
8.175107e+10 2.545912e+11 7.214412e+08
3.572308e+11 2.474437e+11 -1.283795e+09
1.578712e+11 7.100076e+10 2.552980e+08
1.242729e+11 4.172424e+10 1.544010e+08
1.064202e+11 -2.317275e+11 -2.866553e+08
1.377841e+11 -5.679610e+11 1.240851e+09
2.647479e+10 -2.004014e+11 -1.374917e+08
-2.717325e+11 1.197858e+10 4.622995e+08
-2.116139e+11 7.386521e+09 -1.399744e+08
-1.789996e+11 3.303101e+10 -4.455164e+07
1.161382e+10 2.722421e+11 4.701102e+08
7.390687e+09 2.116077e+11 -1.439578e+08
3.353606e+10 1.787619e+11 -4.712177e+07
-1.928655e+10 1.034442e+12 -4.322304e+08
-6.671219e+10 -5.844631e+10 1.140590e+08
-5.749232e+10 6.796365e+10 1.310182e+08
6.763791e+10 5.785273e+10 1.204307e+08
-1.709089e+11 -3.710467e+10 -1.074987e+08
-3.877518e+10 1.679002e+11 -1.190956e+08
2.225289e+11 4.397131e+10 4.411607e+07
5.044239e+11 5.686761e+10 -7.636829e+08
1.753866e+11 2.974258e+10 1.371098e+08
1.131871e+11 -1.157001e+11 2.606911e+08
3.321323e+11 -2.410706e+11 1.123384e+09
7.181900e+11 8.593552e+11 -3.209960e+08
1.825493e+10 1.031286e+12 8.111530e+08
1.401780e+11 -7.923638e+10 4.626615e+07
-8.911948e+10 -5.165867e+11 -2.247782e+09
1.036500e+11 5.221723e+11 -2.921272e+08
-4.895868e+11 7.343060e+10 5.887485e+08
-2.073312e+11 -1.479451e+10 3.734730e+07
-4.840394e+11 -9.480990e+09 2.396337e+08
-1.415847e+10 2.063709e+11 5.145376e+07
-1.101749e+10 4.841157e+11 2.531701e+08
4.280154e+10 -1.566067e+11 3.503526e+07
3.862667e+10 -1.193358e+11 -2.430154e+08
1.078236e+12 1.553647e+10 4.683286e+08
2.060495e+11 9.272414e+09 7.333571e+07
1.164431e+11 -4.382654e+10 3.689071e+07
5.504506e+11 6.874477e+08 3.409696e+08
4.990745e+11 -6.781814e+10 4.634434e+08
6.534118e+09 -5.573581e+11 7.435265e+08
5.116695e+10 -5.613189e+10 1.047010e+06
-7.529985e+09 -2.534903e+11 1.631088e+06
-1.478353e+11 3.315693e+10 -1.097759e+08
3.324002e+10 1.473719e+11 -1.123980e+08
5.942374e+09 2.539270e+11 1.143250e+07
1.009010e+12 -2.006032e+10 3.376047e+08
-2.541404e+11 5.836462e+09 1.106046e+07
2.155809e+11 -1.746057e+10 -1.896136e+06
-3.460050e+10 -1.170754e+11 6.650351e+07
-5.176386e+10 8.507664e+11 3.022984e+08
5.525757e+10 4.942948e+10 -5.729119e+04
1.642019e+10 -2.097514e+11 2.478382e+06
1.632949e+11 3.086397e+10 2.095095e+07
-2.713334e+10 1.263758e+11 9.518155e+05
-1.526278e+11 -2.216439e+10 2.362667e+06
8.241327e+11 2.038908e+10 -3.618848e+08
2.217293e+10 -1.055418e+12 2.036379e+08
2.138600e+11 1.807299e+10 4.257335e+07
-1.765105e+10 2.183713e+11 -3.273347e+07
-7.546840e+09 -8.811256e+11 -3.236146e+06
4.082374e+10 8.810837e+11 4.066510e+08
-8.365748e+11 -3.354484e+10 8.191667e+08
-2.187970e+11 -1.863943e+10 -4.741787e+07
1.479309e+11 -2.246671e+10 -1.880374e+06
2.316600e+11 -1.229508e+09 8.295543e+07
-4.936466e+10 5.536398e+10 1.682489e+05
-5.445903e+10 -5.057355e+10 -1.532820e+06
-1.886108e+10 -1.035057e+12 9.167529e+08
1.879004e+10 -2.093668e+11 -4.995149e+07
-2.935042e+10 1.651004e+11 -3.430014e+07
2.726744e+10 -1.647630e+11 1.062294e+08
9.521902e+11 -7.643119e+10 1.799478e+07
-2.161086e+11 1.548935e+10 6.060582e+06
-8.832616e+11 -1.477967e+09 -1.432197e+07
-1.859886e+09 8.841774e+11 -8.987518e+06
-1.944876e+11 -2.043318e+10 -3.450320e+07
-3.055810e+10 -8.633446e+11 -2.308876e+08
9.930212e+11 2.329956e+11 -7.260791e+08
-1.034894e+12 -1.861817e+10 -4.375118e+08
-8.343526e+11 3.681048e+11 9.166671e+08
-2.361160e+11 3.442250e+08 -6.745538e+07
9.721500e+10 -1.006573e+12 -4.107916e+06
-4.772490e+09 2.623668e+11 1.617502e+07
2.148703e+11 1.582812e+10 -1.677440e+06
-1.724584e+10 -2.131163e+11 7.244554e+06
1.264740e+11 2.756090e+10 -8.357311e+06
1.558299e+10 2.155237e+11 4.526621e+06
4.467874e+10 9.294396e+10 1.278273e+08
2.343005e+11 -1.069989e+10 4.519886e+07
-1.078478e+12 1.705085e+10 2.819447e+08
-9.320527e+10 4.491042e+10 1.333229e+08
2.530672e+11 5.673665e+09 -1.320052e+07
-4.402590e+11 -9.993954e+11 -4.484775e+09
9.555813e+10 -4.126945e+10 -1.601563e+07
-8.678383e+11 4.260288e+10 4.285238e+08
-2.598175e+11 -6.390799e+09 1.863183e+07
5.501019e+11 8.102717e+11 -1.303494e+09
4.608336e+11 -8.486274e+11 1.153372e+09
-2.145413e+11 1.788344e+10 -3.275603e+07
7.379903e+11 -2.864721e+10 4.657945e+08
1.158698e+11 -2.319364e+10 -7.480100e+07
5.676575e+09 -2.412478e+11 -7.575648e+07
-3.902392e+10 -1.537068e+11 2.039832e+08
2.504145e+10 -1.289980e+11 9.010668e+07
-1.826656e+10 -2.133910e+11 -3.954462e+07
3.684805e+10 -7.443485e+11 6.067778e+08
3.717909e+08 2.363263e+11 -6.698223e+07
1.809977e+10 2.141079e+11 -3.609664e+07
-4.385086e+11 8.163757e+11 1.313844e+09
8.356423e+11 -3.572713e+11 1.006862e+09
1.619806e+11 -3.167970e+10 3.048010e+07
2.051346e+11 -1.335384e+10 1.177199e+08
-9.751991e+11 -4.929475e+11 5.733333e+09
-1.002463e+11 -3.698147e+10 -1.657383e+07
2.665041e+11 -8.046831e+09 -6.591131e+07
8.215292e+11 -7.026960e+11 -7.130374e+08
2.750207e+11 -1.208208e+09 4.303636e+06
2.661676e+11 7.628720e+09 -6.080527e+07
1.922669e+11 1.520833e+10 -7.426701e+07
1.163497e+11 2.020759e+10 2.363308e+08
2.446839e+10 1.117484e+11 -1.118850e+08
1.465499e+10 2.056239e+11 1.132557e+08
8.518866e+09 2.647908e+11 -1.996677e+07
4.829249e+08 2.882813e+11 1.004430e+06
-7.897780e+09 2.673447e+11 -3.355649e+07
-1.415742e+10 1.938691e+11 -7.066156e+07
-6.897857e+11 -8.209048e+11 7.712766e+07
-1.994640e+10 1.163987e+11 2.314225e+08
-1.230040e+11 2.207863e+10 2.822872e+07
-2.098373e+11 1.644797e+10 -3.454258e+07
-2.652497e+11 8.445649e+09 -2.089086e+07
-2.879878e+11 4.690913e+08 7.784959e+05
-2.588898e+11 -1.030803e+10 7.390269e+06
-2.091238e+11 -1.159599e+10 -4.909114e+07
-1.200862e+11 -2.092033e+10 5.522184e+07
-2.312656e+10 -1.074120e+11 -2.907625e+08
-1.729215e+10 -1.931981e+11 1.673368e+08
4.320197e+10 -4.680748e+10 -4.530100e+05
-8.459805e+09 -2.629675e+11 -2.802312e+07
2.862133e+08 -2.830280e+11 -4.522221e+07
7.775985e+09 -2.536204e+11 -2.737342e+07
1.333514e+10 -1.947668e+11 -5.036165e+07
1.980179e+10 -1.194221e+11 2.026497e+08
1.207357e+11 -1.893421e+10 -1.810643e+08
1.968171e+11 -1.630361e+10 7.766465e+07
2.580148e+11 -8.123507e+09 3.016326e+07
2.852619e+11 -1.134771e+09 -2.438074e+07
2.567124e+11 9.146544e+09 -5.613976e+07
4.666928e+10 4.235065e+10 -2.841209e+05
2.062723e+11 1.512385e+10 3.825286e+07
1.219390e+11 1.566064e+10 1.069995e+08
2.000590e+10 1.171375e+11 -1.538711e+08
1.883747e+10 1.958924e+11 1.558392e+08
8.510088e+09 2.572906e+11 -3.174845e+07
3.185288e+08 2.876990e+11 -7.022583e+07
-7.988404e+09 2.763931e+11 8.486149e+05
-1.416431e+10 2.077687e+11 2.088821e+07
-1.546807e+10 1.218913e+11 1.066321e+08
-1.066100e+11 2.207314e+10 -4.116642e+07
-4.230575e+10 4.673880e+10 -3.017096e+05
-1.936620e+11 1.643911e+10 -2.379106e+07
-2.577786e+11 8.429295e+09 -3.144780e+07
-2.874995e+11 3.128659e+08 -6.101647e+07
-2.678500e+11 -8.579792e+09 1.110059e+08
-1.996790e+11 -1.486855e+10 -2.110475e+08
-1.246037e+11 -1.706486e+10 1.795358e+08
-1.796799e+10 -1.135455e+11 -8.639786e+07
-2.112535e+10 -1.855025e+11 4.749504e+07
-8.460187e+09 -2.557210e+11 -3.628841e+07
3.097602e+08 -2.841103e+11 -2.836289e+07
-4.541798e+10 -4.378606e+10 2.164153e+05
7.906983e+09 -2.606536e+11 -4.120730e+07
1.338889e+10 -2.081942e+11 2.748216e+07
1.534015e+10 -1.247121e+11 1.341654e+08
-1.926467e+10 1.011910e+12 1.013694e+09
1.833355e+10 1.055929e+12 -3.452455e+08
1.039056e+12 1.555502e+10 4.424858e+08
1.038528e+12 -2.012611e+10 2.874070e+08
2.223580e+10 -1.026249e+12 3.014605e+08
-1.857812e+10 -1.058477e+12 -2.336819e+08
-1.013061e+12 -1.842882e+10 9.585242e+08
3.580132e+10 -4.066922e+10 2.820120e+07
-9.954822e+11 2.200869e+10 -1.058093e+09
-3.392906e+11 -3.791640e+11 -2.113848e+08
-4.985869e+11 -8.126687e+10 8.846083e+08
-2.167188e+11 -7.662794e+10 -3.302214e+08
-2.506817e+11 -1.336902e+10 -1.298141e+08
-3.143570e+11 3.325489e+11 9.382383e+08
-9.011506e+10 4.899166e+11 8.919028e+08
-7.674512e+10 2.155108e+11 -3.117196e+08
1.259216e+10 -2.465416e+11 7.048735e+07
-3.725945e+10 -2.781475e+11 -3.050151e+08
