# vtk DataFile Version 2.0
Electric current density generated by TTH
ASCII
DATASET UNSTRUCTURED_GRID
POINTS 10435 double
-5.000000e-06 -5.000000e-06 0.000000e+00
-1.500000e-05 1.500000e-05 2.000000e-07
1.600000e-06 5.000000e-06 0.000000e+00
-5.409801e-06 -3.387640e-06 0.000000e+00
7.252961e-06 -6.355306e-06 2.000000e-07
-7.817917e-07 7.885838e-06 2.000000e-07
7.587160e-06 5.995169e-06 2.000000e-07
7.606976e-06 -5.453486e-06 2.000000e-07
7.383090e-06 -5.521394e-06 2.000000e-07
-7.161945e-06 7.004898e-06 2.000000e-07
8.033287e-06 2.491571e-06 2.000000e-07
7.885235e-06 2.564069e-06 2.000000e-07
3.317208e-06 7.999536e-06 2.000000e-07
-3.764849e-06 7.534030e-06 2.000000e-07
-8.790340e-08 -7.692970e-06 0.000000e+00
-8.899121e-06 -4.451887e-06 2.000000e-07
3.402715e-06 7.838525e-06 2.000000e-07
2.386417e-06 -7.909902e-06 2.000000e-07
-9.007040e-06 1.533213e-06 2.000000e-07
-2.405915e-08 -8.358039e-06 2.000000e-07
5.973266e-06 6.554114e-06 2.000000e-07
-8.678262e-06 -1.303111e-06 2.000000e-07
-8.714395e-06 -1.530188e-06 2.000000e-07
8.876627e-06 3.816018e-06 2.000000e-07
7.764590e-07 -8.350308e-06 2.000000e-07
-2.389601e-07 -7.918787e-06 0.000000e+00
-2.242392e-07 -8.785702e-06 2.000000e-07
3.420715e-06 -7.775259e-06 2.000000e-07
2.499190e-06 7.855712e-06 2.000000e-07
8.162133e-06 -2.136672e-06 2.000000e-07
7.923493e-06 -2.347977e-06 2.000000e-07
1.668363e-06 -8.317903e-06 2.000000e-07
-7.186500e-06 -4.676695e-06 2.000000e-07
4.989002e-06 1.051849e-05 2.000000e-07
4.319692e-06 1.036781e-05 2.000000e-07
-9.967818e-06 4.134352e-06 2.000000e-07
-6.629149e-06 2.239049e-06 0.000000e+00
-1.159847e-05 -5.198313e-07 2.000000e-07
4.633203e-06 8.034660e-06 2.000000e-07
6.246743e-06 -7.779537e-06 2.000000e-07
5.492410e-06 -8.310003e-06 2.000000e-07
7.898719e-06 5.489927e-06 2.000000e-07
-9.352691e-06 6.344216e-06 2.000000e-07
-8.368126e-06 -2.339679e-06 2.000000e-07
7.122068e-06 5.043674e-06 2.000000e-07
6.293899e-07 7.875385e-06 2.000000e-07
4.971462e-06 -8.450382e-06 2.000000e-07
-6.623303e-06 2.400337e-06 0.000000e+00
-5.896692e-06 7.819772e-06 2.000000e-07
-8.887425e-06 -1.126942e-06 2.000000e-07
6.002370e-06 9.102075e-06 2.000000e-07
5.825167e-06 8.565166e-06 2.000000e-07
-8.789244e-06 -1.921359e-06 2.000000e-07
-6.903427e-06 5.408370e-06 2.000000e-07
9.232189e-06 3.528027e-06 2.000000e-07
3.752905e-06 9.299166e-06 2.000000e-07
3.359900e-06 8.993080e-06 2.000000e-07
9.504360e-06 3.613137e-06 2.000000e-07
-5.424563e-06 6.416780e-06 0.000000e+00
-1.062461e-05 3.141218e-06 2.000000e-07
5.408133e-06 -9.078119e-06 2.000000e-07
-7.607523e-06 6.417236e-06 2.000000e-07
-5.295172e-06 -8.426224e-06 2.000000e-07
1.024392e-05 2.460236e-06 2.000000e-07
-2.207120e-06 1.036213e-05 2.000000e-07
-7.808418e-06 6.738187e-06 2.000000e-07
-8.280726e-06 5.819353e-06 2.000000e-07
7.474362e-06 -5.141556e-06 2.000000e-07
9.751081e-06 -5.196981e-06 2.000000e-07
5.699615e-06 4.205840e-06 0.000000e+00
9.933567e-06 -5.159495e-06 2.000000e-07
3.852148e-06 1.011939e-05 2.000000e-07
9.863696e-06 3.634971e-06 2.000000e-07
9.763274e-06 3.061968e-06 2.000000e-07
7.510158e-06 -5.330060e-06 2.000000e-07
-5.570620e-06 8.587783e-06 2.000000e-07
7.285105e-06 -5.051397e-06 2.000000e-07
-4.382254e-06 8.716303e-06 2.000000e-07
1.117704e-05 -2.134377e-08 2.000000e-07
3.568799e-06 -7.763855e-06 2.000000e-07
5.573165e-06 4.063431e-06 0.000000e+00
-6.917017e-06 7.020249e-06 2.000000e-07
-5.390343e-06 -1.052332e-05 2.000000e-07
1.216621e-05 3.403891e-06 2.000000e-07
-1.084827e-05 3.085530e-06 2.000000e-07
6.031551e-07 1.111263e-05 2.000000e-07
-7.900303e-06 -8.798289e-06 2.000000e-07
-5.000000e-06 -5.000000e-07 8.333333e-08
-5.000000e-06 -1.100000e-06 1.000000e-07
-5.000000e-06 -2.100000e-06 1.000000e-07
-5.000000e-06 -1.900000e-06 1.000000e-07
5.796824e-06 4.010175e-06 0.000000e+00
-5.000000e-06 -1.300000e-06 1.000000e-07
-5.000000e-06 -4.512346e-06 1.000000e-07
-5.000000e-06 -4.800000e-06 1.000000e-07
-5.000000e-06 4.500000e-06 1.000000e-07
-5.000000e-06 -1.500000e-06 1.000000e-07
-5.000000e-06 -1.700000e-06 1.000000e-07
-5.000000e-06 4.000000e-08 8.000000e-08
-5.000000e-06 -2.900000e-06 1.000000e-07
-5.000000e-06 -3.100000e-06 1.000000e-07
-5.000000e-06 -3.300000e-06 1.000000e-07
-6.335609e-06 -5.221394e-06 0.000000e+00
-5.000000e-06 -4.302058e-06 1.000000e-07
-5.000000e-06 -4.100343e-06 1.000000e-07
-5.000000e-06 -3.500002e-06 1.000000e-07
-5.000000e-06 -3.900057e-06 1.000000e-07
-5.000000e-06 -3.700010e-06 1.000000e-07
-5.000000e-06 -2.640000e-06 8.000000e-08
-5.000000e-06 4.700000e-06 1.000000e-07
-5.000000e-06 3.000000e-07 1.000000e-07
-5.000000e-06 4.100000e-06 1.000000e-07
-5.000000e-06 3.900000e-06 1.000000e-07
1.800000e-06 5.000000e-06 0.000000e+00
-6.472758e-06 -5.249291e-06 0.000000e+00
-5.000000e-06 3.700000e-06 1.000000e-07
-5.000000e-06 3.500000e-06 1.000000e-07
-5.000000e-06 3.300000e-06 1.000000e-07
-5.000000e-06 3.100000e-06 1.000000e-07
-5.000000e-06 2.900000e-06 1.000000e-07
-5.000000e-06 2.700000e-06 1.000000e-07
-5.000000e-06 2.500000e-06 1.000000e-07
-5.000000e-06 2.300000e-06 1.000000e-07
-5.000000e-06 4.900000e-06 1.000000e-07
-5.000000e-06 2.100000e-06 1.000000e-07
-5.309941e-06 1.816957e-06 0.000000e+00
-5.000000e-06 1.900000e-06 1.000000e-07
-5.000000e-06 1.700000e-06 1.000000e-07
-5.000000e-06 1.500000e-06 1.000000e-07
-5.000000e-06 1.300000e-06 1.000000e-07
-5.000000e-06 1.100000e-06 1.000000e-07
-5.000000e-06 5.000000e-07 1.000000e-07
-5.000000e-06 9.000000e-07 1.000000e-07
-5.000000e-06 7.000000e-07 1.000000e-07
-1.700000e-06 5.000000e-06 1.000000e-07
-5.000000e-07 5.000000e-06 8.333333e-08
-5.179611e-06 1.715351e-06 0.000000e+00
-2.300000e-06 5.000000e-06 1.000000e-07
-1.100000e-06 5.000000e-06 8.333333e-08
-1.900000e-06 5.000000e-06 1.000000e-07
-2.100000e-06 5.000000e-06 1.000000e-07
4.500000e-06 5.000000e-06 1.000000e-07
-2.900000e-06 5.000000e-06 1.000000e-07
-4.512346e-06 5.000000e-06 1.000000e-07
-4.800000e-06 5.000000e-06 1.000000e-07
4.000000e-08 5.000000e-06 8.000000e-08
-4.302058e-06 5.000000e-06 1.000000e-07
-5.167133e-06 1.901303e-06 0.000000e+00
-4.100343e-06 5.000000e-06 1.000000e-07
-3.900057e-06 5.000000e-06 1.000000e-07
-3.700010e-06 5.000000e-06 1.000000e-07
-3.500002e-06 5.000000e-06 1.000000e-07
-3.300000e-06 5.000000e-06 1.000000e-07
-3.100000e-06 5.000000e-06 1.000000e-07
4.700000e-06 5.000000e-06 1.000000e-07
4.100000e-06 5.000000e-06 1.000000e-07
3.900000e-06 5.000000e-06 1.000000e-07
3.700000e-06 5.000000e-06 1.000000e-07
-7.987523e-06 5.193560e-06 0.000000e+00
3.500000e-06 5.000000e-06 1.000000e-07
3.300000e-06 5.000000e-06 1.000000e-07
3.100000e-06 5.000000e-06 1.000000e-07
2.900000e-06 5.000000e-06 1.000000e-07
2.700000e-06 5.000000e-06 1.000000e-07
2.500000e-06 5.000000e-06 1.000000e-07
2.300000e-06 5.000000e-06 1.000000e-07
4.900000e-06 5.000000e-06 1.000000e-07
2.100000e-06 5.000000e-06 1.000000e-07
1.900000e-06 5.000000e-06 1.000000e-07
-8.192468e-06 4.801446e-06 0.000000e+00
1.700000e-06 5.000000e-06 1.000000e-07
1.500000e-06 5.000000e-06 1.000000e-07
1.300000e-06 5.000000e-06 1.000000e-07
5.000000e-07 5.000000e-06 1.000000e-07
1.100000e-06 5.000000e-06 1.000000e-07
3.000000e-07 5.000000e-06 1.000000e-07
9.000000e-07 5.000000e-06 1.000000e-07
-2.700000e-06 5.000000e-06 1.000000e-07
7.000000e-07 5.000000e-06 1.000000e-07
5.000000e-06 1.700000e-06 1.000000e-07
-8.693750e-06 -4.880460e-06 0.000000e+00
5.000000e-06 5.000000e-07 8.333333e-08
5.000000e-06 2.300000e-06 1.000000e-07
5.000000e-06 1.100000e-06 8.333333e-08
5.000000e-06 1.900000e-06 1.000000e-07
5.000000e-06 2.100000e-06 1.000000e-07
5.000000e-06 -4.500000e-06 1.000000e-07
5.000000e-06 2.900000e-06 1.000000e-07
5.000000e-06 4.512346e-06 1.000000e-07
5.000000e-06 4.800000e-06 1.000000e-07
5.000000e-06 -4.000000e-08 8.000000e-08
-8.825660e-06 -4.670718e-06 0.000000e+00
5.000000e-06 4.100343e-06 1.000000e-07
5.000000e-06 4.302058e-06 1.000000e-07
5.000000e-06 3.300000e-06 1.000000e-07
5.000000e-06 3.500002e-06 1.000000e-07
5.000000e-06 3.700010e-06 1.000000e-07
5.000000e-06 3.900057e-06 1.000000e-07
5.000000e-06 3.100000e-06 1.000000e-07
5.000000e-06 -4.700000e-06 1.000000e-07
5.000000e-06 -4.100000e-06 1.000000e-07
5.000000e-06 -3.900000e-06 1.000000e-07
-9.117099e-06 -5.255519e-06 0.000000e+00
5.000000e-06 -3.700000e-06 1.000000e-07
5.000000e-06 -3.500000e-06 1.000000e-07
5.000000e-06 -3.300000e-06 1.000000e-07
5.000000e-06 -3.100000e-06 1.000000e-07
5.000000e-06 -2.900000e-06 1.000000e-07
5.000000e-06 -2.700000e-06 1.000000e-07
5.000000e-06 -2.500000e-06 1.000000e-07
5.000000e-06 -2.300000e-06 1.000000e-07
5.000000e-06 -4.900000e-06 1.000000e-07
5.000000e-06 -2.100000e-06 1.000000e-07
-3.149813e-07 -7.677375e-06 0.000000e+00
5.000000e-06 -1.900000e-06 1.000000e-07
5.000000e-06 -1.700000e-06 1.000000e-07
5.000000e-06 -1.500000e-06 1.000000e-07
5.000000e-06 -1.300000e-06 1.000000e-07
5.000000e-06 -5.000000e-07 1.000000e-07
5.000000e-06 -1.100000e-06 1.000000e-07
5.000000e-06 -3.000000e-07 1.000000e-07
5.000000e-06 -9.000000e-07 1.000000e-07
5.000000e-06 2.700000e-06 1.000000e-07
5.000000e-06 -7.000000e-07 1.000000e-07
2.000000e-06 5.000000e-06 0.000000e+00
-8.478511e-06 -4.596432e-06 0.000000e+00
5.000000e-07 -5.000000e-06 8.333333e-08
1.100000e-06 -5.000000e-06 1.000000e-07
2.100000e-06 -5.000000e-06 1.000000e-07
1.900000e-06 -5.000000e-06 1.000000e-07
1.300000e-06 -5.000000e-06 1.000000e-07
4.512346e-06 -5.000000e-06 1.000000e-07
4.800000e-06 -5.000000e-06 1.000000e-07
-4.500000e-06 -5.000000e-06 1.000000e-07
1.500000e-06 -5.000000e-06 1.000000e-07
1.700000e-06 -5.000000e-06 1.000000e-07
5.349219e-06 -1.817796e-06 0.000000e+00
-4.000000e-08 -5.000000e-06 8.000000e-08
2.900000e-06 -5.000000e-06 1.000000e-07
3.700010e-06 -5.000000e-06 1.000000e-07
3.900057e-06 -5.000000e-06 1.000000e-07
4.100343e-06 -5.000000e-06 1.000000e-07
4.302058e-06 -5.000000e-06 1.000000e-07
3.300000e-06 -5.000000e-06 1.000000e-07
3.500002e-06 -5.000000e-06 1.000000e-07
3.100000e-06 -5.000000e-06 1.000000e-07
2.640000e-06 -5.000000e-06 8.000000e-08
[...]
POINT_DATA 10435
VECTORS 10.000GHz_fone_imag double
-2.234455e+12 2.430861e+12 9.895913e+08
3.856972e+10 3.799112e+10 -5.469068e+06
1.625501e+12 -3.003094e+09 -8.137791e+08
-6.189869e+10 1.216433e+12 2.584134e+09
-2.125725e+11 -2.646769e+11 2.967361e+07
3.905675e+11 1.806323e+10 -4.810175e+08
1.871928e+11 -2.692849e+11 -1.781727e+09
-1.781292e+11 -3.102008e+11 4.032060e+04
-1.976864e+11 -3.275485e+11 -1.988040e+08
2.129866e+11 2.225913e+11 -2.329505e+08
6.030405e+10 -3.701544e+11 -2.999052e+08
6.425848e+10 -3.878997e+11 -5.404257e-06
3.603113e+11 -8.602429e+10 3.683708e+08
4.038671e+11 1.116149e+11 -5.038072e+07
-4.115722e+11 8.009506e+08 -3.519290e+08
-9.529317e+10 2.618465e+11 5.694917e+07
3.773799e+11 -9.232354e+10 -6.362071e-06
-3.871116e+11 -5.930474e+10 -1.231203e+09
2.894464e+10 3.014229e+11 3.008842e+08
-3.517798e+11 1.632707e+09 -1.379899e+08
3.599790e+11 -2.960584e+11 -2.092283e+08
-2.627781e+10 3.298791e+11 3.032985e+08
-3.081996e+10 3.260284e+11 8.208562e+08
7.627808e+10 -2.765183e+11 7.551103e+08
-3.490439e+11 -1.421900e+10 2.103537e+08
-3.895215e+11 3.822923e+09 3.124869e+08
-3.198812e+11 5.678696e+09 -5.040295e+08
-3.863979e+11 -9.287738e+10 -4.193922e+08
3.884284e+11 -6.209486e+10 -2.038859e+08
-4.827417e+10 -3.582031e+11 6.976498e+07
-5.691464e+10 -3.802091e+11 1.249663e+08
-3.494518e+11 -3.627367e+10 8.812305e+08
-1.765802e+11 4.193813e+11 1.693825e+08
1.975510e+11 -6.964834e+10 5.610742e+07
2.102412e+11 -6.552046e+10 1.681932e+08
6.738515e+10 2.231631e+11 2.448862e-07
5.657794e+10 5.862774e+11 8.272633e+06
-4.387716e+09 2.102171e+11 -9.022953e+07
3.175580e+11 -1.290131e+11 2.022007e-06
-2.386044e+11 -1.693595e+11 -7.778821e+08
-2.602772e+11 -1.342891e+11 -5.222638e+08
1.612840e+11 -2.900732e+11 -2.722233e+08
1.105453e+11 1.871575e+11 2.945562e+08
-5.042501e+10 3.401464e+11 3.328949e+08
2.062927e+11 -4.067751e+11 -3.505492e+08
3.891114e+11 -1.366890e+10 -2.545772e+07
-2.744069e+11 -1.195195e+11 1.587036e+08
6.198698e+10 5.844770e+11 -1.323581e+09
2.640585e+11 1.688806e+11 1.680194e+08
-2.132668e+10 3.079959e+11 -1.566240e+08
2.061261e+11 -1.116592e+11 2.217494e+08
2.318903e+11 -1.313443e+11 -4.184851e+08
-4.095494e+10 3.081694e+11 -3.145851e+08
2.421220e+11 3.976820e+11 3.400785e+08
6.764647e+10 -2.664370e+11 -1.154123e+08
2.556523e+11 -7.081301e+10 -7.515281e+07
2.849530e+11 -6.880386e+10 8.184723e+08
6.468470e+10 -2.509403e+11 -2.196343e+08
4.825517e+11 3.187040e+11 3.833988e+06
3.728396e+10 2.192965e+11 4.610026e-07
-2.262498e+11 -1.077780e+11 -1.438956e+09
1.853732e+11 2.404518e+11 -8.047614e+08
-2.561021e+11 1.272798e+11 3.412308e+08
3.770375e+10 -2.398595e+11 -7.089108e-07
2.369352e+11 3.119335e+10 -3.757221e+06
1.695139e+11 2.159004e+11 -3.873996e+08
1.468716e+11 2.428324e+11 3.406480e+08
-1.763248e+11 -3.435499e+11 9.693874e+08
-8.329781e+10 -2.097827e+11 -6.938052e+08
1.937540e+11 -1.069205e+12 2.141378e+09
-8.363439e+10 -2.059057e+11 -7.589550e+08
2.201226e+11 -6.113846e+10 8.645731e-06
5.876542e+10 -2.360831e+11 2.270681e+08
4.831749e+10 -2.426222e+11 -6.535054e+07
-1.833718e+11 -3.326255e+11 6.065619e+08
2.373646e+11 1.268380e+11 7.604318e+08
-1.886426e+11 -3.802431e+11 -5.678464e+07
2.739467e+11 9.846878e+10 -2.860994e+07
1.391724e+09 -2.183973e+11 2.510273e+08
-3.830026e+11 -9.919159e+10 4.093055e+08
1.482624e+11 -1.151976e+12 3.325964e+08
2.294590e+11 2.214819e+11 9.863497e+07
-1.807349e+11 6.846377e+10 3.138498e+08
2.825879e+10 -1.872734e+11 3.189121e+08
3.799219e+10 2.152099e+11 -1.513540e-07
2.222624e+11 -7.444602e+09 1.431165e+07
-1.447080e+11 1.234479e+11 -2.078284e+08
-3.660763e-06 1.667548e+12 -1.059174e+10
-1.085603e+09 1.685545e+12 -3.808292e+09
-1.004035e-05 1.741834e+12 -4.261543e+09
-3.755027e+09 1.706571e+12 -4.900758e+08
1.672761e+11 -9.650481e+11 -1.421467e+09
8.118058e+08 1.693894e+12 3.510750e+09
-2.674146e-06 2.364796e+12 -4.123175e+09
-5.689764e+10 3.035942e+12 1.468065e+10
-2.383423e-05 2.373480e+12 4.789107e+09
-3.713063e+09 1.692165e+12 -1.060524e+08
-2.864286e+08 1.717150e+12 -4.063805e+09
-3.256577e+09 1.664829e+12 3.715703e+08
-1.768473e-05 1.827123e+12 4.594520e+09
9.981974e-06 1.841247e+12 4.421811e+09
-2.112329e-05 1.874609e+12 4.555796e+09
-3.246577e+11 5.503636e+11 -1.822681e+09
1.072845e-05 2.223902e+12 -4.067464e+09
-1.132004e-05 2.118447e+12 -4.972850e+08
5.680477e-05 1.903409e+12 3.326354e+09
-1.854489e-05 2.029652e+12 1.065431e+08
-8.109713e-06 1.980129e+12 -5.768693e+09
-3.393249e+09 1.763322e+12 -4.624976e+09
2.323840e+10 2.650989e+12 -4.212312e+09
-8.664616e-06 1.661526e+12 -1.321076e+09
1.119108e-05 2.102826e+12 4.616225e+09
-2.237891e-05 2.023997e+12 -6.840126e+08
1.654117e+12 -5.988548e+09 2.422345e+09
-2.933654e+11 4.953919e+11 -3.412352e+08
6.007418e-06 1.970864e+12 1.055935e+09
-1.178066e-05 1.926195e+12 -2.741581e+09
-1.716216e-05 1.889466e+12 -5.591972e+09
-2.314984e-05 1.839393e+12 -1.839762e+09
1.113160e-04 1.808417e+12 -3.182215e+09
1.162741e-05 1.798003e+12 4.156893e+09
6.087082e-06 1.783046e+12 3.166917e+09
0.000000e+00 1.759573e+12 -2.446234e+08
2.411309e-05 3.412532e+12 -2.832636e+10
-4.334742e-04 1.722738e+12 2.538666e+09
1.168413e+10 1.247277e+12 -3.057169e+09
4.278664e-05 1.727240e+12 8.262861e+09
8.871913e+09 1.706519e+12 -2.142481e+10
7.589527e-06 1.676381e+12 -3.614256e+09
1.042751e-05 1.695457e+12 1.078936e+09
5.906184e-06 1.699214e+12 -7.158162e+08
-1.134010e-05 1.678768e+12 -2.834510e+09
7.521278e-06 1.705578e+12 -3.851978e+07
-1.154519e-05 1.686443e+12 3.421842e+08
1.702576e+12 -6.942455e-06 3.425651e+09
1.678485e+12 1.091001e-05 -5.153209e+09
9.313834e+09 1.490499e+12 -2.685017e+09
1.739721e+12 5.753857e+09 -6.413611e+09
1.694570e+12 -1.169295e-05 -5.655689e+09
1.733980e+12 5.278613e+09 -1.134467e+08
1.745425e+12 -1.716322e+09 -6.509528e+09
2.344154e+12 -1.968779e+10 -1.673798e+09
1.831107e+12 -1.231019e-05 -4.455052e+09
2.416569e+12 -1.871685e-06 -1.149090e+10
2.982046e+12 4.888063e+10 -2.139667e+09
1.660505e+12 -1.170683e+09 -1.375951e+09
2.207564e+12 1.131104e+10 7.940935e+09
1.156395e+10 1.478541e+12 -1.159818e+09
2.121521e+12 -7.565858e-05 -2.476528e+09
2.028744e+12 1.355689e-05 7.512862e+09
1.979329e+12 -1.428457e-05 9.193145e+09
1.893273e+12 4.570138e+09 -5.694946e+09
1.872414e+12 9.890797e-06 -1.148663e+10
1.853211e+12 -5.131283e-07 9.596522e+09
2.648750e+12 1.112742e-05 4.411571e+09
2.097535e+12 1.892786e-05 -9.837920e+08
2.031281e+12 -1.264040e-05 -4.252765e+09
1.951484e+12 -8.504143e+08 3.364614e+09
1.444161e+11 2.940526e+11 3.704623e+08
1.943747e+12 -7.392814e-06 -1.545405e+09
1.882020e+12 0.000000e+00 -5.035120e+08
1.841151e+12 -2.007886e-05 1.199750e+10
1.820580e+12 7.880635e+09 2.140044e+10
1.789257e+12 -1.234415e+10 -2.146820e+10
1.782334e+12 9.304809e-06 8.572622e+09
1.760783e+12 -6.778606e-06 -3.034414e+09
3.421382e+12 1.200405e-04 3.552406e+10
1.742380e+12 -2.204840e-05 -3.627655e+09
1.723574e+12 -4.016572e-05 4.183896e+08
1.273084e+11 2.936801e+11 -7.002099e+07
1.684090e+12 -4.269382e+08 -6.170012e+09
1.703628e+12 -1.034665e-05 -3.045956e+09
1.701968e+12 5.809350e-06 4.473975e+08
1.672866e+12 -2.060952e-05 -5.388687e+09
1.692584e+12 1.719693e-05 2.431450e+09
1.676784e+12 5.820651e-06 3.246241e+08
1.696921e+12 4.660066e-06 5.930106e+08
1.776122e+12 2.985682e+09 -3.027930e+09
1.681806e+12 -8.470329e-22 1.559923e+08
0.000000e+00 -1.694571e+12 3.342813e+09
-1.133763e+11 2.623464e+11 5.538993e+07
3.707673e-06 -1.674726e+12 -1.029710e+09
1.899378e-05 -1.763153e+12 -3.244503e+08
1.134357e-05 -1.678481e+12 1.090360e+07
5.206096e+09 -1.724790e+12 3.790981e+08
-1.007209e-05 -1.748080e+12 8.010012e+08
-1.263273e-05 -2.377058e+12 -8.126668e+09
4.858577e-06 -1.821155e+12 4.607338e+09
-1.645234e-05 -2.389926e+12 -1.329545e+10
4.312957e+10 -2.953991e+12 -3.694721e+09
-5.103936e+08 -1.674841e+12 2.282428e+09
-1.032098e+11 2.610630e+11 9.415570e+07
1.619137e-05 -2.105955e+12 -1.417761e+09
-4.773910e-05 -2.224125e+12 -4.899014e+09
-1.965252e-05 -1.872748e+12 2.594726e+09
6.465093e-06 -1.933851e+12 8.682567e+09
-2.312129e+09 -1.965751e+12 -7.852246e+09
1.499965e-05 -2.021239e+12 7.256368e+09
5.593297e-12 -1.859698e+12 -8.804898e+09
-2.194445e-05 -2.667871e+12 -1.660745e+10
-8.660064e-07 -2.098133e+12 -5.561976e+09
1.150049e-05 -2.032368e+12 8.803194e+09
-9.761239e+10 2.256481e+11 5.726384e+07
1.984916e-06 -1.964390e+12 5.436952e+09
5.147982e-04 -1.898630e+12 2.113567e+09
2.356832e-05 -1.887645e+12 -2.044013e+09
2.098247e-05 -1.843927e+12 -2.684141e+09
-5.863950e-06 -1.810524e+12 -1.466648e+09
1.165911e-05 -1.798666e+12 1.038758e+09
-1.953517e-05 -1.766982e+12 2.229988e+09
-6.323129e+08 -1.746695e+12 -1.288388e+10
2.015753e-05 -3.243201e+12 1.324314e+10
9.858561e-07 -1.741558e+12 9.651769e+09
-4.132615e+11 5.985491e+09 3.341170e+08
4.250139e-06 -1.721113e+12 -2.825795e+09
5.508085e-06 -1.715584e+12 -8.060471e+08
2.783927e+09 -1.686749e+12 1.080957e+10
2.071351e-05 -1.696598e+12 4.908219e+09
-2.232078e+09 -1.669746e+12 2.608481e+09
-6.281576e-06 -1.699729e+12 -5.208321e+09
-1.993863e-05 -1.670269e+12 -4.623091e+09
1.331662e-05 -1.684820e+12 -1.032781e+10
-3.949321e-05 -1.781146e+12 5.617613e+09
1.658389e-05 -1.681895e+12 4.256841e+09
1.682356e+12 -4.207955e+09 -2.649175e+08
-1.105979e+11 2.877934e+11 4.125958e+08
-1.661202e+12 5.091958e+09 -7.222568e+09
-1.697370e+12 -6.556136e-06 7.329302e+08
-1.754594e+12 1.223436e-06 4.196871e+09
-1.711427e+12 9.916229e+08 -3.031335e+09
-1.681351e+12 6.370726e-06 -1.329200e+09
-2.369330e+12 2.186640e-06 -7.072400e+09
-2.900380e+12 -4.454980e+10 5.401524e+09
-2.355591e+12 -6.710821e-06 1.410933e+09
-1.687668e+12 -3.978999e+09 1.207225e+09
-1.703184e+12 -2.592535e+09 3.404149e+09
-1.673069e+10 -1.187793e+12 2.818086e+08
-1.661972e+12 4.976788e+08 1.088087e+09
-1.833594e+12 6.277420e-06 -4.331243e+09
-1.958509e+12 -3.953737e+09 7.356133e+09
-2.029824e+12 7.818465e-06 3.379451e+09
-2.110635e+12 1.074072e-05 2.045468e+09
-2.231943e+12 7.514776e-06 2.108619e+09
-1.895130e+12 8.382995e-06 -4.980045e+09
-1.931227e+12 1.469266e-05 -6.671781e+09
-1.842515e+12 -2.379219e+09 6.979954e+09
-1.785066e+12 -7.622756e+09 -4.264852e+09
-1.421251e+10 -1.417560e+12 -1.304827e+09
-2.655823e+12 3.330109e+10 -5.515866e+09
-1.671161e+12 -2.658269e-05 -1.680928e+09
-2.097858e+12 -1.011490e-05 4.463835e+08
-2.030759e+12 1.816031e-06 -4.691651e+08
-1.964040e+12 1.966522e+09 4.984478e+09
-1.923363e+12 3.783815e-05 -4.145826e+09
-1.877691e+12 -1.124769e-04 -3.930715e+09
-1.850099e+12 -1.149890e-05 -2.617332e+08
-1.826635e+12 3.277175e-06 2.296143e+09
-1.806037e+12 -9.561538e-08 4.262573e+09
-1.119522e+10 -1.416021e+12 1.959257e+09
-1.785185e+12 -7.499197e-06 4.823101e+09
-1.766667e+12 6.287684e-06 -2.318758e+07
-3.545629e+12 -1.105998e-05 -2.513392e+09
-1.727165e+12 -1.395046e-06 9.178334e+07
-1.715534e+12 1.282273e-04 -2.386145e+09
-1.718598e+12 2.265187e-05 -2.248648e+09
-1.712335e+12 5.768537e-06 -6.445086e+09
-1.691210e+12 -2.906099e-05 8.661939e+08
-1.669419e+12 -4.101094e+09 -4.485326e+09
-1.670983e+12 -2.102594e-05 -5.090204e+09
-6.535647e+11 -1.301538e+10 -1.575206e+08
-1.693599e+12 5.908588e-06 7.277416e+09
-1.686153e+12 -2.346678e-05 -9.732164e+09
-1.741259e+12 1.354040e+10 7.097540e+08
7.465726e+09 1.627762e+12 1.071563e+10
-9.437424e+09 -1.792054e+12 -6.422606e+08
-2.675119e+10 1.870388e+12 -1.375233e+09
-1.617399e+12 4.080423e+08 4.367977e+08
7.341516e+09 1.558110e+12 4.117491e+09
-1.757763e+12 7.468037e+09 -6.758082e+08
-1.984349e+12 -4.038669e+10 -2.926331e+08
-7.093038e+11 -1.412197e+10 2.929404e+08
1.594356e+12 4.512752e+08 1.679596e+09
1.581942e+12 -3.848991e+09 2.248325e+09
1.553847e+12 -2.974895e+09 8.562088e+08
1.607861e+12 -7.684176e+09 1.852792e+09
1.039044e+10 1.694203e+12 1.841520e+09
4.775421e+09 -1.558432e+12 -3.571537e+08
3.335672e+10 -1.862966e+12 2.439411e+09
-1.663000e+12 1.000776e+10 -3.218239e+09
-1.800742e+12 1.485032e+10 1.799436e+09
2.002775e+12 2.554306e+10 -4.095630e+09
-6.935849e+11 -1.228203e+10 -5.058297e+08
1.262754e+10 1.819972e+12 2.325115e+09
-4.466904e+10 2.103938e+12 1.724813e+08
1.721688e+12 7.495789e+09 1.841427e+09
7.580989e+09 1.679465e+12 -1.243299e+09
1.540412e+10 1.847320e+12 2.119753e+09
-1.539676e+12 3.640358e+09 3.569167e+09
-1.838532e+12 1.463322e+10 2.041423e+09
-3.726925e+09 -1.531477e+12 2.769369e+09
1.566146e+12 6.270227e+09 8.965121e+08
-1.676743e+12 9.313903e+09 -6.021450e+08
-1.486521e+10 5.320602e+11 -6.685040e+08
1.862023e+12 -1.028504e+10 -1.581524e+09
5.734896e+09 1.591459e+12 -7.859860e+08
-1.593856e+12 7.550839e+07 2.149611e+09
-1.340880e+10 -1.671353e+12 -2.315244e+08
1.642210e+12 -5.479462e+09 8.884882e+08
-8.051439e+08 -1.593768e+12 1.997526e+09
-6.306792e+09 1.738880e+12 4.025936e+09
1.756041e+09 -1.566138e+12 3.005583e+08
8.728071e+09 -1.730816e+12 -1.193846e+09
1.613581e+12 9.087495e+09 -1.086986e+09
-1.785735e+10 5.501607e+11 -9.778043e+08
-1.710256e+12 1.130990e+10 -3.349197e+08
1.575144e+12 1.220280e+10 -3.448150e+09
-3.196862e+12 7.617335e+11 -4.732461e+09
6.892383e+10 2.214261e+12 2.421879e+09
1.802454e+12 -2.769348e+10 3.628810e+09
1.569705e+12 -8.521363e+08 1.881677e+09
2.107097e+12 5.937560e+10 2.644609e+09
1.540922e+12 -1.852561e+09 4.003106e+08
-2.988983e+09 1.610689e+12 -1.678322e+09
-2.234077e+09 -1.581344e+12 -2.561280e+09
-1.355399e+10 5.514522e+11 9.554221e+08
-2.369296e+12 1.130902e+11 -3.968772e+09
1.604338e+12 -1.768930e+09 1.430817e+09
-5.519718e+08 1.529582e+12 2.549256e+08
3.897890e+09 1.650644e+12 -5.151733e+07
-1.593443e+12 -9.000327e+09 -2.897413e+09
-1.072216e+10 1.704907e+12 -2.012529e+09
2.948882e+10 1.965123e+12 4.264893e+09
-8.275208e+08 1.603708e+12 9.197423e+08
1.252359e+10 1.645570e+12 -8.382733e+08
-6.310230e+08 1.590502e+12 1.106816e+09
1.702462e+12 -3.428087e+09 1.354318e+08
-1.899748e+10 5.197834e+11 -1.031233e+08
-8.165079e+09 -1.679135e+12 3.740648e+08
1.621565e+12 9.426578e+08 -8.050717e+07
-1.601940e+12 -1.850182e+09 2.251530e+09
1.742016e+12 1.819929e+10 -2.804233e+09
-1.590719e+12 1.876754e+09 8.869935e+07
2.101836e+12 -7.527789e+10 -5.868040e+09
1.906556e+12 -2.618735e+10 -8.528694e+08
4.185675e+09 1.576627e+12 -1.336972e+10
-1.671412e+12 -3.405129e+09 3.443566e+09
1.564294e+12 -3.892559e+09 -5.605631e+08
3.746418e+11 -8.213434e+10 5.102913e+08
-1.605288e+11 2.166171e+12 -2.953617e+09
-2.175299e+12 6.805946e+10 6.399626e+07
-1.719777e+12 -3.733980e+09 -6.067156e+08
1.678406e+12 -6.242471e+09 1.188562e+09
1.539111e+12 -8.861137e+09 -3.549992e+09
3.318163e+09 -1.646758e+12 5.307613e+08
1.732096e+12 9.874379e+09 -2.889147e+09
-7.842849e+09 1.579406e+12 -4.839890e+08
1.354800e+10 -1.748505e+12 -1.934063e+08
-1.558028e+12 3.009350e+08 8.877274e+08
4.069856e+11 -8.599563e+10 4.137412e+07
4.677638e+09 -1.655530e+12 -1.520877e+08
-4.874268e+09 -1.619482e+12 -2.142477e+09
7.140059e+09 -1.642460e+12 -7.658098e+08
1.937436e+09 1.522298e+12 1.397373e+08
1.993480e+10 -1.838016e+12 -5.234677e+09
-3.080351e+10 -1.694162e+12 -8.713597e+08
-5.777909e+09 -1.603654e+12 -1.519217e+09
-9.991535e+10 -2.476662e+12 1.067519e+10
1.624181e+12 -1.144122e+10 -9.475227e+09
-2.102895e+12 -4.524911e+10 2.077277e+09
3.786872e+11 -9.208068e+10 5.081613e+08
-1.569989e+12 2.936798e+09 3.309224e+08
-1.706948e+12 1.539292e+09 -5.418788e+07
-2.421278e+09 -1.565032e+12 7.514600e+09
1.862081e+12 1.590388e+10 -1.785762e+08
1.951527e+12 -2.825045e+10 7.050302e+08
1.497811e+12 3.022674e+12 3.532992e+10
1.188210e+09 1.594483e+12 2.769698e+07
1.748080e+12 -2.144451e+10 8.132563e+08
-2.282829e+10 -1.914475e+12 1.122446e+09
-1.846785e+12 -2.306511e+10 3.889461e+09
-1.230683e+11 -2.224825e+11 1.139035e+08
1.898158e+12 2.875427e+10 -1.540087e+09
-1.899807e+12 -2.788983e+10 -3.681116e+09
5.372218e+09 1.550907e+12 -1.074878e+09
1.272420e+10 1.785628e+12 7.778197e+08
-4.268461e+11 -2.943566e+12 1.842860e+10
-9.192336e+08 -1.625824e+12 -3.590237e+09
-1.830102e+12 -7.450099e+09 -1.192506e+09
-1.891884e+12 2.854765e+10 -4.830243e+08
-3.038941e+10 -1.929064e+12 -1.430460e+09
4.568662e+10 -2.088691e+12 -1.031099e+09
4.625296e+11 6.129076e+10 -1.913181e+08
-2.340242e+10 1.731877e+12 2.291774e+09
-1.728231e+12 -1.245870e+10 6.280977e+09
3.987531e+09 -1.548398e+12 1.929496e+08
-6.994826e+10 -2.215289e+12 -1.464918e+09
4.183804e+10 -1.971503e+12 3.321840e+08
-1.936635e+12 3.451158e+10 -1.921407e+09
-1.599846e+12 8.177393e+09 2.549491e+09
3.056152e+12 -5.676881e+11 -7.659282e+09
-2.625478e+10 -1.848910e+12 7.695938e+08
-2.230999e+11 2.578829e+12 1.341071e+08
4.564668e+11 5.769151e+10 -5.942837e+08
-5.415810e+09 -1.568614e+12 1.153907e+09
-2.191020e+12 -7.881743e+10 -1.681627e+08
1.740654e+12 1.166185e+10 1.520605e+09
2.332917e+09 -1.572978e+12 8.488442e+08
2.469764e+12 -1.466764e+11 -6.188867e+08
1.711853e+12 -5.903969e+09 9.745700e+09
1.633311e+12 8.851558e+09 4.918746e+08
1.712328e+12 -9.685297e+09 -5.741430e+08
1.548263e+12 4.577764e+09 2.286146e+09
-9.778368e+09 1.560773e+12 -1.157640e+08
4.309430e+11 5.850697e+10 -2.267128e+08
2.935917e+09 -1.554163e+12 3.065047e+09
4.845072e+11 -3.003330e+12 3.358591e+10
2.512697e+09 1.529351e+12 3.059624e+08
-1.561659e+12 -1.886067e+09 -5.946680e+08
-2.423117e+12 -1.667931e+11 -8.674946e+09
8.598313e+10 -2.239860e+12 5.429474e+09
-1.565001e+12 -3.308706e+09 -5.146465e+08
-1.794234e+12 -1.126995e+10 -4.096448e+08
-6.830696e+09 1.551126e+12 -1.339051e+08
1.548978e+12 6.829999e+09 7.271155e+08
4.888006e+11 5.930781e+10 4.841626e+08
-3.413098e+09 1.584067e+12 2.331092e+09
-1.517271e+12 -7.851899e+08 -3.967063e+09
1.800964e+09 -1.559520e+12 3.933786e+07
2.027061e+10 -1.826673e+12 2.833283e+09
1.589551e+12 1.165379e+09 3.281024e+09
-1.551891e+12 -1.998099e+09 4.121309e+09
2.519671e+12 1.483304e+11 5.829785e+09
1.950247e+09 -1.547414e+12 -2.663828e+09
-4.272528e+09 1.584880e+12 2.870888e+08
-1.597716e+12 -1.527229e+10 -1.419245e+07
-4.578602e+11 3.616215e+10 -2.386728e+07
3.147651e+09 -2.558615e+11 1.113196e+08
-7.865434e+09 1.551578e+12 -3.046012e+08
1.562253e+12 3.144513e+09 -1.723277e+08
-9.451050e+09 1.608744e+12 -3.023222e+09
-8.328130e+09 2.429201e+11 -5.012239e+07
-3.144124e+08 1.575389e+12 1.290954e+09
-2.482905e+11 -6.881770e+09 6.069656e+07
9.802089e+10 3.802151e+10 5.751637e+07
-5.663342e+10 -5.336138e+10 -6.128074e+07
2.662592e+10 -1.258863e+11 -1.858083e+07
1.722841e+12 -3.661115e+09 1.269662e+09
-4.426975e+11 3.355206e+10 1.836088e+09
-1.404943e+11 -2.469956e+10 1.857650e+08
1.917227e+10 2.022592e+11 9.388477e+07
-4.963773e+10 5.128986e+10 9.084021e+06
1.853798e+11 -2.250236e+10 -3.135327e+07
2.433975e+11 9.337615e+09 3.746270e+07
-1.408934e+10 -2.181121e+11 -4.033053e+07
1.504885e+11 -2.237217e+10 -1.661891e+07
4.123882e+10 9.376365e+10 1.475578e+08
-1.354953e+11 2.642347e+10 5.999074e+07
1.974897e+11 2.118955e+10 -3.978319e+06
-4.744951e+11 3.146617e+10 2.568666e+08
3.011130e+10 -7.880509e+10 3.963889e+06
-2.128329e+11 1.511152e+10 6.612723e+07
1.654026e+12 1.127817e+10 -1.689131e+09
-1.305516e+10 -1.736317e+12 9.165174e+08
-1.576729e+12 5.851085e+09 -2.867276e+08
5.471161e+09 1.663138e+12 -1.117754e+10
6.944872e+09 -1.601668e+12 -1.341117e+09
-1.948801e+10 1.879925e+12 -1.244915e+09
-3.659594e+10 1.994681e+12 7.452904e+08
2.001730e+12 4.302397e+10 9.916841e+09
-4.463530e+11 3.009242e+10 -1.797944e+08
1.752780e+12 2.355896e+10 -5.592663e+09
-4.036474e+09 1.559201e+12 -2.328402e+09
-1.564864e+12 -8.256117e+09 3.234420e+08
-1.575105e+10 1.752746e+12 2.016615e+09
1.639360e+12 -6.041995e+09 1.119770e+09
1.801377e+12 -1.668896e+10 4.423172e+09
1.683855e+10 -1.645422e+12 -3.134466e+08
-1.580378e+12 -1.627568e+09 -6.637405e+09
-1.523895e+12 4.544250e+09 -4.292317e+09
-1.845952e+12 1.805623e+10 1.143534e+10
-6.698456e+11 -1.614049e+10 -8.241881e+07
2.309356e+12 6.649369e+10 -2.138590e+09
5.312180e+08 1.615795e+12 7.786184e+08
1.725990e+10 1.692712e+12 -2.038397e+09
-2.601351e+12 2.263192e+11 3.207728e+09
-1.713781e+12 -1.275406e+10 -2.362645e+09
1.701561e+12 4.459748e+09 4.832548e+09
1.970842e+11 2.540786e+12 8.077442e+08
2.270180e+12 -8.826396e+10 -3.751384e+09
1.627460e+12 1.399924e+08 -6.649956e+08
-1.819857e+12 -1.696003e+10 3.977198e+09
1.268193e+12 1.346730e+11 1.651876e+09