# vtk DataFile Version 2.0
Electric current density generated by TTH
ASCII
DATASET UNSTRUCTURED_GRID
POINTS 10140 double
-5.000000e-06 -5.000000e-06 0.000000e+00
-1.500000e-05 1.500000e-05 2.000000e-07
2.000000e-06 5.000000e-06 0.000000e+00
-7.211580e-06 5.791659e-08 0.000000e+00
-5.000000e-06 3.500000e-06 1.000000e-07
-5.000000e-06 3.300000e-06 1.000000e-07
-5.000000e-06 3.100000e-06 1.000000e-07
-5.000000e-06 2.900000e-06 1.000000e-07
-5.000000e-06 2.700000e-06 1.000000e-07
-5.000000e-06 2.500000e-06 1.000000e-07
-5.000000e-06 2.300000e-06 1.000000e-07
-5.000000e-06 4.900000e-06 1.000000e-07
-5.000000e-06 2.100000e-06 1.000000e-07
-5.000000e-06 1.900000e-06 1.000000e-07
-7.191288e-06 -1.742845e-07 0.000000e+00
-5.000000e-06 1.700000e-06 1.000000e-07
-5.000000e-06 1.500000e-06 1.000000e-07
-5.000000e-06 1.300000e-06 1.000000e-07
-5.000000e-06 1.100000e-06 1.000000e-07
-5.000000e-06 5.000000e-07 1.000000e-07
-5.000000e-06 9.000000e-07 1.000000e-07
-5.000000e-06 7.000000e-07 1.000000e-07
-1.700000e-06 5.000000e-06 1.000000e-07
-5.000000e-07 5.000000e-06 8.333333e-08
-2.300000e-06 5.000000e-06 1.000000e-07
-6.999985e-06 -1.926184e-08 0.000000e+00
-1.100000e-06 5.000000e-06 8.333333e-08
-1.900000e-06 5.000000e-06 1.000000e-07
-2.100000e-06 5.000000e-06 1.000000e-07
4.500000e-06 5.000000e-06 1.000000e-07
-2.900000e-06 5.000000e-06 1.000000e-07
-4.512346e-06 5.000000e-06 1.000000e-07
-4.800000e-06 5.000000e-06 1.000000e-07
4.000000e-08 5.000000e-06 8.000000e-08
-4.302058e-06 5.000000e-06 1.000000e-07
-4.100343e-06 5.000000e-06 1.000000e-07
-7.430927e-06 -6.530127e-08 0.000000e+00
-3.900057e-06 5.000000e-06 1.000000e-07
-3.700010e-06 5.000000e-06 1.000000e-07
-3.500002e-06 5.000000e-06 1.000000e-07
-3.300000e-06 5.000000e-06 1.000000e-07
-3.100000e-06 5.000000e-06 1.000000e-07
4.700000e-06 5.000000e-06 1.000000e-07
4.100000e-06 5.000000e-06 1.000000e-07
3.900000e-06 5.000000e-06 1.000000e-07
3.700000e-06 5.000000e-06 1.000000e-07
3.500000e-06 5.000000e-06 1.000000e-07
7.325259e-06 6.131861e-06 0.000000e+00
3.300000e-06 5.000000e-06 1.000000e-07
3.100000e-06 5.000000e-06 1.000000e-07
2.900000e-06 5.000000e-06 1.000000e-07
2.700000e-06 5.000000e-06 1.000000e-07
2.500000e-06 5.000000e-06 1.000000e-07
2.300000e-06 5.000000e-06 1.000000e-07
4.900000e-06 5.000000e-06 1.000000e-07
2.100000e-06 5.000000e-06 1.000000e-07
1.900000e-06 5.000000e-06 1.000000e-07
1.700000e-06 5.000000e-06 1.000000e-07
9.933812e-07 -7.136577e-06 0.000000e+00
1.500000e-06 5.000000e-06 1.000000e-07
1.300000e-06 5.000000e-06 1.000000e-07
5.000000e-07 5.000000e-06 1.000000e-07
1.100000e-06 5.000000e-06 1.000000e-07
3.000000e-07 5.000000e-06 1.000000e-07
9.000000e-07 5.000000e-06 1.000000e-07
-2.700000e-06 5.000000e-06 1.000000e-07
7.000000e-07 5.000000e-06 1.000000e-07
5.000000e-06 1.700000e-06 1.000000e-07
5.000000e-06 5.000000e-07 8.333333e-08
1.021619e-06 -6.962615e-06 0.000000e+00
5.000000e-06 2.300000e-06 1.000000e-07
5.000000e-06 1.100000e-06 8.333333e-08
5.000000e-06 1.900000e-06 1.000000e-07
5.000000e-06 2.100000e-06 1.000000e-07
5.000000e-06 -4.500000e-06 1.000000e-07
5.000000e-06 2.900000e-06 1.000000e-07
5.000000e-06 4.512346e-06 1.000000e-07
5.000000e-06 4.800000e-06 1.000000e-07
5.000000e-06 -4.000000e-08 8.000000e-08
5.000000e-06 4.100343e-06 1.000000e-07
8.466082e-07 -7.012518e-06 0.000000e+00
5.000000e-06 4.302058e-06 1.000000e-07
5.000000e-06 3.300000e-06 1.000000e-07
5.000000e-06 3.500002e-06 1.000000e-07
5.000000e-06 3.700010e-06 1.000000e-07
5.000000e-06 3.900057e-06 1.000000e-07
5.000000e-06 3.100000e-06 1.000000e-07
5.000000e-06 -4.700000e-06 1.000000e-07
5.000000e-06 -4.100000e-06 1.000000e-07
5.000000e-06 -3.900000e-06 1.000000e-07
5.000000e-06 -3.700000e-06 1.000000e-07
8.809945e-07 -6.846104e-06 0.000000e+00
5.000000e-06 -3.500000e-06 1.000000e-07
5.000000e-06 -3.300000e-06 1.000000e-07
5.000000e-06 -3.100000e-06 1.000000e-07
5.000000e-06 -2.900000e-06 1.000000e-07
5.000000e-06 -2.700000e-06 1.000000e-07
5.000000e-06 -2.500000e-06 1.000000e-07
5.000000e-06 -2.300000e-06 1.000000e-07
5.000000e-06 -4.900000e-06 1.000000e-07
5.000000e-06 -2.100000e-06 1.000000e-07
5.000000e-06 -1.900000e-06 1.000000e-07
-1.764918e-06 -6.028868e-06 0.000000e+00
5.000000e-06 -1.700000e-06 1.000000e-07
5.000000e-06 -1.500000e-06 1.000000e-07
5.000000e-06 -1.300000e-06 1.000000e-07
5.000000e-06 -5.000000e-07 1.000000e-07
5.000000e-06 -1.100000e-06 1.000000e-07
5.000000e-06 -3.000000e-07 1.000000e-07
5.000000e-06 -9.000000e-07 1.000000e-07
5.000000e-06 2.700000e-06 1.000000e-07
5.000000e-06 -7.000000e-07 1.000000e-07
5.000000e-07 -5.000000e-06 8.333333e-08
2.200000e-06 5.000000e-06 0.000000e+00
-1.970753e-06 -6.114034e-06 0.000000e+00
1.100000e-06 -5.000000e-06 1.000000e-07
2.100000e-06 -5.000000e-06 1.000000e-07
1.900000e-06 -5.000000e-06 1.000000e-07
1.300000e-06 -5.000000e-06 1.000000e-07
4.512346e-06 -5.000000e-06 1.000000e-07
4.800000e-06 -5.000000e-06 1.000000e-07
-4.500000e-06 -5.000000e-06 1.000000e-07
1.500000e-06 -5.000000e-06 1.000000e-07
1.700000e-06 -5.000000e-06 1.000000e-07
-4.000000e-08 -5.000000e-06 8.000000e-08
-1.845027e-06 -6.249955e-06 0.000000e+00
2.900000e-06 -5.000000e-06 1.000000e-07
3.700010e-06 -5.000000e-06 1.000000e-07
3.900057e-06 -5.000000e-06 1.000000e-07
4.100343e-06 -5.000000e-06 1.000000e-07
4.302058e-06 -5.000000e-06 1.000000e-07
3.300000e-06 -5.000000e-06 1.000000e-07
3.500002e-06 -5.000000e-06 1.000000e-07
3.100000e-06 -5.000000e-06 1.000000e-07
2.640000e-06 -5.000000e-06 8.000000e-08
-4.700000e-06 -5.000000e-06 1.000000e-07
-1.925722e-06 -5.955568e-06 0.000000e+00
-3.000000e-07 -5.000000e-06 1.000000e-07
-4.100000e-06 -5.000000e-06 1.000000e-07
-3.900000e-06 -5.000000e-06 1.000000e-07
-3.700000e-06 -5.000000e-06 1.000000e-07
-3.500000e-06 -5.000000e-06 1.000000e-07
-3.300000e-06 -5.000000e-06 1.000000e-07
-3.100000e-06 -5.000000e-06 1.000000e-07
-2.900000e-06 -5.000000e-06 1.000000e-07
-2.700000e-06 -5.000000e-06 1.000000e-07
-2.500000e-06 -5.000000e-06 1.000000e-07
6.242036e-06 2.881356e-06 0.000000e+00
-2.300000e-06 -5.000000e-06 1.000000e-07
-4.900000e-06 -5.000000e-06 1.000000e-07
-2.100000e-06 -5.000000e-06 1.000000e-07
-1.900000e-06 -5.000000e-06 1.000000e-07
-1.700000e-06 -5.000000e-06 1.000000e-07
-1.500000e-06 -5.000000e-06 1.000000e-07
-1.300000e-06 -5.000000e-06 1.000000e-07
-1.100000e-06 -5.000000e-06 1.000000e-07
-5.000000e-07 -5.000000e-06 1.000000e-07
-9.000000e-07 -5.000000e-06 1.000000e-07
6.053156e-06 2.806136e-06 0.000000e+00
-7.000000e-07 -5.000000e-06 1.000000e-07
6.169041e-06 2.729026e-06 0.000000e+00
6.082922e-06 2.959454e-06 0.000000e+00
8.714753e-07 -5.241304e-06 0.000000e+00
6.473799e-07 -5.168885e-06 0.000000e+00
-7.912534e-06 -4.299082e-06 0.000000e+00
2.400000e-06 5.000000e-06 0.000000e+00
-6.744054e-06 7.074364e-06 0.000000e+00
-6.945937e-06 6.825935e-06 0.000000e+00
-6.465580e-06 6.939423e-06 0.000000e+00
3.058601e-06 6.601529e-06 0.000000e+00
3.214068e-06 6.578122e-06 0.000000e+00
3.121802e-06 6.726356e-06 0.000000e+00
-7.036434e-06 7.148707e-06 0.000000e+00
-6.736028e-06 6.657454e-06 0.000000e+00
-7.024361e-06 6.419803e-06 0.000000e+00
6.372883e-06 -3.128438e-07 0.000000e+00
2.600000e-06 5.000000e-06 0.000000e+00
6.385365e-06 -4.385157e-07 0.000000e+00
7.681865e-07 6.968731e-06 0.000000e+00
9.554839e-07 6.927054e-06 0.000000e+00
9.040280e-07 7.144316e-06 0.000000e+00
1.060553e-06 7.045658e-06 0.000000e+00
-9.372930e-08 -5.281527e-06 0.000000e+00
-3.179610e-07 -5.175350e-06 0.000000e+00
-2.572867e-07 -5.423559e-06 0.000000e+00
-6.945398e-06 4.179805e-06 0.000000e+00
-7.072819e-06 4.061592e-06 0.000000e+00
2.800000e-06 5.000000e-06 0.000000e+00
-6.898654e-06 3.972589e-06 0.000000e+00
7.621222e-07 5.423315e-06 0.000000e+00
6.973291e-07 5.180809e-06 0.000000e+00
9.148471e-07 5.278357e-06 0.000000e+00
-7.106122e-06 3.888470e-06 0.000000e+00
-6.271263e-06 5.572983e-06 0.000000e+00
3.192158e-06 6.878348e-06 0.000000e+00
2.946175e-06 6.719583e-06 0.000000e+00
-6.096320e-06 5.288599e-06 0.000000e+00
-5.759421e-06 -5.185797e-06 0.000000e+00
3.000000e-06 5.000000e-06 0.000000e+00
-5.923977e-06 -5.198522e-06 0.000000e+00
-5.809063e-06 -5.315325e-06 0.000000e+00
-4.436989e-07 5.932635e-06 0.000000e+00
-3.834835e-07 6.115538e-06 0.000000e+00
-5.427738e-07 6.088882e-06 0.000000e+00
-2.824254e-07 5.949612e-06 0.000000e+00
-6.615668e-06 -8.081293e-07 0.000000e+00
-6.743158e-06 -8.851999e-07 0.000000e+00
-5.808883e-06 -5.053600e-06 0.000000e+00
2.011245e-07 9.035001e-06 0.000000e+00
3.200000e-06 5.000000e-06 0.000000e+00
1.061558e-06 9.273188e-06 0.000000e+00
2.677423e-07 1.016678e-05 0.000000e+00
8.023512e-07 8.681657e-06 0.000000e+00
-4.004611e-06 -5.443089e-06 0.000000e+00
-4.152649e-06 -5.326333e-06 0.000000e+00
-4.142272e-06 -5.473969e-06 0.000000e+00
-4.294791e-06 -5.408496e-06 0.000000e+00
-7.258027e-06 1.028153e-06 0.000000e+00
-7.323183e-06 8.405112e-07 0.000000e+00
-7.163734e-06 7.218370e-07 0.000000e+00
3.400000e-06 5.000000e-06 0.000000e+00
-7.213393e-06 1.213565e-06 0.000000e+00
-7.362509e-06 1.356429e-06 0.000000e+00
-5.784607e-06 -5.558355e-06 0.000000e+00
6.134147e-06 -5.501862e-06 0.000000e+00
6.102724e-06 -5.295478e-06 0.000000e+00
5.973721e-06 -5.447912e-06 0.000000e+00
-6.937741e-06 2.062540e-06 0.000000e+00
-7.060093e-06 2.161611e-06 0.000000e+00
-6.774356e-06 2.130779e-06 0.000000e+00
-7.877434e-06 3.752890e-06 0.000000e+00
3.600000e-06 5.000000e-06 0.000000e+00
-7.774408e-06 3.544279e-06 0.000000e+00
-7.621366e-06 3.666988e-06 0.000000e+00
8.148595e-06 3.999421e-06 0.000000e+00
7.893453e-06 3.686461e-06 0.000000e+00
8.243279e-06 3.453549e-06 0.000000e+00
-2.178571e-06 -5.422950e-06 0.000000e+00
-2.133048e-06 -5.604407e-06 0.000000e+00
-2.024218e-06 -5.466484e-06 0.000000e+00
6.262576e-06 -5.379664e-06 0.000000e+00
-2.292663e-06 -5.532443e-06 0.000000e+00
3.800000e-06 5.000000e-06 0.000000e+00
-3.308155e-06 6.059729e-06 0.000000e+00
-3.439002e-06 6.172834e-06 0.000000e+00
-3.462308e-06 6.035958e-06 0.000000e+00
-3.275665e-06 6.228344e-06 0.000000e+00
[...]
POINT_DATA 10140
VECTORS 10.000GHz_fone_imag double
-1.611482e-01 -1.635570e-01 -4.051645e-01
1.081296e-03 -1.074362e-03 6.907474e-03
1.024618e-03 9.197473e-02 -2.074960e-01
-5.950824e-02 1.911349e-04 -9.401472e-03
5.433123e-05 9.599008e-05 -2.814135e-01
-4.655262e-05 4.568070e-05 -2.752678e-01
2.724960e-05 2.711088e-05 -2.700086e-01
-5.887412e-05 5.653988e-06 -2.656298e-01
1.034691e-05 8.480217e-05 -2.619697e-01
7.379365e-05 8.719455e-05 -2.587485e-01
-1.459069e-05 -9.390147e-05 -2.559885e-01
8.390379e-04 -4.519156e-04 -4.797929e-01
-1.448801e-04 6.762201e-05 -2.535486e-01
4.341038e-04 4.106313e-04 -2.515368e-01
-5.986776e-02 -6.222426e-04 -9.359554e-03
8.993005e-04 -9.582585e-04 -2.492578e-01
-1.656369e-04 -7.242577e-05 -2.481674e-01
-8.746028e-05 8.542883e-05 -2.470443e-01
1.297902e-05 4.601677e-05 -2.459468e-01
-5.641388e-05 -1.373805e-04 -2.435731e-01
4.922554e-05 -5.191075e-05 -2.450320e-01
8.997813e-06 -4.813108e-05 -2.443843e-01
1.875350e-05 1.214521e-04 -2.498065e-01
-1.038952e-04 1.479445e-02 -2.429078e-01
-4.603032e-04 2.772829e-04 -2.557191e-01
-6.353539e-02 -1.310856e-04 -1.105447e-02
-1.575024e-04 1.501687e-02 -2.451098e-01
-3.339810e-05 6.635168e-05 -2.516282e-01
-4.900936e-04 2.824401e-04 -2.533564e-01
-4.346421e-04 -4.513887e-04 -3.487102e-01
-5.668577e-05 4.424507e-05 -2.657433e-01
-3.182524e-04 -5.027940e-05 -3.513131e-01
2.187204e-04 2.771954e-04 -4.222490e-01
-4.642834e-04 1.813517e-02 -2.416946e-01
5.262510e-04 -4.610453e-04 -3.258546e-01
-2.877315e-05 -1.073817e-04 -3.100895e-01
-5.573705e-02 -1.570635e-04 -7.779641e-03
1.684793e-04 8.938861e-05 -2.980965e-01
1.071258e-04 2.456259e-04 -2.887678e-01
-6.475303e-04 2.351773e-04 -2.808868e-01
-3.132879e-04 1.061294e-04 -2.752389e-01
1.366290e-04 -5.888227e-05 -2.701191e-01
2.315779e-04 1.555177e-04 -3.881819e-01
-7.476058e-05 -1.504304e-05 -3.099815e-01
-1.750851e-04 1.871012e-04 -2.980167e-01
6.019269e-04 4.476137e-04 -2.884053e-01
1.042876e-04 1.769498e-04 -2.813441e-01
3.497447e-02 2.581610e-02 -3.805544e-03
2.348348e-05 8.042555e-05 -2.752710e-01
2.066133e-04 2.215969e-04 -2.700986e-01
9.405360e-04 -3.962708e-04 -2.653416e-01
-9.373684e-04 -4.255165e-04 -2.615876e-01
2.549263e-04 2.371759e-04 -2.588456e-01
-1.910086e-05 -2.572214e-06 -2.561420e-01
5.664845e-05 5.823753e-04 -4.779154e-01
-7.167364e-05 9.674174e-05 -2.536886e-01
-6.675356e-06 1.335898e-04 -2.515459e-01
-4.873350e-04 2.343954e-04 -2.493268e-01
2.818467e-03 -6.071062e-02 -9.532568e-03
2.778782e-05 1.589426e-04 -2.483059e-01
-9.607435e-06 2.588669e-04 -2.470499e-01
-8.787272e-05 4.603549e-05 -2.437671e-01
5.194318e-05 1.705270e-04 -2.459084e-01
3.361132e-05 7.480503e-05 -2.433793e-01
2.007803e-05 1.910797e-04 -2.450683e-01
-4.085751e-04 4.230964e-05 -2.616722e-01
3.476175e-05 1.351666e-04 -2.444336e-01
1.977581e-04 3.266780e-05 -2.497255e-01
1.490153e-02 3.841985e-05 -2.429007e-01
2.873054e-03 -6.423483e-02 -1.094713e-02
1.007172e-04 4.665778e-05 -2.561043e-01
1.478549e-02 3.928991e-05 -2.449996e-01
1.610300e-04 -2.920366e-05 -2.516121e-01
5.778289e-05 -5.759045e-06 -2.537222e-01
-2.430536e-04 6.927236e-05 -3.491916e-01
2.096095e-06 -1.951841e-05 -2.656809e-01
9.421491e-05 1.085750e-04 -3.512951e-01
1.238165e-04 -9.828621e-05 -4.213339e-01
1.775493e-02 -2.916415e-05 -2.420035e-01
1.523211e-05 8.632412e-05 -3.099397e-01
2.397158e-03 -6.316402e-02 -1.054982e-02
1.131893e-04 -4.356629e-06 -3.261950e-01
1.372660e-04 3.287993e-05 -2.752472e-01
-8.185311e-05 -6.173903e-05 -2.811979e-01
1.360330e-04 7.071436e-04 -2.883777e-01
1.774463e-04 -1.232191e-04 -2.978226e-01
8.776823e-05 2.088970e-04 -2.701021e-01
-2.527046e-04 -1.591475e-04 -3.875889e-01
2.768830e-04 1.622289e-04 -3.097882e-01
3.750856e-04 -2.569196e-04 -2.979396e-01
-4.461218e-05 -3.076031e-04 -2.886425e-01
2.456416e-03 -6.675575e-02 -1.211438e-02
-7.536610e-05 -1.509286e-04 -2.812108e-01
-1.139512e-04 -3.875971e-05 -2.751889e-01
-6.395815e-05 -2.796196e-05 -2.700232e-01
-8.332134e-05 -2.218760e-05 -2.656012e-01
-8.942422e-05 -2.562253e-05 -2.619475e-01
-1.471316e-04 -6.275018e-05 -2.588223e-01
-7.139429e-05 6.595958e-04 -2.556600e-01
6.665963e-04 -8.824595e-04 -4.775573e-01
1.137016e-04 -1.762092e-04 -2.536560e-01
1.495322e-04 1.122445e-04 -2.515925e-01
-4.391399e-03 -9.292966e-02 -2.665765e-02
2.533750e-04 9.096597e-05 -2.498239e-01
1.035988e-04 -6.152667e-04 -2.479351e-01
1.042121e-04 -4.035985e-05 -2.470682e-01
1.669467e-04 -3.363273e-04 -2.434133e-01
1.351717e-04 6.247975e-05 -2.459415e-01
2.209550e-04 1.327358e-04 -2.434261e-01
1.319427e-04 1.665828e-04 -2.450901e-01
6.280531e-05 -1.215378e-04 -2.619722e-01
1.507511e-04 -3.917510e-05 -2.442956e-01
4.237474e-04 -1.457727e-02 -2.425918e-01
1.200652e-03 9.265559e-02 -2.095162e-01
-5.161631e-03 -8.972218e-02 -2.438446e-02
-1.466380e-05 -1.511693e-05 -2.458298e-01
-1.436749e-04 -3.032082e-05 -2.536381e-01
1.158070e-04 -7.114810e-05 -2.513919e-01
6.931735e-05 -2.138603e-05 -2.469199e-01
2.738626e-04 -1.163667e-04 -3.509581e-01
5.398099e-04 2.624735e-04 -4.203633e-01
-1.015688e-04 -8.863424e-05 -3.495876e-01
6.120284e-05 -1.786870e-04 -2.482589e-01
-6.893431e-05 -2.216668e-05 -2.497538e-01
-1.438887e-04 -1.702081e-02 -2.418073e-01
-5.045342e-03 -8.442476e-02 -2.105363e-02
1.919372e-04 -1.839047e-04 -2.658297e-01
-4.777326e-04 2.363968e-05 -2.883740e-01
3.683496e-05 -8.044299e-05 -2.978891e-01
4.439468e-05 -3.297073e-05 -3.098558e-01
1.542657e-05 -7.706263e-05 -3.259214e-01
1.416587e-04 -4.866913e-05 -2.752658e-01
1.983777e-04 -2.270288e-05 -2.813281e-01
-4.128219e-04 -1.429852e-04 -2.697492e-01
5.219628e-04 -1.856383e-02 -2.596501e-01
5.924506e-04 5.950269e-04 -3.879795e-01
-4.645560e-03 -9.666646e-02 -2.939891e-02
7.599394e-05 -3.480928e-04 -2.433839e-01
-7.376246e-05 -6.219498e-05 -3.100033e-01
8.875519e-05 -2.085004e-04 -2.979756e-01
-6.480900e-04 -3.283418e-04 -2.884125e-01
-8.304244e-05 2.415391e-05 -2.814211e-01
1.044558e-05 5.680829e-05 -2.753474e-01
-2.486955e-05 -1.164765e-04 -2.701580e-01
-9.370115e-05 -9.744815e-05 -2.657977e-01
-1.164819e-04 -1.964784e-04 -2.621231e-01
-1.134464e-04 -2.567118e-05 -2.588388e-01
8.663083e-02 9.756931e-03 -2.193453e-02
-3.190114e-05 5.968572e-05 -2.560067e-01
3.759183e-06 -3.741316e-04 -4.776927e-01
4.788831e-05 1.793843e-05 -2.535585e-01
1.232822e-04 -1.750847e-04 -2.515492e-01
-2.627709e-05 -1.568686e-04 -2.498645e-01
5.223202e-05 -1.615010e-04 -2.483151e-01
-4.507899e-05 -1.296197e-04 -2.469966e-01
4.140636e-04 -2.536522e-04 -2.454832e-01
1.152235e-04 -8.020185e-05 -2.437738e-01
-1.635145e-04 -7.898613e-05 -2.450426e-01
9.461805e-02 8.841952e-03 -2.693438e-02
1.729173e-04 -1.080852e-04 -2.443283e-01
8.929066e-02 8.683021e-03 -2.382520e-02
9.375682e-02 9.816465e-03 -2.624481e-02
5.887074e-04 -1.365965e-01 -9.469321e-02
6.282321e-04 -1.384570e-01 -1.165269e-01
-4.272647e-02 -1.544817e-02 -4.965413e-03
1.329579e-03 9.356102e-02 -2.116583e-01
-2.778365e-02 2.996425e-02 -3.790601e-03
-2.962536e-02 2.880309e-02 -4.026816e-03
-2.985402e-02 3.380546e-02 -4.974542e-03
1.133373e-02 7.415457e-02 -1.555847e-02
1.243685e-02 7.486875e-02 -1.577483e-02
1.171399e-02 7.050040e-02 -1.382582e-02
-2.628850e-02 2.694966e-02 -3.127574e-03
-3.257299e-02 3.196020e-02 -5.177268e-03
-3.377182e-02 2.894694e-02 -4.765213e-03
7.906320e-02 -9.071250e-04 -1.841447e-02
1.514463e-03 9.458720e-02 -2.137722e-01
7.869080e-02 -1.219142e-03 -1.813945e-02
2.176985e-03 6.405648e-02 -1.084928e-02
2.703987e-03 6.493578e-02 -1.112641e-02
2.553670e-03 6.067810e-02 -9.501099e-03
2.984365e-03 6.251478e-02 -1.036352e-02
-1.909809e-04 -1.338270e-01 -8.638508e-02
-4.523973e-05 -1.374898e-01 -1.126495e-01
-3.667883e-04 -1.248222e-01 -6.360921e-02
-6.150378e-02 2.008218e-02 -1.059733e-02
-5.908698e-02 1.842437e-02 -9.707941e-03
1.798275e-03 9.593930e-02 -2.178678e-01
-6.397211e-02 1.856960e-02 -1.145220e-02
1.164983e-03 1.254383e-01 -6.404904e-02
6.402878e-04 1.380485e-01 -1.108163e-01
8.149906e-04 1.346852e-01 -8.810234e-02
-5.906478e-02 1.694959e-02 -9.745427e-03
-5.865798e-02 4.365884e-02 -1.305256e-02
1.212888e-02 6.625834e-02 -1.198204e-02
1.068913e-02 7.070469e-02 -1.381491e-02
-7.300847e-02 4.753039e-02 -1.857213e-02
-9.550985e-02 -6.187628e-02 -3.259723e-02
2.107074e-03 9.698418e-02 -2.202300e-01
-8.513489e-02 -5.334549e-02 -2.536988e-02
-8.477887e-02 -6.136931e-02 -2.734887e-02
-9.796194e-04 9.547595e-02 -2.944367e-02
-1.046126e-03 8.785052e-02 -2.395844e-02
-1.356445e-03 8.891803e-02 -2.440440e-02
-7.462352e-04 9.468925e-02 -2.866471e-02
-7.222670e-02 -2.190036e-03 -1.465751e-02
-6.910547e-02 -2.433516e-03 -1.316761e-02
-9.918724e-02 -5.558707e-02 -3.299034e-02
5.138175e-04 3.771296e-02 -2.797439e-03
2.536101e-03 9.836977e-02 -2.238508e-01
2.178197e-03 3.588019e-02 -2.583445e-03
6.712757e-04 3.100950e-02 -1.304625e-03
2.005942e-03 4.063448e-02 -3.550127e-03
-1.679446e-02 -1.463390e-01 -7.446160e-02
-1.720766e-02 -1.611364e-01 -9.982932e-02
-2.011731e-02 -1.457858e-01 -7.150462e-02
-2.387439e-02 -1.557919e-01 -8.399530e-02
-5.847867e-02 2.917132e-03 -8.692405e-03
-5.730160e-02 2.446695e-03 -8.293190e-03
-6.026105e-02 2.078006e-03 -9.407472e-03
3.178051e-03 1.005000e-01 -2.288960e-01
-5.927849e-02 3.496028e-03 -8.997577e-03
-5.664812e-02 3.930507e-03 -7.986720e-03
-7.186444e-02 -6.323478e-02 -2.303678e-02
6.436459e-02 -4.780786e-02 -1.621056e-02
7.276300e-02 -4.776640e-02 -1.928950e-02
7.139137e-02 -5.377009e-02 -1.997150e-02
-6.500278e-02 6.460284e-03 -1.126813e-02
-6.242014e-02 6.795471e-03 -1.030334e-02
-6.895512e-02 6.564169e-03 -1.297496e-02
-4.541833e-02 1.310229e-02 -5.470396e-03
3.583780e-03 1.027237e-01 -2.346036e-01
-4.765035e-02 1.245120e-02 -5.909913e-03
-4.974626e-02 1.361556e-02 -6.426348e-03
4.121399e-02 1.309815e-02 -4.742105e-03
4.544875e-02 1.269447e-02 -5.323573e-03
4.183488e-02 1.067835e-02 -4.176179e-03
-3.526315e-03 -1.294454e-01 -6.674081e-02
-4.126187e-03 -1.168230e-01 -4.856466e-02
-3.422176e-03 -1.254461e-01 -6.079986e-02
6.450320e-02 -4.307407e-02 -1.497212e-02
-4.479661e-03 -1.219727e-01 -5.518068e-02
4.420577e-03 1.052177e-01 -2.409280e-01
-1.251210e-02 9.593957e-02 -2.744947e-02
-1.403919e-02 9.074025e-02 -2.430599e-02
-1.392650e-02 9.761438e-02 -2.847896e-02
-1.258927e-02 8.799145e-02 -2.261663e-02
1.009310e-02 -8.878619e-02 -2.313212e-02
9.548193e-03 -8.461831e-02 -2.091058e-02
1.053355e-02 -8.305896e-02 -1.995210e-02
9.906437e-03 -7.930959e-02 -1.788681e-02
-5.162316e-02 1.246476e-02 -6.955101e-03
1.304146e-02 4.636560e-02 -5.618482e-03
1.094880e-03 1.098924e-03 6.934659e-03
5.637227e-03 1.084448e-01 -2.498104e-01
1.124128e-02 4.340506e-02 -4.837287e-03
2.090167e-02 5.781407e-02 -9.443859e-03
1.919182e-02 5.445626e-02 -8.210996e-03
1.943390e-02 5.901992e-02 -9.743990e-03
2.052324e-02 5.291718e-02 -7.808801e-03
8.467467e-03 -8.872149e-02 -2.345297e-02
8.763347e-03 -8.198365e-02 -1.938467e-02
1.265596e-03 6.893170e-02 -1.287233e-02
1.459906e-03 7.459570e-02 -1.581518e-02
1.847271e-03 7.125080e-02 -1.418561e-02
7.627450e-03 1.124696e-01 -2.610178e-01
1.953844e-03 6.037843e-02 -9.427895e-03
1.425142e-03 6.021038e-02 -9.241111e-03
1.652574e-03 6.392356e-02 -1.088224e-02
1.841320e-03 5.620736e-02 -7.646507e-03
9.093231e-03 -9.100672e-02 -2.480146e-02
8.122575e-03 -7.952478e-02 -1.799833e-02
8.915460e-03 -7.661953e-02 -1.652314e-02
7.994899e-03 -7.374262e-02 -1.494659e-02
1.476720e-01 -1.649201e-02 -7.733915e-02
1.629510e-01 -1.783075e-02 -1.005709e-01
1.102379e-02 1.182469e-01 -2.764751e-01
1.454538e-01 -2.056036e-02 -7.246116e-02
-2.232165e-03 6.610777e-02 -1.172879e-02
-2.399634e-03 7.112117e-02 -1.403527e-02
-1.818440e-03 7.031146e-02 -1.360890e-02
-1.986008e-03 7.633079e-02 -1.651360e-02
1.555019e-01 -2.498138e-02 -8.318070e-02
-8.231062e-02 2.653259e-02 -1.975910e-02
-7.569276e-02 2.725305e-02 -1.692373e-02
-7.546737e-02 2.484478e-02 -1.646493e-02
-8.274025e-02 2.916629e-02 -2.024430e-02
1.798979e-02 1.274312e-01 -2.998049e-01
4.094152e-02 -3.276212e-02 -6.285103e-03
4.254852e-02 -3.675266e-02 -7.808062e-03
3.879124e-02 -3.316240e-02 -6.360462e-03
8.791084e-02 -1.463195e-02 -2.277230e-02
9.377151e-02 -1.395716e-02 -2.661240e-02
9.262957e-02 -1.573023e-02 -2.564465e-02
8.930148e-02 -1.285312e-02 -2.322256e-02
-1.805626e-04 1.209741e-01 -5.791699e-02
-4.372258e-04 1.191367e-01 -5.537359e-02
-8.642063e-05 1.348136e-01 -8.923053e-02
3.668322e-02 1.419828e-01 -3.394079e-01
-4.184507e-04 1.110251e-01 -4.468943e-02
-8.242379e-04 1.119330e-01 -4.634406e-02
9.806025e-03 5.932959e-02 -9.022122e-03
1.093641e-02 5.910899e-02 -9.188929e-03
9.722542e-03 6.426650e-02 -1.104771e-02
-9.020607e-05 2.519870e-02 6.887861e-04
-2.911418e-03 2.365301e-02 5.344621e-04
-1.891495e-03 2.536226e-02 -6.760003e-04
6.410912e-02 5.366007e-03 -1.098205e-02
5.991675e-02 5.668763e-03 -9.283453e-03
1.414488e-01 3.716475e-02 -3.389058e-01
6.387564e-02 6.041271e-03 -1.087198e-02
-9.915857e-03 -7.748209e-02 -1.694385e-02
-1.095840e-02 -8.122679e-02 -1.884541e-02
-1.139001e-02 -7.315865e-02 -1.479085e-02
-1.246199e-02 -7.952035e-02 -1.802744e-02
4.593449e-02 1.406992e-02 -5.621574e-03
-4.311999e-02 8.033899e-04 -4.398090e-03
-4.634161e-02 4.803555e-04 -5.142785e-03
-5.026352e-02 3.686113e-03 -6.311531e-03
-5.268716e-02 4.133421e-03 -6.786894e-03
1.273097e-01 1.758387e-02 -2.997009e-01
1.277659e-02 4.968881e-02 -6.312550e-03
-8.494682e-04 5.832003e-02 -8.578007e-03
-3.529635e-04 5.708714e-02 -8.267579e-03
-5.566161e-04 5.454433e-02 -7.186171e-03
-2.921986e-04 6.008062e-02 -9.694772e-03
-4.148786e-02 1.603812e-02 -4.857737e-03
-4.460852e-02 1.705620e-02 -5.649680e-03
-1.787715e-03 -4.862943e-02 -5.818451e-03
-1.675203e-03 -5.104537e-02 -6.447628e-03
-5.375363e-02 -6.897898e-04 -7.351619e-03
1.186410e-01 1.079886e-02 -2.765890e-01
-5.166629e-02 -1.400129e-04 -6.396740e-03
5.980722e-02 6.399284e-03 -9.234762e-03
5.977250e-02 4.180100e-03 -9.299985e-03
5.606115e-02 3.894670e-03 -7.778783e-03
5.680916e-02 4.588071e-03 -8.135051e-03
6.181039e-02 -1.383844e-03 -1.008291e-02
6.047015e-02 -8.840835e-04 -9.567001e-03
6.416634e-02 -7.808800e-04 -1.107974e-02
5.378467e-02 4.282241e-03 -7.121015e-03
-4.601816e-02 -1.704138e-02 -5.856684e-03
1.128607e-01 7.611078e-03 -2.610868e-01
-5.073930e-02 -1.801624e-02 -7.010817e-03
-4.739796e-02 -1.635817e-02 -6.090383e-03
-3.403409e-02 4.296435e-02 -7.157796e-03
-3.067935e-02 4.158205e-02 -6.304312e-03
-3.111500e-02 3.858284e-02 -5.821457e-03
-1.308642e-01 2.122660e-03 -7.198639e-02
-1.151573e-01 2.928017e-03 -4.754395e-02
-1.264754e-01 2.092468e-03 -6.475462e-02
-3.359671e-02 4.664097e-02 -8.022206e-03
3.029003e-02 -5.869463e-02 -1.087219e-02
1.083951e-01 5.717015e-03 -2.499269e-01
3.296646e-02 -5.752310e-02 -1.085617e-02
3.373221e-02 -6.422776e-02 -1.328970e-02
-6.498430e-02 5.869478e-03 -1.145187e-02
-6.820753e-02 6.027155e-03 -1.268040e-02
-6.134477e-02 6.171623e-03 -9.810660e-03
1.024826e-02 -7.141284e-02 -1.414121e-02
1.067719e-02 -7.586887e-02 -1.629030e-02
9.738023e-03 -7.439635e-02 -1.555598e-02
1.085220e-01 2.483865e-02 -3.509113e-02
1.021436e-01 2.163789e-02 -3.119833e-02
-1.065161e-03 1.064680e-03 6.902454e-03
1.050909e-01 4.455211e-03 -2.410058e-01
9.567380e-02 2.405392e-02 -2.685426e-02
1.690989e-02 5.638574e-03 2.171958e-04
-1.560870e-02 6.359168e-02 -1.156488e-02
-1.727438e-02 6.368767e-02 -1.134900e-02
-1.519312e-02 6.742853e-02 -1.278905e-02
-1.738497e-02 5.906563e-02 -9.612698e-03
-1.878092e-02 6.166389e-02 -1.053811e-02
-1.819930e-02 5.610656e-02 -8.453388e-03
-6.833421e-02 1.417406e-03 -1.248311e-02
-7.405799e-02 1.477123e-03 -1.552543e-02
1.026047e-01 3.665948e-03 -2.348729e-01
-7.104783e-02 1.945056e-03 -1.410469e-02
-2.961903e-03 7.156184e-02 -1.411943e-02
-2.708484e-03 6.753833e-02 -1.227012e-02
-3.158642e-03 6.639218e-02 -1.182729e-02
-5.633604e-02 1.784538e-03 -7.882198e-03
-5.959854e-02 1.482672e-03 -9.178530e-03
7.375421e-02 -7.641764e-03 -1.510768e-02
7.122842e-02 -7.191035e-03 -1.399140e-02
7.563666e-02 -6.859327e-03 -1.601650e-02
7.149313e-02 -6.537317e-03 -1.392771e-02
1.000140e-01 3.053643e-03 -2.286330e-01
-5.882692e-04 -1.039214e-01 -3.703935e-02
-1.704090e-03 -5.728723e-02 -8.172818e-03
-2.077775e-03 -6.002495e-02 -9.348108e-03
-1.599972e-03 -6.086041e-02 -9.652514e-03
-6.510852e-02 2.381571e-02 -1.227711e-02
-6.638635e-02 2.615445e-02 -1.293774e-02
-6.165374e-02 2.430447e-02 -1.098238e-02
-6.148091e-02 2.608570e-02 -1.122430e-02
-6.117355e-02 1.549485e-02 -1.064847e-02
-5.829946e-02 1.381060e-02 -9.283667e-03
9.845004e-02 2.512183e-03 -2.238961e-01
-6.335531e-02 1.407064e-02 -1.091813e-02
-6.432198e-02 2.177276e-02 -1.183980e-02
-6.927093e-02 2.320175e-02 -1.393751e-02
-6.744038e-02 2.079016e-02 -1.286246e-02
-6.559104e-02 8.483648e-03 -1.172237e-02
-6.232054e-02 8.358870e-03 -1.027434e-02
1.295464e-02 4.589493e-03 -2.820969e-04
2.912089e-02 -5.329197e-02 -9.120217e-03
-5.506453e-02 -9.501005e-03 -7.577424e-03
-5.676177e-02 -1.044142e-02 -8.306491e-03
9.700636e-02 2.141351e-03 -2.203836e-01
-5.948161e-02 -9.741530e-03 -9.234668e-03
-6.088397e-02 -1.072034e-02 -9.857286e-03
3.088830e-02 -6.543074e-02 -1.321442e-02
2.812084e-02 -6.017765e-02 -1.105386e-02
-4.825372e-03 -1.049708e-01 -3.630211e-02
-5.411249e-03 -9.579610e-02 -2.848369e-02
-4.588286e-03 -1.025104e-01 -3.444183e-02
9.849543e-02 1.032531e-02 -2.976640e-02
1.091248e-01 9.088994e-03 -3.808139e-02
1.013948e-01 8.891997e-03 -3.234226e-02
9.538678e-02 1.884308e-03 -2.170085e-01
1.061923e-01 1.068350e-02 -3.517619e-02
-2.887835e-02 4.787056e-03 -1.222364e-03
-3.215609e-02 3.985856e-03 -1.718416e-03
8.793951e-03 -4.550329e-02 -5.065644e-03
8.049410e-03 -4.781879e-02 -5.607187e-03
-9.498920e-02 4.022338e-03 -2.823872e-02
-8.728883e-02 4.586827e-03 -2.285405e-02
-8.889924e-02 3.958554e-03 -2.430933e-02
-8.269268e-02 4.222474e-03 -2.019325e-02
-2.636660e-02 -3.859779e-02 -5.226136e-03
9.439379e-02 1.478492e-03 -2.137652e-01
-2.924898e-02 -4.261890e-02 -6.263871e-03
-2.776872e-02 -3.813243e-02 -5.547874e-03
1.848134e-02 -8.327154e-02 -2.018754e-02
1.645693e-02 -7.961642e-02 -1.821990e-02
1.790166e-02 -7.579988e-02 -1.668492e-02
-2.784437e-02 1.754727e-01 -1.133845e-01
1.567362e-02 -7.364607e-02 -1.558295e-02
-3.424515e-04 5.075414e-02 -6.242113e-03
-2.138335e-06 4.980375e-02 -5.686241e-03
1.758020e-02 2.536954e-02 -1.692842e-03
9.359476e-02 1.329382e-03 -2.115867e-01
1.687003e-02 2.802844e-02 -1.989681e-03
1.963025e-02 2.945946e-02 -2.885782e-03
-2.873277e-02 2.124783e-03 -9.925166e-04
4.746840e-02 -1.104215e-02 -5.492655e-03
5.000228e-02 -1.262153e-02 -6.360641e-03
4.589692e-02 -1.249902e-02 -5.476049e-03
-8.184483e-02 -9.065599e-03 -1.942122e-02
-8.336122e-02 -1.018760e-02 -2.005705e-02
-8.649952e-02 -8.372097e-03 -2.194957e-02
-7.774640e-02 -1.106070e-02 -1.708084e-02
9.272956e-02 1.195011e-03 -2.095296e-01
-8.407061e-02 -1.118684e-02 -2.049257e-02
-8.106266e-02 -1.209928e-02 -1.878679e-02
1.960659e-02 7.245926e-02 -1.489485e-02
1.879325e-02 6.710243e-02 -1.270705e-02
1.813587e-02 7.107007e-02 -1.445214e-02
2.075256e-02 7.011818e-02 -1.366424e-02
1.655231e-02 6.598076e-02 -1.239326e-02
1.663760e-02 7.288185e-02 -1.542403e-02
1.524816e-02 7.005878e-02 -1.394561e-02
-7.733384e-02 -2.857490e-03 -1.697439e-02
9.201618e-02 1.150304e-03 -2.074631e-01
-7.215379e-02 -2.974634e-03 -1.449296e-02
-7.491536e-02 -3.330034e-03 -1.571703e-02
-7.312751e-02 -2.537520e-03 -1.481510e-02
9.514854e-03 -6.289104e-02 -1.055812e-02
9.966510e-03 -6.687986e-02 -1.212927e-02
9.138415e-03 -6.592285e-02 -1.176390e-02
1.037517e-02 -6.343945e-02 -1.077150e-02
1.746255e-02 -1.228752e-01 -4.778783e-02
1.586345e-02 -1.407939e-01 -6.778343e-02
1.326680e-02 -1.311526e-01 -5.774754e-02
1.631818e-01 1.627876e-01 -4.010851e-01
9.108840e-02 9.843837e-04 -2.058795e-01
1.612011e-02 1.223721e-01 -4.795292e-02
1.470623e-02 1.157080e-01 -4.201542e-02
1.376129e-02 1.300633e-01 -5.679995e-02
1.216643e-02 1.254192e-01 -5.205263e-02
-1.036137e-02 1.124974e-01 -4.081090e-02
-1.169640e-02 1.133017e-01 -4.058142e-02
-9.321241e-03 1.229034e-01 -5.154978e-02
-1.109532e-02 1.251986e-01 -5.339237e-02
6.065302e-02 -2.506875e-02 -1.095724e-02
5.523119e-02 -2.436971e-02 -8.963823e-03