# vtk DataFile Version 2.0
Electric current density generated by TTH
ASCII
DATASET UNSTRUCTURED_GRID
POINTS 212 double
-5.000000e-06 -5.000000e-06 0.000000e+00
-1.500000e-05 1.500000e-05 2.000000e-07
2.042098e-08 9.419897e-06 0.000000e+00
4.054310e-06 9.814582e-06 0.000000e+00
1.932889e-06 1.239011e-05 0.000000e+00
5.596038e-06 1.243607e-05 0.000000e+00
1.223281e-05 1.194108e-05 0.000000e+00
1.064475e-05 -8.812376e-06 0.000000e+00
9.814358e-06 -4.501036e-06 0.000000e+00
8.957306e-06 -1.238143e-05 0.000000e+00
-8.812376e-06 -1.064475e-05 0.000000e+00
-4.464435e-06 -9.826590e-06 0.000000e+00
-1.500000e-05 -1.500000e-05 2.000000e-07
-1.238143e-05 -8.957306e-06 0.000000e+00
-1.064475e-05 8.812376e-06 0.000000e+00
-9.750748e-06 4.556404e-06 0.000000e+00
-6.636538e-06 6.992155e-06 0.000000e+00
-7.088391e-06 1.016304e-05 0.000000e+00
-8.981693e-06 1.236380e-05 0.000000e+00
9.780969e-06 4.975718e-06 0.000000e+00
7.196428e-06 3.473776e-06 0.000000e+00
1.233409e-05 2.490025e-06 0.000000e+00
1.217041e-05 -1.248876e-05 0.000000e+00
1.500000e-05 -1.500000e-05 2.000000e-07
-1.248876e-05 -1.217041e-05 0.000000e+00
-1.217529e-05 1.248524e-05 0.000000e+00
5.078101e-06 -1.255855e-05 0.000000e+00
-3.947712e-06 9.856724e-06 0.000000e+00
-2.866091e-06 7.203580e-06 0.000000e+00
-5.466839e-06 1.253676e-05 0.000000e+00
-1.255797e-05 -5.078094e-06 0.000000e+00
1.009819e-05 8.819110e-06 0.000000e+00
6.613302e-06 7.090576e-06 0.000000e+00
7.277099e-06 1.017875e-05 0.000000e+00
-5.000000e-06 -5.000000e-06 2.000000e-07
1.248905e-05 -5.225731e-06 0.000000e+00
-1.376614e-06 -9.425451e-06 0.000000e+00
-1.550548e-06 -1.214759e-05 0.000000e+00
-5.215472e-06 -1.252379e-05 0.000000e+00
-9.425451e-06 1.376614e-06 0.000000e+00
-1.213382e-05 1.567138e-06 0.000000e+00
-1.250586e-05 5.237184e-06 0.000000e+00
7.168471e-06 -3.421337e-06 0.000000e+00
-7.158068e-06 3.352958e-06 0.000000e+00
-3.352958e-06 -7.158068e-06 0.000000e+00
-5.000000e-06 5.000000e-06 2.000000e-07
1.942455e-06 -1.301126e-05 0.000000e+00
2.478882e-07 -7.333647e-06 0.000000e+00
-1.301121e-05 -1.942429e-06 0.000000e+00
-7.333647e-06 -2.478882e-07 0.000000e+00
1.250991e-05 6.264817e-06 0.000000e+00
1.312500e-05 9.375000e-06 0.000000e+00
-1.950511e-06 1.234949e-05 0.000000e+00
8.923639e-06 1.220237e-05 0.000000e+00
3.394770e-08 6.952707e-06 0.000000e+00
2.886113e-06 7.372092e-06 0.000000e+00
5.000000e-06 5.000000e-06 2.000000e-07
7.255838e-06 -3.933547e-08 0.000000e+00
7.060632e-06 -6.495357e-06 2.000000e-07
3.518855e-06 -7.568379e-06 2.000000e-07
6.221505e-06 -9.674404e-06 2.000000e-07
9.659101e-06 1.554594e-06 2.000000e-07
9.538064e-06 -1.484805e-06 2.000000e-07
1.196966e-05 -1.556335e-06 2.000000e-07
2.043899e-06 -1.023459e-05 2.000000e-07
-6.475331e-06 -7.063091e-06 2.000000e-07
-7.568379e-06 -3.518855e-06 2.000000e-07
5.000000e-06 -5.000000e-06 2.000000e-07
-9.670568e-06 -6.221502e-06 2.000000e-07
-1.023199e-05 -2.041484e-06 2.000000e-07
5.845486e-08 9.449794e-06 2.000000e-07
4.072878e-06 9.831979e-06 2.000000e-07
2.025207e-06 1.244489e-05 2.000000e-07
5.596038e-06 1.243607e-05 2.000000e-07
9.810981e-06 -4.498471e-06 2.000000e-07
1.248508e-05 -5.223436e-06 2.000000e-07
1.223102e-05 1.194178e-05 2.000000e-07
1.064475e-05 -8.812376e-06 2.000000e-07
-5.000000e-06 -1.666667e-06 0.000000e+00
8.954814e-06 -1.238112e-05 2.000000e-07
-8.812376e-06 -1.064475e-05 2.000000e-07
-4.453648e-06 -9.828931e-06 2.000000e-07
-1.238112e-05 -8.954814e-06 2.000000e-07
-1.064475e-05 8.812376e-06 2.000000e-07
-9.751679e-06 4.547063e-06 2.000000e-07
-6.631848e-06 6.996935e-06 2.000000e-07
-7.082003e-06 1.017350e-05 2.000000e-07
-8.977887e-06 1.236687e-05 2.000000e-07
9.705797e-06 5.005145e-06 2.000000e-07
-5.000000e-06 1.666667e-06 0.000000e+00
7.172499e-06 3.485303e-06 2.000000e-07
1.229440e-05 2.507772e-06 2.000000e-07
-1.360154e-06 -9.443273e-06 2.000000e-07
-1.519838e-06 -1.213602e-05 2.000000e-07
-5.207172e-06 -1.252194e-05 2.000000e-07
-9.443273e-06 1.360154e-06 2.000000e-07
-1.212201e-05 1.536679e-06 2.000000e-07
-1.250369e-05 5.229224e-06 2.000000e-07
1.216991e-05 -1.248870e-05 2.000000e-07
-1.248870e-05 -1.216991e-05 2.000000e-07
-1.666667e-06 5.000000e-06 0.000000e+00
-1.217453e-05 1.248585e-05 2.000000e-07
5.106077e-06 -1.255460e-05 2.000000e-07
-1.255422e-05 -5.106015e-06 2.000000e-07
-3.924401e-06 9.883578e-06 2.000000e-07
-2.855597e-06 7.215017e-06 2.000000e-07
-5.444004e-06 1.255515e-05 2.000000e-07
1.008745e-05 8.823314e-06 2.000000e-07
6.599525e-06 7.100858e-06 2.000000e-07
7.277099e-06 1.017875e-05 2.000000e-07
7.167699e-06 -3.418515e-06 2.000000e-07
-5.000000e-06 5.000000e-06 0.000000e+00
1.666667e-06 5.000000e-06 0.000000e+00
-7.164504e-06 3.347014e-06 2.000000e-07
-3.347014e-06 -7.164504e-06 2.000000e-07
2.088207e-06 -1.292342e-05 2.000000e-07
2.526399e-07 -7.342042e-06 2.000000e-07
-1.292342e-05 -2.088207e-06 2.000000e-07
-7.342042e-06 -2.526399e-07 2.000000e-07
1.243182e-05 6.293226e-06 2.000000e-07
1.312500e-05 9.375000e-06 2.000000e-07
-1.820725e-06 1.243178e-05 2.000000e-07
8.923639e-06 1.220237e-05 2.000000e-07
5.000000e-06 1.666667e-06 0.000000e+00
3.087768e-08 6.959796e-06 2.000000e-07
2.880944e-06 7.381513e-06 2.000000e-07
7.255838e-06 -3.933547e-08 2.000000e-07
5.000000e-06 -1.666667e-06 0.000000e+00
1.666667e-06 -5.000000e-06 0.000000e+00
-1.666667e-06 -5.000000e-06 0.000000e+00
1.125000e-05 1.500000e-05 0.000000e+00
7.500000e-06 1.500000e-05 0.000000e+00
3.750000e-06 1.500000e-05 0.000000e+00
3.937687e-17 1.500000e-05 0.000000e+00
-3.750000e-06 1.500000e-05 0.000000e+00
5.000000e-06 5.000000e-06 0.000000e+00
-7.500000e-06 1.500000e-05 0.000000e+00
-1.125000e-05 1.500000e-05 0.000000e+00
-1.500000e-05 1.125000e-05 0.000000e+00
-1.500000e-05 7.500000e-06 0.000000e+00
-1.500000e-05 3.750000e-06 0.000000e+00
-1.500000e-05 3.937687e-17 0.000000e+00
-1.500000e-05 -3.750000e-06 0.000000e+00
-1.500000e-05 -7.500000e-06 0.000000e+00
-1.500000e-05 -1.125000e-05 0.000000e+00
-1.125000e-05 -1.500000e-05 0.000000e+00
5.000000e-06 -5.000000e-06 0.000000e+00
-7.500000e-06 -1.500000e-05 0.000000e+00
-3.750000e-06 -1.500000e-05 0.000000e+00
-3.937687e-17 -1.500000e-05 0.000000e+00
3.750000e-06 -1.500000e-05 0.000000e+00
7.500000e-06 -1.500000e-05 0.000000e+00
1.125000e-05 -1.500000e-05 0.000000e+00
1.500000e-05 -1.125000e-05 0.000000e+00
1.500000e-05 -7.500000e-06 0.000000e+00
1.500000e-05 -3.750000e-06 0.000000e+00
1.500000e-05 -3.937687e-17 0.000000e+00
1.500000e-05 1.500000e-05 0.000000e+00
1.500000e-05 3.750000e-06 0.000000e+00
1.500000e-05 7.500000e-06 0.000000e+00
1.500000e-05 1.125000e-05 0.000000e+00
1.125000e-05 1.500000e-05 2.000000e-07
7.500000e-06 1.500000e-05 2.000000e-07
3.750000e-06 1.500000e-05 2.000000e-07
3.937687e-17 1.500000e-05 2.000000e-07
-3.750000e-06 1.500000e-05 2.000000e-07
-7.500000e-06 1.500000e-05 2.000000e-07
-1.125000e-05 1.500000e-05 2.000000e-07
-1.500000e-05 1.500000e-05 0.000000e+00
-1.500000e-05 1.125000e-05 2.000000e-07
-1.500000e-05 7.500000e-06 2.000000e-07
-1.500000e-05 3.750000e-06 2.000000e-07
-1.500000e-05 3.937687e-17 2.000000e-07
-1.500000e-05 -3.750000e-06 2.000000e-07
-1.500000e-05 -7.500000e-06 2.000000e-07
-1.500000e-05 -1.125000e-05 2.000000e-07
-1.125000e-05 -1.500000e-05 2.000000e-07
-7.500000e-06 -1.500000e-05 2.000000e-07
-3.750000e-06 -1.500000e-05 2.000000e-07
-1.500000e-05 -1.500000e-05 0.000000e+00
-3.937687e-17 -1.500000e-05 2.000000e-07
3.750000e-06 -1.500000e-05 2.000000e-07
7.500000e-06 -1.500000e-05 2.000000e-07
1.125000e-05 -1.500000e-05 2.000000e-07
1.500000e-05 -1.125000e-05 2.000000e-07
1.500000e-05 -7.500000e-06 2.000000e-07
1.500000e-05 -3.750000e-06 2.000000e-07
1.500000e-05 -3.937687e-17 2.000000e-07
1.500000e-05 3.750000e-06 2.000000e-07
1.500000e-05 7.500000e-06 2.000000e-07
1.500000e-05 -1.500000e-05 0.000000e+00
1.500000e-05 1.125000e-05 2.000000e-07
-5.000000e-06 -1.666667e-06 2.000000e-07
-5.000000e-06 1.666667e-06 2.000000e-07
-1.666667e-06 5.000000e-06 2.000000e-07
1.666667e-06 5.000000e-06 2.000000e-07
5.000000e-06 1.666667e-06 2.000000e-07
5.000000e-06 -1.666667e-06 2.000000e-07
1.666667e-06 -5.000000e-06 2.000000e-07
-1.666667e-06 -5.000000e-06 2.000000e-07
7.059653e-06 -6.496729e-06 0.000000e+00
1.500000e-05 1.500000e-05 2.000000e-07
3.518855e-06 -7.568379e-06 0.000000e+00
6.211483e-06 -9.677246e-06 0.000000e+00
2.010232e-06 -1.024602e-05 0.000000e+00
-6.478643e-06 -7.059897e-06 0.000000e+00
-7.568379e-06 -3.518855e-06 0.000000e+00
-9.673709e-06 -6.211118e-06 0.000000e+00
9.727505e-06 1.514858e-06 0.000000e+00
9.538064e-06 -1.484805e-06 0.000000e+00
1.198615e-05 -1.565241e-06 0.000000e+00
-1.024345e-05 -2.007805e-06 0.000000e+00
CELLS 424 1696
3 200 202 203
3 202 204 203
3 205 206 207
3 208 209 210
3 206 211 207
3 2 3 4
3 5 4 3
3 5 132 4
3 6 160 157
3 6 157 130
3 7 8 200
3 7 203 9
3 7 200 203
3 10 11 205
3 10 207 13
3 10 205 207
3 14 15 16
3 14 17 18
3 14 16 17
3 208 19 20
3 21 19 208
3 153 7 22
3 153 154 7
3 145 10 24
3 145 147 10
3 138 14 25
3 138 139 14
3 203 204 26
3 27 16 28
3 16 27 17
3 17 27 29
3 207 211 30
3 19 31 32
3 31 33 32
3 209 8 210
3 35 210 8
3 35 155 210
3 36 11 37
3 38 37 11
3 38 148 37
3 39 15 40
3 41 40 15
3 41 140 40
3 19 32 20
3 20 32 135
3 22 7 9
3 9 152 22
3 24 10 13
3 13 144 24
3 25 14 18
3 18 137 25
3 42 200 8
3 146 200 42
3 43 16 15
3 111 16 43
3 44 205 11
3 0 205 44
3 208 210 21
3 210 156 21
3 156 158 21
3 204 37 46
3 202 47 204
3 204 36 37
3 47 36 204
3 211 40 48
3 206 49 211
3 211 39 40
3 49 39 211
3 8 7 35
3 154 35 7
3 11 10 38
3 147 38 10
3 15 14 41
3 139 41 14
3 19 21 50
3 21 158 50
3 50 31 19
3 31 50 51
3 50 159 51
3 204 46 26
3 26 46 150
3 211 48 30
3 30 48 142
3 27 52 29
3 29 52 134
3 44 11 36
3 37 149 46
3 43 15 39
3 4 133 52
3 40 141 48
3 6 53 31
3 31 53 33
3 2 4 52
3 28 54 2
3 28 2 27
3 27 2 52
3 42 8 209
3 55 3 2
3 6 130 53
3 53 130 131
3 203 26 9
3 9 26 151
3 207 30 13
3 13 30 143
3 17 29 18
3 18 29 136
3 53 5 33
3 131 5 53
3 2 54 55
3 55 54 112
3 128 47 202
3 100 54 28
3 78 49 206
3 20 57 208
3 123 57 20
3 202 200 146
3 28 16 111
3 206 205 0
3 55 32 3
3 135 32 55
3 39 49 43
3 43 49 89
3 36 47 44
3 44 47 129
3 209 57 42
3 42 57 127
3 41 139 140
3 142 143 30
3 134 136 29
3 38 147 148
3 5 3 33
3 5 131 132
3 150 151 26
3 35 154 155
3 210 155 156
3 158 159 50
3 37 148 149
3 33 3 32
3 149 150 46
3 40 140 141
3 141 142 48
3 4 132 133
3 133 134 52
3 146 128 202
3 42 127 146
3 135 123 20
3 51 160 6
3 6 31 51
3 159 160 51
3 55 112 135
3 111 100 28
3 43 89 111
3 151 152 9
3 44 129 0
3 0 78 206
3 47 128 129
3 143 144 13
3 57 209 208
3 57 123 127
3 54 100 112
3 136 137 18
3 49 78 89
3 22 190 153
3 152 190 22
3 24 179 145
3 144 179 24
3 25 168 138
3 137 168 25
3 58 59 60
3 61 62 63
3 59 64 60
3 65 66 68
3 66 69 68
3 70 71 72
3 73 72 71
3 73 163 72
3 62 74 63
3 75 63 74
3 75 186 63
3 76 191 201
3 76 201 161
3 77 74 58
3 77 60 79
3 77 58 60
3 80 81 65
3 80 68 82
3 80 65 68
3 83 84 85
3 83 86 87
3 83 85 86
3 61 88 90
3 91 88 61
3 61 63 91
3 63 187 91
3 187 188 91
3 92 81 93
3 94 93 81
3 94 178 93
3 95 84 96
3 97 96 84
3 97 171 96
3 184 77 98
3 184 185 77
3 176 80 99
3 176 177 80
3 169 83 101
3 169 170 83
3 60 64 102
3 68 69 103
3 104 85 105
3 85 104 86
3 86 104 106
3 88 107 108
3 107 109 108
3 88 108 90
3 90 108 56
3 98 77 79
3 79 183 98
3 99 80 82
3 82 175 99
3 101 83 87
3 87 167 101
3 110 58 74
3 67 58 110
3 113 85 84
3 45 85 113
3 114 65 81
3 34 65 114
3 64 93 115
3 59 116 64
3 64 92 93
3 116 92 64
3 69 96 117
3 66 118 69
3 69 95 96
3 118 95 69
3 74 77 75
3 185 75 77
3 81 80 94
3 177 94 80
3 84 83 97
3 170 97 83
3 88 91 119
3 91 188 119
3 119 107 88
3 107 119 120
3 119 189 120
3 104 121 106
3 106 121 165
3 64 115 102
3 102 115 181
3 69 117 103
3 103 117 173
3 114 81 92
3 113 84 95
3 93 180 115
3 96 172 117
3 72 164 121
3 76 122 107
3 107 122 109
3 70 72 121
3 105 124 70
3 105 70 104
3 104 70 121
3 110 74 62
3 125 71 70
3 76 161 122
3 122 161 162
3 60 102 79
3 79 102 182
3 68 103 82
3 82 103 174
3 86 106 87
3 87 106 166
3 122 73 109
3 162 73 122
3 70 124 125
3 125 124 195
3 198 116 59
3 194 124 105
3 192 118 66
3 90 126 61
3 196 126 90
3 59 58 67
3 105 85 45
3 66 65 34
3 125 108 71
3 56 108 125
3 95 118 113
3 113 118 193
3 92 116 114
3 114 116 199
3 62 126 110
3 110 126 197
3 97 170 171
3 173 174 103
3 165 166 106
3 94 177 178
3 73 71 109
3 73 162 163
3 181 182 102
3 75 185 186
3 188 189 119
3 63 186 187
3 180 181 115
3 109 71 108
3 93 178 180
3 172 173 117
3 96 171 172
3 164 165 121
3 72 163 164
3 110 197 67
3 67 198 59
3 56 196 90
3 120 191 76
3 76 107 120
3 189 191 120
3 125 195 56
3 113 193 45
3 45 194 105
3 182 183 79
3 114 199 34
3 34 192 66
3 116 198 199
3 174 175 82
3 126 62 61
3 126 196 197
3 124 194 195
3 166 167 87
3 118 192 193
3 98 23 184
3 183 23 98
3 99 12 176
3 175 12 99
3 101 1 169
3 167 1 101
3 157 161 201
3 167 168 1
3 167 136 137
3 161 131 162
3 161 157 130
3 131 161 130
3 164 132 133
3 164 134 165
3 166 134 136
3 131 163 162
3 167 166 136
3 164 163 132
3 134 164 133
3 168 167 137
3 163 131 132
3 134 166 165
3 143 144 175
3 179 12 175
3 142 143 174
3 169 1 168
3 175 144 179
3 171 140 172
3 174 143 175
3 141 142 173
3 171 170 139
3 168 138 169
3 172 141 173
3 173 142 174
3 139 140 171
3 140 141 172
3 139 170 169
3 169 138 139
3 176 12 179
3 177 176 145
3 190 23 183
3 145 176 179
3 178 177 147
3 149 150 181
3 147 177 145
3 151 182 181
3 181 150 151
3 151 152 183
3 183 152 190
3 148 149 180
3 180 149 181
3 147 148 178
3 183 182 151
3 178 148 180
3 191 159 160
3 189 158 159
3 191 189 159
3 189 188 158
3 157 191 160
3 157 201 191
3 188 156 158
3 184 154 185
3 184 190 153
3 154 184 153
3 190 184 23
3 188 187 156
3 187 155 156
3 186 154 155
3 154 186 185
3 187 186 155
3 78 34 0
3 193 111 45
3 89 192 78
3 193 89 111
3 192 89 193
3 192 34 78
3 45 111 100
3 135 56 195
3 112 135 195
3 194 100 112
3 112 195 194
3 45 100 194
3 56 135 123
3 146 67 197
3 127 146 197
3 196 123 127
3 127 197 196
3 56 123 196
3 34 129 0
3 128 67 146
3 129 198 128
3 129 34 199
3 198 129 199
3 198 67 128
CELL_TYPES 424
5
5
5
5
5
5
5
5
5
5
5
5
5
5
5
5
5
5
5
5
5
5
5
5
5
5
5
5
5
5
5
5
5
5
5
5
5
5
5
5
5
5
5
5
5
5
5
5
5
5
5
5
5
5
5
5
5
5
5
5
5
5
5
5
5
5
5
5
5
5
5
5
5
5
5
5
5
5
5
5
5
5
5
5
5
5
5
5
5
5
5
5
5
5
5
5
5
5
5
5
5
5
5
5
5
5
5
5
5
5
5
5
5
5
5
5
5
5
5
5
5
5
5
5
5
5
5
5
5
5
5
5
5
5
5
5
5
5
5
5
5
5
5
5
5
5
5
5
5
5
5
5
5
5
5
5
5
5
5
5
5
5
5
5
5
5
5
5
5
5
5
5
5
5
5
5
5
5
5
5
5
5
5
5
5
5
5
5
5
5
5
5
5
5
5
5
5
5
5
5
5
5
5
5
5
5
5
5
5
5
5
5
5
5
5
5
5
5
5
5
5
5
5
5
5
5
5
5
5
5
5
5
5
5
5
5
5
5
5
5
5
5
5
5
5
5
5
5
5
5
5
5
5
5
5
5
5
5
5
5
5
5
5
5
5
5
5
5
5
5
5
5
5
5
5
5
5
5
5
5
5
5
5
5
5
5
5
5
5
5
5
5
5
5
5
5
5
5
5
5
5
5
5
5
5
5
5
5
5
5
5
5
5
5
5
5
5
5
5
5
5
5
5
5
5
5
5
5
5
5
5
5
5
5
5
5
5
5
5
5
5
5
5
5
5
5
5
5
5
5
5
5
5
5
5
5
5
5
5
5
5
5
5
5
5
5
5
5
5
5
5
5
5
5
5
5
5
5
5
5
5
5
5
5
5
5
5
5
5
5
5
5
5
5
5
5
5
5
5
5
5
5
5
5
5
5
5
5
5
5
5
5
5
5
5
5
5
5
5
5
5
5
5
5
POINT_DATA 212
VECTORS 10.000GHz_fone_imag double
-1.011075e-01 -9.953996e-02 -3.390897e-01
1.090870e-03 -1.071001e-03 6.898708e-03
2.073294e-05 3.555623e-02 1.830746e-03
8.195967e-03 2.924118e-02 5.145938e-04
1.644457e-03 2.475058e-02 -1.485159e-04
4.956415e-03 1.999005e-02 -3.262248e-04
7.764534e-03 6.909362e-03 3.075626e-04
1.399799e-02 -1.002413e-02 9.662751e-04
2.824546e-02 -8.947636e-03 6.864021e-04
6.169659e-03 -1.371431e-02 -2.308358e-04
-1.000085e-02 -1.391242e-02 8.083367e-04
-8.766522e-03 -2.791851e-02 9.016700e-04
1.071772e-03 1.091745e-03 6.898873e-03
-1.367193e-02 -6.040122e-03 -1.031024e-04
-1.397041e-02 1.003105e-02 1.057150e-03
-2.835047e-02 9.327358e-03 7.863356e-04
-2.985074e-02 3.326154e-02 3.117630e-04
-1.073885e-02 1.923420e-02 2.272664e-04
-6.111637e-03 1.355770e-02 -7.579631e-04
2.654780e-02 9.657536e-03 6.977038e-04
5.429543e-02 1.244070e-02 -2.206165e-03
2.430450e-02 2.766675e-03 -4.874032e-04
6.424356e-03 -7.436170e-03 6.044154e-04
-1.090907e-03 1.082930e-03 6.911996e-03
-7.415186e-03 -6.367435e-03 6.658356e-04
-6.394377e-03 7.385416e-03 7.162163e-04
4.084857e-03 -2.103823e-02 2.381207e-05
-7.898629e-03 2.919473e-02 7.604631e-04
-9.374847e-03 5.565903e-02 -1.242758e-03
-4.756724e-03 2.014040e-02 -9.847781e-05
-2.092577e-02 -4.388957e-03 -1.746514e-05
1.439090e-02 1.121474e-02 1.004597e-03
2.855141e-02 3.218436e-02 -1.156639e-03
1.079381e-02 1.861848e-02 6.690883e-04
1.010022e-01 9.945983e-02 -3.390618e-01
2.084987e-02 -4.726033e-03 -5.974924e-04
-2.880386e-03 -3.471330e-02 1.137700e-03
-1.734675e-03 -2.498097e-02 -6.540267e-04
-4.493013e-03 -2.086771e-02 -8.039964e-04
-3.473473e-02 2.829012e-03 1.102643e-03
-2.498386e-02 1.754666e-03 -6.631421e-04
-2.081224e-02 4.536897e-03 -7.370260e-04
5.604034e-02 -1.078934e-02 -1.465595e-03
-5.624920e-02 1.098278e-02 -2.723184e-03
-1.040153e-02 -5.503467e-02 -2.106138e-03
1.023673e-01 -1.305376e-01 -3.481468e-01
1.150860e-03 -2.468567e-02 1.319186e-04
7.015215e-04 -5.419677e-02 1.614941e-03
-2.471656e-02 -1.100547e-03 1.097305e-04
-5.421942e-02 -8.314883e-04 1.642070e-03
1.885012e-02 5.067434e-03 -3.658964e-04
1.353430e-02 4.447215e-03 1.198189e-04
-2.309290e-03 2.446759e-02 3.879167e-05
6.495338e-03 1.361230e-02 -6.982732e-04
-6.853945e-04 5.933284e-02 -2.864023e-03
8.966500e-03 5.198431e-02 -1.291545e-03
-1.054761e-01 -1.022084e-01 -3.455283e-01
5.522689e-02 1.127608e-04 5.107223e-04
-3.627012e-02 3.094934e-02 5.481682e-03
-1.041640e-02 4.908040e-02 -1.212605e-03
-1.217992e-02 2.325835e-02 9.700402e-04
-3.376916e-02 -3.225011e-03 1.733526e-03
-3.380034e-02 3.011758e-03 9.914967e-04
-2.526647e-02 1.782598e-03 -6.110618e-04
-3.875122e-03 3.013727e-02 1.005491e-03
2.925740e-02 3.396285e-02 2.779947e-04
4.845681e-02 1.090517e-02 -8.413968e-04
-1.227821e-01 1.211077e-01 -3.412059e-01
2.320650e-02 1.209644e-02 9.874525e-04
3.007140e-02 3.938073e-03 9.875079e-04
-2.302147e-04 -3.481437e-02 1.729440e-03
-8.153300e-03 -2.874894e-02 5.293248e-04
-1.996613e-03 -2.423098e-02 -2.167166e-04
-4.991612e-03 -2.011999e-02 -4.337154e-04
-2.811566e-02 8.922707e-03 7.808451e-04
-2.092764e-02 4.604483e-03 -6.142079e-04
-7.735463e-03 -6.929275e-03 3.393800e-04
-1.406613e-02 9.848193e-03 8.276437e-04
-7.438350e-02 -9.310182e-04 -1.877914e-01
-6.300882e-03 1.375383e-02 -2.395306e-04
9.924790e-03 1.412987e-02 6.132699e-04
8.864258e-03 2.819218e-02 5.545056e-04
1.371150e-02 6.166179e-03 -1.083890e-04
1.383338e-02 -9.836365e-03 1.073126e-03
2.832950e-02 -9.190921e-03 7.888225e-04
2.980893e-02 -3.295334e-02 2.956572e-04
1.076239e-02 -1.955600e-02 1.931737e-04
6.171821e-03 -1.363774e-02 -7.501209e-04
-2.740579e-02 -1.064956e-02 7.939671e-04
-7.520092e-02 1.183647e-03 -1.884806e-01
-5.507199e-02 -1.196517e-02 -2.666691e-03
-2.426635e-02 -2.830737e-03 -4.434375e-04
2.980840e-03 3.430785e-02 7.664920e-04
1.600296e-03 2.505027e-02 -5.930095e-04
4.562146e-03 2.082157e-02 -6.820440e-04
3.438024e-02 -2.929849e-03 7.310145e-04
2.506481e-02 -1.622848e-03 -6.013626e-04
2.076265e-02 -4.622784e-03 -6.116409e-04
-6.392345e-03 7.413942e-03 6.509771e-04
7.384940e-03 6.335757e-03 7.135856e-04
-1.262408e-03 7.409007e-02 -1.878136e-01
6.347063e-03 -7.354779e-03 7.646753e-04
-4.283034e-03 2.085400e-02 -3.907665e-05
2.079769e-02 4.559111e-03 -5.393232e-05
7.738573e-03 -2.919260e-02 6.757730e-04
9.780945e-03 -5.550358e-02 -8.013972e-04
4.600111e-03 -2.040743e-02 -1.465566e-04
-1.408947e-02 -1.112542e-02 1.074855e-03
-2.822985e-02 -3.243413e-02 -1.157024e-03
-1.101626e-02 -1.897458e-02 7.207753e-04
-5.547023e-02 9.880682e-03 -1.999177e-03
-1.024580e-01 1.306541e-01 -3.482131e-01
1.584247e-03 7.169432e-02 -1.862860e-01
5.522948e-02 -9.921899e-03 -3.258629e-03
1.098537e-02 5.534474e-02 -1.684801e-03
-2.077710e-03 2.449986e-02 1.309023e-04
-3.264247e-04 5.388718e-02 1.874272e-03
2.444566e-02 2.032907e-03 1.068324e-04
5.389798e-02 4.849724e-04 1.895773e-03
-1.865242e-02 -5.707677e-03 -3.258849e-04
-1.346049e-02 -4.674664e-03 1.502256e-04
1.468954e-03 -2.459542e-02 -1.978854e-05
-6.579198e-03 -1.356196e-02 -6.817096e-04
7.338899e-02 1.325403e-03 -1.875452e-01
5.578568e-04 -5.956170e-02 -2.342801e-03
-9.497515e-03 -5.209317e-02 -9.336458e-04
-5.496400e-02 5.046810e-04 2.242863e-04
7.509064e-02 -1.236976e-03 -1.883736e-01
9.516478e-04 -7.439112e-02 -1.876223e-01
-1.007966e-03 -7.524264e-02 -1.885789e-01
1.032398e-03 8.286630e-03 2.067037e-02
7.446860e-04 1.408453e-02 3.308078e-02
3.887771e-04 1.878350e-02 4.259427e-02
9.389906e-05 1.966471e-02 4.553595e-02
-4.375252e-04 1.832680e-02 4.234308e-02
1.055716e-01 1.020797e-01 -3.455154e-01
-8.554240e-04 1.391904e-02 3.292483e-02
-9.730591e-04 8.621008e-03 2.092851e-02
-8.059097e-03 9.651466e-04 2.043055e-02
-1.404136e-02 7.969325e-04 3.302437e-02
-1.826606e-02 4.751377e-04 4.230607e-02
-2.007427e-02 3.118469e-05 4.600917e-02
-1.876770e-02 -5.237977e-04 4.277909e-02
-1.382597e-02 -8.116047e-04 3.281959e-02
-8.613831e-03 -9.696099e-04 2.091506e-02
-9.518317e-04 -8.093316e-03 2.044676e-02
1.194045e-01 -1.185204e-01 -3.464407e-01
-8.679663e-04 -1.408721e-02 3.307377e-02
-4.732698e-04 -1.829709e-02 4.234523e-02
-1.836593e-05 -2.008276e-02 4.602053e-02
5.658106e-04 -1.824168e-02 4.231451e-02
7.505717e-04 -1.465345e-02 3.349461e-02
1.015384e-03 -8.422297e-03 2.084470e-02
8.310093e-03 -8.527431e-04 2.056186e-02
1.347469e-02 -9.212293e-04 3.244005e-02
1.818345e-02 -4.753807e-04 4.222850e-02
2.029973e-02 -9.778869e-07 4.606019e-02
1.071109e-03 1.103961e-03 6.923194e-03
1.803890e-02 3.560929e-04 4.205004e-02
1.412718e-02 8.018937e-04 3.310248e-02
8.701336e-03 1.035126e-03 2.099902e-02
-9.864252e-04 -8.263350e-03 2.066431e-02
-7.756642e-04 -1.410805e-02 3.308382e-02
-3.965437e-04 -1.875495e-02 4.258757e-02
-1.026479e-04 -1.964168e-02 4.553905e-02
4.611820e-04 -1.835344e-02 4.234412e-02
8.589452e-04 -1.397906e-02 3.293103e-02
9.145763e-04 -8.613289e-03 2.093132e-02
-1.109421e-03 1.069109e-03 6.918994e-03
8.038916e-03 -9.206916e-04 2.042574e-02
1.406383e-02 -8.697744e-04 3.304552e-02
1.824820e-02 -4.761030e-04 4.230103e-02
2.009381e-02 -3.920585e-05 4.600488e-02
1.882220e-02 5.333844e-04 4.279190e-02
1.389112e-02 8.198108e-04 3.282500e-02
8.610717e-03 9.160261e-04 2.091733e-02
9.382540e-04 8.013639e-03 2.043403e-02
8.061069e-04 1.403422e-02 3.304720e-02
4.716112e-04 1.827552e-02 4.234015e-02
-1.067746e-03 -1.109447e-03 6.919213e-03
3.030169e-05 2.009136e-02 4.601581e-02
-5.510531e-04 1.825064e-02 4.231573e-02
-7.909447e-04 1.467427e-02 3.349336e-02
-9.829021e-04 8.399898e-03 2.083904e-02
-8.312742e-03 7.726373e-04 2.057156e-02
-1.350968e-02 9.524935e-04 3.244335e-02
-1.816574e-02 4.615270e-04 4.222361e-02
-2.030076e-02 -8.267668e-06 4.606233e-02
-1.808680e-02 -3.587398e-04 4.205067e-02
-1.419559e-02 -7.948771e-04 3.310881e-02
1.098808e-03 -1.089926e-03 6.932235e-03
-8.683588e-03 -9.833890e-04 2.099854e-02
7.425666e-02 1.120742e-03 -1.877575e-01
7.531201e-02 -1.109407e-03 -1.885196e-01
1.351198e-03 -7.401289e-02 -1.878065e-01
-1.542027e-03 -7.190541e-02 -1.863122e-01
-7.320832e-02 -1.420371e-03 -1.875325e-01
-7.516120e-02 1.214553e-03 -1.884267e-01
-1.140221e-03 7.427456e-02 -1.875970e-01
1.191296e-03 7.514314e-02 -1.885354e-01
3.514797e-02 -3.011197e-02 5.474937e-03
-1.070124e-03 -1.085964e-03 6.902267e-03
1.083295e-02 -4.923843e-02 -1.045563e-03
1.168230e-02 -2.317568e-02 9.645867e-04
3.206270e-03 -2.993099e-02 1.089419e-03
-2.855738e-02 -3.399996e-02 9.312458e-06
-4.866483e-02 -1.117860e-02 -7.462176e-04
-2.315164e-02 -1.164222e-02 9.691424e-04
3.236584e-02 2.940043e-03 1.640114e-03
3.398903e-02 -3.263524e-03 1.086512e-03
2.510385e-02 -1.779366e-03 -6.299138e-04
-2.986067e-02 -3.263853e-03 1.074381e-03
