# vtk DataFile Version 2.0
Electric current density generated by TTH
ASCII
DATASET UNSTRUCTURED_GRID
POINTS 2069 double
-1.566492e-05 -1.285587e-05 -4.537963e-22
9.351138e-06 -1.431361e-05 1.305588e-06
5.314762e-06 -1.933607e-05 -8.599032e-07
7.285744e-06 1.760216e-05 -1.739322e-06
-5.837406e-06 1.914498e-05 -9.289229e-07
4.594626e-06 -1.680627e-05 1.566686e-06
4.473411e-06 1.709335e-05 -1.697238e-06
1.787928e-05 -1.029411e-06 1.783131e-06
1.787126e-05 1.108343e-06 -1.782198e-06
1.870689e-05 -2.634207e-06 -1.789671e-06
1.870689e-05 2.634207e-06 1.789671e-06
-1.501524e-05 -1.360902e-05 -4.537963e-22
-4.963490e-06 1.602905e-05 8.768959e-07
-1.569167e-05 -7.578896e-06 -1.568620e-06
1.167000e-05 1.179668e-05 -3.553186e-07
8.095109e-06 -1.836644e-05 -8.244138e-07
-1.644116e-05 1.150499e-05 -8.334096e-07
-1.715082e-05 -1.031113e-05 9.347396e-07
-1.726102e-05 7.996452e-07 1.466324e-06
-1.925326e-05 -4.772374e-07 1.647763e-06
-1.179377e-05 1.492941e-05 1.748164e-06
-1.523204e-05 8.286506e-06 1.511216e-06
-1.432939e-05 -1.432939e-05 -4.537963e-22
-1.582963e-05 1.235356e-05 8.076388e-07
-1.478477e-05 -1.351180e-05 9.046882e-07
1.170639e-06 1.907455e-05 -1.716100e-06
4.177332e-07 1.656491e-05 -2.004513e-07
5.227384e-06 1.610285e-05 1.111951e-06
1.444797e-06 1.666713e-05 7.760060e-07
2.947713e-06 1.654960e-05 -9.307722e-07
-1.221877e-05 1.198493e-05 1.323405e-06
-1.880783e-05 -1.966086e-06 1.784511e-06
-1.705252e-05 -2.511228e-06 1.432008e-06
-1.360902e-05 -1.501524e-05 -4.537963e-22
-1.045712e-05 1.544705e-05 1.836931e-06
-1.401429e-05 9.116955e-06 -7.521263e-07
6.300213e-06 -1.907102e-05 7.968133e-07
5.131670e-07 -2.007970e-05 7.936083e-07
-7.542782e-06 1.477370e-05 3.238678e-07
-6.306326e-06 -1.779274e-05 1.793408e-06
8.108561e-08 2.002409e-05 9.130021e-07
-4.507142e-06 1.845067e-05 1.759264e-06
4.324121e-06 -1.763072e-05 1.834597e-06
-1.079727e-05 1.693213e-05 -8.029720e-07
-1.285587e-05 -1.566492e-05 -4.537963e-22
-9.882069e-06 1.404870e-05 1.380344e-06
-2.965663e-06 -1.647537e-05 -7.984201e-07
-2.007386e-05 4.424824e-07 8.092803e-07
-1.052747e-05 -1.366977e-05 -1.446006e-06
-1.142605e-05 -1.317977e-05 -1.579178e-06
1.801216e-05 -8.791637e-06 8.786599e-07
1.805794e-05 8.743630e-06 -8.401111e-07
-5.534334e-07 1.900357e-05 -1.753070e-06
-7.529506e-06 -1.731078e-05 -1.793373e-06
1.348266e-05 9.743399e-06 -5.234682e-07
-1.207174e-05 -1.627686e-05 -4.537963e-22
1.348266e-05 -9.743399e-06 5.234682e-07
1.417643e-05 -9.197148e-06 -1.068557e-06
1.417643e-05 9.197148e-06 1.068557e-06
-4.941504e-06 -1.850758e-05 1.696884e-06
-1.576412e-05 -6.184319e-06 1.116897e-06
1.086037e-05 1.281703e-05 9.123968e-07
-1.639751e-05 -8.973136e-06 1.831474e-06
1.478184e-06 -2.003925e-05 7.777088e-07
-5.774093e-06 1.920227e-05 8.628890e-07
-1.534265e-05 -1.291304e-05 8.592796e-07
-1.125853e-05 -1.684959e-05 -4.537963e-22
-1.621377e-05 5.240296e-06 -1.244592e-06
1.935201e-05 -5.404219e-06 -7.804377e-07
1.937203e-05 5.296103e-06 8.005635e-07
-5.136196e-06 -1.575180e-05 1.797581e-07
6.102063e-06 1.808951e-05 -1.723890e-06
-9.158433e-07 1.765673e-05 1.702204e-06
-1.464937e-05 1.208031e-05 1.761026e-06
-1.478950e-05 8.639185e-06 -1.335539e-06
-1.375307e-06 -2.001414e-05 -8.441586e-07
-1.763687e-05 5.850764e-07 -1.687235e-06
-1.041820e-05 -1.738172e-05 -4.537963e-22
1.884442e-05 4.301797e-06 -1.609849e-06
1.884413e-05 -4.299609e-06 1.610283e-06
1.653274e-05 -4.344999e-06 -1.302267e-06
1.653274e-05 4.344999e-06 1.302267e-06
-1.010797e-05 1.591593e-05 -1.799189e-06
-1.661149e-05 5.844824e-06 1.670045e-06
1.261975e-06 -1.699652e-05 -1.248695e-06
-1.302302e-06 -1.709905e-05 1.355116e-06
-1.341645e-05 -1.056073e-05 -1.281803e-06
-1.678686e-05 -4.052056e-06 1.458118e-06
-9.552772e-06 -1.787198e-05 -4.537963e-22
-1.939174e-05 -5.089242e-06 8.689117e-07
2.954615e-06 -1.670620e-05 1.157621e-06
5.276227e-06 1.936800e-05 -8.193340e-07
1.165767e-05 1.501567e-05 -1.753702e-06
-1.343926e-05 1.081249e-05 1.442132e-06
1.839356e-05 -8.061781e-06 -8.010382e-07
1.842588e-05 7.930041e-06 8.470247e-07
9.109295e-06 1.690805e-05 -1.674146e-06
1.683638e-05 -8.647683e-06 1.779654e-06
1.702751e-05 -7.698212e-06 1.832272e-06
-8.664329e-06 -1.831918e-05 -4.537963e-22
1.683698e-05 8.642898e-06 -1.780131e-06
1.702857e-05 7.726397e-06 -1.830339e-06
-8.190197e-06 1.491845e-05 -1.221296e-06
-8.511137e-06 -1.494321e-05 1.398757e-06
2.146604e-06 1.911949e-05 1.657676e-06
-5.847557e-07 -1.768957e-05 1.710147e-06
2.590882e-06 -1.775014e-05 -1.791151e-06
-5.613321e-06 1.795598e-05 -1.808875e-06
8.659722e-06 -1.439138e-05 -9.059774e-07
1.539850e-05 -9.058031e-06 1.770188e-06
-7.755012e-06 -1.872226e-05 -4.537963e-22
1.539850e-05 9.058031e-06 -1.770188e-06
-1.703136e-05 -5.197444e-06 1.751097e-06
3.006043e-06 1.981029e-05 8.900066e-07
-1.336136e-05 1.494578e-05 8.706803e-07
1.251729e-05 -1.175325e-05 -1.375109e-06
1.772853e-05 2.335803e-06 1.775246e-06
1.772853e-05 -2.335803e-06 -1.775246e-06
-1.008256e-05 -1.590222e-05 1.805196e-06
-1.704301e-05 -1.060324e-05 -8.226162e-07
-4.460977e-06 -1.678670e-05 1.531482e-06
-6.827014e-06 -1.908022e-05 -4.537963e-22
9.095636e-06 -1.598714e-05 1.852670e-06
-1.917106e-05 5.851579e-06 8.768161e-07
-7.886859e-06 -1.522263e-05 -1.351225e-06
-9.537951e-06 -1.367991e-05 6.490494e-07
1.744399e-05 6.101933e-06 -1.851502e-06
1.744399e-05 -6.101933e-06 1.851502e-06
-1.674562e-05 -4.892543e-06 -1.580790e-06
-5.362494e-06 -1.937756e-05 -7.508126e-07
-1.124799e-05 -1.217245e-05 -2.301195e-07
-1.457952e-05 -1.384001e-05 -7.585036e-07
-5.882568e-06 -1.939223e-05 -4.537963e-22
-1.485951e-05 -7.332937e-06 -2.022292e-07
-1.219838e-05 -1.122051e-05 2.336434e-07
-1.382278e-05 -1.278768e-05 1.804856e-06
-1.782971e-05 -2.083238e-06 -1.794479e-06
-1.614521e-05 -4.252784e-06 -6.983020e-07
-8.754238e-06 -1.409514e-05 3.489879e-07
-8.793093e-06 1.477497e-05 1.395697e-06
1.765717e-05 -2.150970e-06 1.744394e-06
1.765717e-05 2.150970e-06 -1.744394e-06
-2.989929e-06 -1.647330e-05 8.031905e-07
-4.923951e-06 -1.965751e-05 -4.537963e-22
-1.636665e-05 -1.165292e-05 7.830127e-07
2.023056e-06 1.754164e-05 -1.692333e-06
-7.877381e-06 -1.732545e-05 1.745900e-06
1.588865e-05 -1.047634e-05 1.746101e-06
1.588865e-05 1.047634e-05 -1.746101e-06
-1.477010e-06 -1.918320e-05 -1.657493e-06
-7.203825e-06 1.877545e-05 -7.414042e-07
9.672591e-06 1.351186e-05 4.593565e-07
5.419271e-06 -1.841388e-05 1.679313e-06
4.946773e-06 -1.874323e-05 -1.576728e-06
-3.953471e-06 -1.987544e-05 -4.537963e-22
2.004559e-05 8.701850e-07 8.380152e-07
2.004559e-05 -8.701850e-07 -8.380152e-07
1.036910e-06 -1.813421e-05 -1.836060e-06
1.093037e-05 -1.500518e-05 1.846509e-06
-1.922156e-05 -3.054563e-06 -1.526033e-06
-1.833164e-05 5.952547e-06 1.640133e-06
-1.711045e-05 4.951980e-06 1.753115e-06
7.272149e-06 -1.490167e-05 2.855252e-07
-5.435092e-07 -1.657423e-05 2.962972e-07
1.968605e-07 -1.923615e-05 1.658900e-06
-2.973467e-06 -2.004549e-05 -4.537963e-22
-1.344020e-05 -1.059520e-05 1.322268e-06
-6.340843e-06 -1.908313e-05 7.437189e-07
-1.258563e-05 -1.204017e-05 -1.563093e-06
1.234526e-05 -1.434024e-05 1.781163e-06
-1.843579e-05 -5.345766e-06 1.679117e-06
-1.377963e-05 -1.320356e-05 -1.726490e-06
1.390018e-05 1.082272e-05 1.673335e-06
1.394847e-05 -1.083442e-05 -1.694128e-06
-1.653508e-05 1.408482e-06 3.617767e-07
-1.522472e-05 -6.537593e-06 -1.894791e-07
-1.986300e-06 -2.016724e-05 -4.537963e-22
-1.074106e-06 -1.665736e-05 -6.884449e-07
2.545573e-06 -1.994045e-05 -7.588920e-07
1.981899e-05 -3.371593e-06 7.556453e-07
1.981899e-05 3.371593e-06 -7.556453e-07
-1.641938e-05 4.545826e-06 -1.241789e-06
-1.590390e-05 -5.491497e-06 9.565164e-07
-1.241696e-05 -1.302866e-05 1.805897e-06
-7.349834e-06 1.671252e-05 -1.846287e-06
-1.272781e-05 1.083588e-05 7.449763e-07
-1.019615e-05 1.319955e-05 6.552149e-07
-9.943478e-07 -2.024041e-05 -4.537963e-22
-1.214949e-05 -1.401472e-05 -1.847782e-06
-7.355468e-06 1.548516e-05 -1.350187e-06
-4.153135e-06 1.964741e-05 8.034327e-07
7.050647e-06 -1.786946e-05 1.672069e-06
-1.059834e-05 -1.707473e-05 7.715183e-07
4.127395e-06 1.694790e-05 1.579280e-06
-1.173350e-05 1.448250e-05 -1.838795e-06
5.480074e-08 2.005476e-05 -8.567440e-07
6.436749e-06 -1.903202e-05 -7.834393e-07
-1.576920e-05 7.425242e-06 1.571026e-06
1.042701e-19 -2.026482e-05 -4.537963e-22
-1.332341e-05 1.225069e-05 1.826213e-06
-9.000785e-06 -1.797857e-05 7.509947e-07
1.244789e-05 -1.184782e-05 1.388095e-06
-6.731755e-07 1.742368e-05 -1.575234e-06
-1.626673e-05 -3.901330e-06 7.724999e-07
4.447509e-06 -1.711652e-05 -1.704103e-06
-1.717997e-05 -8.787351e-06 1.627838e-06
-1.277237e-05 1.460941e-05 -1.563994e-06
1.193978e-05 -1.323066e-05 -1.756151e-06
-1.157642e-05 -1.644466e-05 -7.398370e-07
9.943478e-07 -2.024041e-05 -4.537963e-22
4.462510e-07 -1.684074e-05 -9.910817e-07
2.017603e-06 -1.643611e-05 2.617182e-08
-1.759757e-05 -9.670641e-06 8.072119e-07
4.218578e-06 -1.644491e-05 -1.172363e-06
7.324413e-06 1.660424e-05 -1.833841e-06
-1.510400e-05 6.909716e-06 4.283259e-07
1.165420e-05 -1.189909e-05 -5.895485e-07
1.004535e-05 1.385686e-05 -1.322972e-06
8.383534e-06 -1.827477e-05 7.505654e-07
-1.613026e-05 1.091724e-05 -1.515801e-06
1.986300e-06 -2.016724e-05 -4.537963e-22
8.782218e-06 -1.806763e-05 -7.878562e-07
-8.876069e-06 1.398192e-05 -8.737742e-08
1.524319e-05 -1.310769e-05 7.552797e-07
1.881786e-05 3.594617e-06 1.695921e-06
1.881786e-05 -3.594617e-06 -1.695921e-06
1.290726e-05 1.454225e-05 1.538685e-06
1.284311e-05 -1.459356e-05 -1.541385e-06
-1.529875e-06 2.005964e-05 -7.230972e-07
5.722878e-07 1.778737e-05 -1.747544e-06
1.565615e-05 7.247363e-06 1.444827e-06
2.973467e-06 -2.004549e-05 -4.537963e-22
1.565615e-05 -7.247363e-06 -1.444827e-06
-1.654884e-05 -1.447936e-06 4.390204e-07
1.052103e-05 -1.323043e-05 -1.075968e-06
-9.975618e-06 -1.744309e-05 -7.767566e-07
1.917744e-05 2.462506e-06 -1.606585e-06
1.917744e-05 -2.462506e-06 1.606585e-06
1.148422e-05 -1.312871e-05 1.578996e-06
-1.901634e-05 2.956231e-06 1.655099e-06
-1.600523e-05 4.286388e-06 1.919555e-07
1.586736e-05 -1.238301e-05 -7.002433e-07
3.953471e-06 -1.987544e-05 -4.537963e-22
[...]
POINT_DATA 2069
VECTORS 10.000GHz_fone_imag double
-2.068004e+10 2.372376e+10 9.016042e+08
-3.791571e+10 -2.108650e+10 -3.191290e+09
-3.381952e+10 -9.634534e+09 3.129340e+08
3.167959e+10 -1.360968e+10 9.460499e+08
2.867227e+10 1.027507e+10 2.793247e+09
-3.986022e+10 -5.468011e+09 -2.052001e+09
4.010674e+10 -9.473744e+09 -9.109984e+08
-1.782752e+09 -5.130806e+10 9.353050e+08
1.394968e+09 -3.253650e+10 6.658253e+08
-5.606655e+09 -3.114339e+10 -1.098746e+09
7.658893e+09 -3.733630e+10 -9.665721e+08
-1.898534e+10 1.809579e+10 -2.455006e+08
4.491004e+10 1.466359e+10 4.064939e+09
-2.082632e+10 4.836183e+10 3.911971e+09
3.196389e+10 -3.272057e+10 -1.646127e+09
-2.949598e+10 -1.256120e+10 -4.819966e+08
1.333334e+10 2.134459e+10 -1.407256e+09
-1.341302e+10 2.081977e+10 5.942849e+08
1.602674e+09 5.313536e+10 3.077305e+08
-4.261402e+09 3.429259e+10 -1.329378e+09
2.929943e+10 2.375810e+10 -1.016058e+09
1.794434e+10 3.467975e+10 -1.623768e+09
-1.524288e+10 1.843702e+10 9.421797e+08
2.080666e+10 2.471695e+10 1.280323e+09
-1.576008e+10 1.380359e+10 7.818945e+08
2.673101e+10 9.156784e+08 -2.078881e+08
4.693185e+10 -1.516213e+09 -5.714997e+09
5.237120e+10 -1.820425e+10 -1.185084e+09
6.350896e+10 -7.198859e+09 -2.013914e+09
4.853333e+10 -2.846680e+09 -1.620318e+09
4.427434e+10 4.488769e+10 1.171696e+09
-9.253435e+08 4.094954e+10 1.516552e+09
-4.457457e+09 4.779354e+10 1.570419e+09
-2.247158e+10 2.019366e+10 -1.789576e+09
2.659376e+10 1.962189e+10 6.746648e+07
2.931367e+10 4.644635e+10 -6.997385e+09
-2.369173e+10 -7.727243e+09 3.503591e+09
-2.673036e+10 -2.687997e+08 -3.168437e+08
4.283881e+10 2.135775e+10 4.457853e+08
-3.129101e+10 1.153144e+10 2.777900e+09
2.827069e+10 1.105263e+09 -1.451307e+09
3.364851e+10 8.330713e+09 -2.035995e+08
-3.024698e+10 -7.814789e+09 6.390918e+08
2.654616e+10 1.513010e+10 -3.094782e+09
-1.691360e+10 1.332784e+10 -5.899710e+08
4.214370e+10 3.024886e+10 1.768413e+07
-5.277387e+10 1.363308e+10 1.196945e+09
-8.424524e+07 3.368593e+10 -2.122876e+09
-3.972469e+10 2.628739e+10 2.153788e+09
-2.925951e+10 3.008363e+10 -1.363554e+08
-1.019188e+10 -1.917256e+10 8.537759e+08
9.597676e+09 -1.882827e+10 -2.937954e+08
3.071600e+10 4.085294e+09 -1.275116e+08
-3.280405e+10 1.992195e+10 2.273744e+08
2.383072e+10 -3.562750e+10 -3.609654e+09
-2.308587e+10 1.709496e+10 -8.930349e+08
-4.013730e+10 -5.427424e+10 -1.950934e+09
-2.175912e+10 -3.763084e+10 -7.833384e+08
2.071673e+10 -3.001251e+10 4.599253e+08
-2.978003e+10 1.014344e+10 1.238176e+09
-1.791496e+10 3.864592e+10 -3.172120e+09
4.276701e+10 -3.542562e+10 1.885056e+09
-1.892673e+10 3.632177e+10 -3.331771e+08
-3.333878e+10 -4.462261e+09 -2.702026e+09
2.657852e+10 9.054489e+09 -3.375457e+09
-1.696821e+10 1.793109e+10 -1.151058e+09
-2.183060e+10 1.490393e+10 -9.668595e+08
1.378843e+10 4.635832e+10 5.865531e+08
-7.024423e+09 -2.412158e+10 2.819732e+04
7.756688e+09 -3.006614e+10 6.459513e+08
-5.185035e+10 1.800407e+10 1.373061e+09
4.095988e+10 -1.085167e+10 9.024823e+07
3.902344e+10 5.767767e+08 4.525271e+07
1.799096e+10 2.124272e+10 -4.369978e+08
2.613757e+10 4.082785e+10 1.820881e+09
-3.039145e+10 1.471127e+09 5.646667e+08
5.116921e+09 4.629311e+10 1.163113e+09
-2.900798e+10 1.772671e+10 -2.390952e+09
6.662698e+09 -3.009981e+10 -2.979562e+08
-9.737154e+09 -3.577432e+10 1.624221e+09
-1.269279e+10 -5.097852e+10 -1.100207e+09
1.156262e+10 -4.453557e+10 -6.823269e+08
3.129211e+10 2.387042e+10 2.381283e+08
1.711953e+10 4.892079e+10 7.256414e+05
-5.427202e+10 -6.238874e+09 1.306211e+09
-5.540575e+10 5.799672e+09 -9.092368e+08
-2.899795e+10 3.630360e+10 -2.061371e+09
-1.261496e+10 5.139419e+10 -1.632995e+09
-2.489540e+10 1.266323e+10 -9.098747e+08
-7.370835e+09 1.774577e+10 1.032826e+09
-6.196084e+10 -1.095484e+10 2.915404e+08
3.012750e+10 -8.798317e+09 4.843460e+07
3.237335e+10 -2.559673e+10 -1.134009e+09
2.867302e+10 3.736842e+10 1.649312e+09
-1.281007e+10 -2.880771e+10 -1.188106e+08
1.326254e+10 -2.359867e+10 -1.321842e+09
2.528416e+10 -1.551824e+10 -1.674134e+09
-1.957388e+10 -3.798678e+10 -2.031453e+09
-2.106674e+10 -4.827748e+10 1.524354e+08
-2.611500e+10 1.245445e+10 1.004460e+09
1.606008e+10 -3.407224e+10 -1.429116e+09
1.856384e+10 -3.599583e+10 5.729451e+08
3.935083e+10 2.254752e+10 -1.377403e+09
-3.711863e+10 2.059096e+10 -1.498965e+09
4.064750e+10 -3.599556e+09 -9.471408e+08
-3.669190e+10 2.482796e+09 2.262320e+08
-4.256539e+10 -3.917429e+09 -1.759717e+09
2.637926e+10 7.407099e+09 -9.987665e+08
-4.105611e+10 -2.138975e+10 -9.460988e+08
-2.273698e+10 -3.714579e+10 -1.212439e+09
-2.368398e+10 9.683439e+09 2.502160e+08
2.785190e+10 -3.599495e+10 -1.268857e+09
-9.513097e+09 3.770568e+10 2.233892e+08
2.215590e+10 -4.011704e+09 1.804269e+09
2.564278e+10 2.193674e+10 1.384506e+09
-2.345637e+10 -2.752425e+10 -3.270974e+08
5.570053e+09 -3.591354e+10 -3.059053e+09
-4.605587e+09 -3.996728e+10 -4.200270e+08
-3.501239e+10 2.043842e+10 7.269679e+08
-1.639711e+10 2.349005e+10 -7.634649e+08
-5.330469e+10 1.164558e+10 7.805902e+08
-2.054329e+10 7.723464e+09 1.401782e+08
-3.780603e+10 -2.253959e+10 1.176314e+08
8.073297e+09 3.004810e+10 -6.947147e+08
-4.717422e+10 2.281254e+10 -9.037530e+08
-3.817740e+10 2.303614e+10 1.305692e+09
1.594905e+10 -4.279135e+10 -1.602823e+08
-9.351820e+09 -2.761463e+10 -3.974597e+08
-1.486048e+10 4.627380e+10 -1.262732e+09
-2.823313e+10 7.116910e+09 -1.740323e+09
-4.568696e+10 4.309039e+10 3.965461e+09
-1.740641e+10 1.810334e+10 4.611077e+07
-3.119438e+10 9.309014e+09 -1.703940e+09
-2.157490e+10 4.083423e+10 -6.116190e+09
-4.429952e+10 4.489090e+10 1.050134e+09
-2.068168e+10 2.383088e+10 3.422799e+09
-6.586067e+09 4.905778e+10 -3.861798e+05
-9.581994e+09 4.568599e+10 2.256182e+09
-5.795565e+10 3.533942e+10 2.560046e+09
5.263831e+10 3.098472e+10 6.286637e+08
-2.395632e+09 -3.526320e+10 -1.393351e+09
2.019082e+09 -5.015749e+10 2.021028e+08
-5.201187e+10 1.181766e+10 -5.202939e+09
-2.771128e+10 6.578759e+09 -1.844570e+09
-2.195104e+10 3.029460e+10 -5.706063e+08
4.435744e+10 6.456266e+08 5.400146e+07
-2.567223e+10 1.318700e+10 -6.792971e+08
-2.617000e+10 -3.812146e+10 4.774099e+08
2.110011e+10 -2.817771e+10 1.073370e+09
-3.296127e+10 1.293493e+09 8.641272e+08
2.447908e+10 8.966676e+09 1.910657e+09
3.985183e+10 -3.079549e+10 -1.581360e+09
-3.624030e+10 -1.033041e+10 1.901270e+08
-3.551705e+10 -1.209596e+10 1.281308e+09
-3.061824e+10 5.519143e+09 2.394755e+09
4.127566e+08 -2.982487e+10 3.706985e+08
-1.703285e+09 -3.319293e+10 -8.858167e+08
-3.686674e+10 -1.102901e+08 -1.344578e+09
-3.487078e+10 -2.185536e+10 9.625875e+08
-4.868620e+09 2.937438e+10 8.057759e+08
9.320864e+09 2.808959e+10 2.299038e+07
8.943540e+09 4.475414e+10 2.777847e+09
-5.611805e+10 -2.772119e+10 -6.776893e+08
-5.768252e+10 2.528857e+09 7.982850e+08
-4.028608e+10 -3.642903e+07 4.519025e+08
-2.412000e+10 4.055010e+09 1.822096e+09
-2.295727e+10 2.942047e+10 -6.186865e+08
-2.219583e+10 8.163232e+09 3.431687e+09
-2.689915e+10 2.803809e+10 -1.337827e+09
-2.258235e+10 -1.864349e+10 9.347303e+08
-1.009735e+10 2.852479e+10 -6.000175e+09
-1.877550e+10 2.363779e+10 2.727627e+09
3.086483e+10 -3.836836e+10 1.423063e+09
-2.474816e+10 -3.146416e+10 1.623113e+09
2.466627e+09 4.556889e+10 2.369362e+09
-1.649012e+10 3.971434e+10 1.801260e+09
-2.937507e+10 2.908576e+09 8.763265e+08
-4.963166e+10 2.544274e+09 -3.401654e+08
-2.814646e+10 -2.821954e+09 -1.383280e+09
-4.904827e+09 -2.357644e+10 8.214052e+07
4.263762e+09 -2.336391e+10 -1.885183e+09
1.469069e+10 5.446669e+10 -1.482160e+09
-1.193323e+10 3.159380e+10 3.228865e+09
-3.467511e+10 3.018346e+10 2.130507e+08
3.939206e+10 2.084456e+10 -8.808242e+08
3.298772e+10 3.755965e+10 9.125013e+08
4.031128e+10 3.056322e+10 8.405242e+08
-2.333767e+10 8.187642e+08 -6.820160e+08
-2.725733e+10 1.961538e+10 -1.372793e+09
3.757199e+10 1.721059e+10 1.843888e+09
2.403296e+10 6.381974e+09 1.610916e+09
-3.850187e+10 -1.265607e+10 1.557969e+09
-2.022791e+10 1.294927e+10 1.740039e+09
3.670457e+10 -1.235215e+10 -1.007782e+09
2.656595e+10 1.987532e+10 4.965562e+08
2.971996e+10 1.130275e+09 1.239630e+09
-3.253956e+10 -1.080711e+10 -1.338713e+08
2.225798e+10 4.083429e+10 -8.533294e+08
-2.855157e+10 -5.986516e+08 -1.690974e+07
2.536299e+10 2.651396e+10 2.818783e+07
-2.783293e+10 1.318228e+10 -1.057988e+09
-2.965991e+10 -2.674571e+10 2.946190e+08
5.897759e+10 3.024001e+09 -7.469954e+08
-6.357178e+09 4.058990e+10 -1.438344e+08
-3.027322e+10 -7.330333e+09 1.741264e+09
-1.581960e+10 3.446437e+10 3.834134e+08
3.009934e+10 2.684621e+10 6.143527e+08
-2.858969e+10 -2.572000e+10 3.356053e+08
-2.555112e+10 1.936742e+10 5.460471e+08
-2.833316e+10 -1.339716e+09 -2.375379e+09
-4.485853e+10 -6.890098e+08 3.661755e+08
-5.111287e+10 -6.553096e+09 -4.251074e+08
-1.198851e+10 2.281084e+10 5.018316e+08
-5.171334e+10 -1.460316e+10 -2.028207e+09
4.549078e+10 -1.866928e+10 -5.189061e+08
2.280746e+10 4.582907e+10 -1.888355e+09
-4.364454e+10 -4.329450e+10 -5.161369e+09
3.498313e+10 -2.535168e+10 -1.749455e+09
-3.059564e+10 -1.383189e+10 -2.137989e+09
1.468041e+10 2.142165e+10 1.503556e+09
-2.239814e+10 -3.148082e+09 8.431372e+06
-2.135616e+10 -1.176386e+10 1.354010e+09
3.927427e+10 2.515691e+10 -1.215565e+09
-2.144322e+10 -2.397588e+10 2.037310e+09
9.427346e+09 -3.661295e+10 -1.669819e+09
-6.250722e+09 -3.128087e+10 -2.549663e+08
2.602672e+10 -2.249488e+10 2.137123e+08
-2.799997e+10 -2.438051e+10 -1.624687e+08
2.497956e+10 2.423397e+09 5.015802e+08
4.358351e+10 -1.329873e+09 1.106335e+09
1.998711e+10 -5.312294e+10 -4.205237e+09
-2.672662e+10 -2.953435e+09 3.230440e+09
-1.864389e+10 -4.798815e+10 -3.919182e+09
-5.376651e+09 5.919575e+10 -3.813297e+09
-4.506777e+10 -3.612333e+10 1.675963e+09
-2.600901e+10 1.284804e+10 -3.670080e+08
6.622410e+09 -3.465487e+10 -4.399292e+07
-4.799180e+09 -3.506633e+10 -9.564664e+07
-4.313766e+10 -3.705082e+10 1.432542e+08
1.120930e+10 3.466047e+10 2.195951e+09
1.362989e+10 4.921146e+10 1.066207e+09
-1.557412e+10 -1.925753e+10 -9.675978e+08
-2.483556e+10 -6.539765e+09 -1.673948e+09
2.022934e+10 -2.628068e+10 1.032258e+09
2.816811e+10 2.723622e+10 1.880280e+07
-2.033322e+10 5.209183e+10 -2.043703e+09
-3.117392e+09 -4.460068e+10 -3.618595e+09
4.633164e+09 -5.485494e+10 -1.432848e+09
2.072064e+10 -1.002498e+10 -2.708348e+08
-3.643746e+10 1.389051e+10 -1.203356e+09
2.688782e+10 3.717688e+10 -7.928444e+08
1.296899e+10 5.543861e+10 2.443478e+09
8.185944e+09 3.668287e+10 5.657074e+08
-2.158984e+10 -4.238441e+09 -5.998058e+08
1.355395e+10 -2.384556e+10 7.435804e+08
-1.495158e+10 -2.702807e+10 2.883595e+08
3.254899e+10 3.912064e+10 -4.145572e+08
-3.972040e+10 -4.411484e+10 5.934122e+09
3.116020e+10 4.175288e+10 8.584141e+08
4.993271e+09 2.990948e+10 1.386066e+09
-3.117638e+10 -1.607150e+10 2.167061e+09
2.867080e+10 -3.414483e+10 -2.142975e+09
-4.994526e+10 -2.216540e+10 2.228008e+08
3.581663e+10 -9.951139e+09 1.498258e+09
-2.013313e+10 -6.068354e+09 -4.339439e+08
-3.597624e+10 2.651777e+10 2.061535e+08
5.905723e+09 3.423981e+10 -3.665200e+08
2.680640e+10 -5.044391e+09 2.653562e+09
-1.627188e+10 1.517235e+10 -1.297763e+09
-2.004833e+10 -1.019802e+10 3.613742e+08
2.509058e+10 -1.772369e+10 8.433682e+08
-3.820888e+10 3.724048e+10 2.959653e+09
-5.257780e+10 -2.664080e+09 4.228502e+08
-3.164156e+10 -1.931430e+10 1.152131e+09
4.244636e+10 3.722075e+10 3.409224e+09
-2.274408e+10 -7.845849e+09 8.371410e+08
-9.712656e+09 5.146796e+10 -1.013655e+09
-3.672570e+10 -1.890993e+10 -3.053743e+09
3.828428e+10 7.858273e+09 3.356072e+09
8.593409e+08 -2.798191e+10 2.124105e+08
-7.802048e+08 -3.557438e+10 -5.159786e+08
3.724087e+10 -2.171979e+10 1.580410e+09
1.807375e+10 1.634965e+10 1.346586e+09
4.179501e+10 -7.005545e+09 -8.063643e+07
1.770358e+10 -2.768060e+10 -2.074211e+09
4.115835e+10 7.694340e+09 -2.071512e+09
-2.518418e+10 -9.966514e+09 -2.577103e+09
1.993195e+10 -1.430533e+10 4.920286e+08
-2.295200e+10 -1.745440e+10 2.084404e+09
3.550208e+10 1.054046e+10 1.244550e+09
5.085323e+08 3.130682e+10 -7.838153e+08
5.229022e+08 4.746794e+10 -6.139688e+08
4.305100e+10 -1.365538e+10 2.069184e+09
-2.884969e+10 1.409969e+09 -5.663905e+07
1.171634e+10 -4.256629e+10 1.569486e+09
-4.849304e+09 -3.704918e+10 1.234454e+09
-5.917094e+09 3.142259e+10 6.466114e+08
-1.957848e+10 -1.058077e+10 -3.484200e+08
2.169021e+10 3.136924e+10 5.347140e+08
-2.787098e+10 4.279577e+10 1.812658e+08
2.415926e+10 -3.363151e+09 -5.687464e+08
1.773315e+10 3.830763e+10 9.525540e+08
3.415688e+10 -1.956624e+10 -1.080356e+07
-3.240450e+10 7.133657e+09 1.336711e+09
-1.210077e+10 -2.806792e+10 -7.011664e+08
1.445752e+10 -3.090642e+10 1.397650e+09
-2.539857e+10 -1.993990e+09 8.237969e+08
-2.444924e+10 2.292793e+09 1.861445e+09
-1.837417e+10 -9.122406e+09 -4.624498e+08
-6.456632e+10 -7.077901e+09 2.153143e+09
3.292353e+10 3.901807e+09 8.348749e+08
6.662872e+09 3.035616e+10 -7.619101e+08
-1.488883e+10 1.773819e+10 1.338827e+08
4.218404e+10 -4.545798e+10 6.451033e+07
-2.591370e+10 -1.726359e+10 2.179026e+08
3.817869e+10 6.520088e+09 1.647873e+09
1.749191e+10 3.629044e+10 4.688926e+08
-6.264986e+10 -5.605513e+09 4.342128e+08
-1.452774e+10 2.320754e+10 5.936410e+08
-2.033487e+10 -1.159700e+10 2.048284e+09
-3.791749e+09 4.733526e+10 5.874986e+07
-5.487593e+10 -1.859392e+10 -7.554243e+07
-4.351787e+10 2.040300e+10 9.655894e+08
-4.556258e+10 -1.038376e+10 -4.866286e+08
1.391356e+10 2.847923e+10 -1.340339e+09
-2.965701e+10 -5.062873e+08 5.615037e+08
1.038555e+10 -2.507995e+10 -9.835354e+08
-5.778289e+09 -2.572063e+10 1.650448e+09
-3.940084e+10 1.787802e+10 -4.523675e+09
2.581478e+10 -8.186673e+09 1.891522e+09
-2.863749e+10 -1.930675e+10 -6.102713e+08
3.151605e+09 -5.245428e+10 -9.482411e+08
1.796169e+09 -5.355858e+10 3.440062e+09
4.907682e+10 -5.840230e+09 3.082849e+09
-2.682569e+10 7.137022e+09 -3.758463e+08
-2.255033e+10 -4.249974e+10 3.004843e+09
2.756520e+10 -5.820844e+10 5.165002e+09
-5.493229e+10 -2.315248e+10 -2.168871e+09
-1.647597e+09 2.813712e+10 1.111299e+09
-3.887296e+10 1.891139e+10 -6.371822e+08
3.361778e+09 3.670624e+10 -1.307217e+09
-2.717401e+10 -2.001287e+10 1.016368e+09
1.355756e+10 2.987589e+10 4.273432e+08
1.632596e+10 2.692562e+10 -1.584443e+09
-3.874798e+10 -5.770068e+09 -2.465956e+09
-2.255378e+10 -1.894425e+10 9.005853e+08
2.870366e+10 -1.567808e+10 1.427775e+09
-9.142000e+09 2.857275e+10 -5.319634e+08
-5.532663e+10 9.152922e+07 1.850587e+09
3.136547e+10 -9.316718e+09 1.169197e+09
-4.071808e+10 2.113661e+10 -1.772812e+09
3.248821e+10 -5.117241e+09 3.881683e+07
-1.650586e+10 -1.367974e+10 2.294322e+07
-4.531895e+10 -2.612084e+10 -6.028429e+08
-2.819038e+10 -8.046326e+09 6.134685e+08
7.383334e+09 2.570663e+10 -8.540082e+07
2.579824e+10 -1.167664e+09 -1.588624e+08
5.585062e+09 -2.641374e+10 1.454770e+09
-6.681854e+09 -3.579591e+10 -1.080546e+09
1.168486e+10 4.506110e+10 5.331650e+08
1.265513e+10 1.701294e+10 -1.817638e+09
2.107626e+10 4.327143e+10 9.983639e+08
-2.419969e+10 3.656485e+10 -4.179335e+08
-1.894619e+10 -1.717052e+10 -3.004380e+09
2.827021e+10 2.980543e+10 1.184323e+09
9.275064e+09 2.614658e+10 1.793402e+09
6.534502e+09 3.196324e+10 -8.785485e+08
-3.676177e+10 -9.410155e+09 -4.288677e+08
1.169330e+10 2.300790e+10 3.077989e+09
-2.017724e+10 4.059370e+10 -2.260760e+09
-2.664069e+10 4.191808e+10 -2.194731e+09
-1.582487e+10 4.463171e+10 -1.601030e+09
6.193106e+09 4.468230e+10 -1.580231e+09
2.341161e+10 -2.030717e+10 7.977113e+08
-1.397019e+10 -1.581057e+10 1.563869e+09
-5.133616e+10 -2.342512e+10 -6.647163e+09
-2.861761e+10 1.249889e+10 2.766415e+09
-4.826468e+10 -1.343180e+10 2.145762e+09
-3.826839e+10 4.480331e+10 2.344516e+09
2.661998e+10 -2.522941e+10 -1.025943e+09
-4.712364e+10 -3.323619e+10 -5.000940e+07
-1.495975e+10 4.197250e+10 -8.602179e+08
2.892018e+10 -4.329312e+10 -9.323586e+08
-2.388581e+10 -3.821315e+10 1.281164e+09
-5.065869e+10 2.043783e+10 3.012144e+09
-1.575455e+10 -1.551609e+10 -2.494710e+09
-7.700288e+09 6.105551e+10 -2.192879e+08
-5.908798e+10 3.607235e+10 3.781502e+09
-3.630466e+10 4.910572e+10 -1.625188e+08
2.593231e+10 -2.742043e+10 -1.080924e+09
-2.597361e+10 -3.111623e+10 -5.417917e+08
-2.595211e+10 1.062658e+10 -8.431801e+08
-2.995356e+10 1.721420e+10 -1.681850e+09
-3.370389e+10 1.220948e+10 -1.075968e+09
3.126902e+10 -3.286921e+09 1.246452e+08
-4.529451e+09 -3.312454e+10 -8.834958e+08
-1.998993e+10 -2.410341e+10 2.139170e+09
5.482871e+09 -3.374501e+10 -1.908456e+08
5.610771e+08 3.269150e+10 -1.527732e+09
-2.881782e+10 2.801154e+10 -1.236284e+09
2.414154e+10 3.207068e+10 4.642569e+08
4.765756e+10 1.172389e+10 -9.710981e+07
2.931250e+10 -2.530456e+10 -3.690760e+08
-1.743158e+10 -2.400963e+10 3.805839e+08
1.896491e+10 -3.176607e+10 1.603552e+09
1.261527e+10 6.103479e+10 -9.119341e+08
-2.598955e+10 -2.538016e+10 2.097090e+09
-1.669044e+10 -2.376843e+10 8.534814e+08
-1.896572e+10 3.373520e+10 -1.824559e+09
-4.447957e+10 3.208477e+10 8.552303e+08
7.705110e+08 5.399170e+10 1.668023e+09
5.485662e+10 8.163396e+09 2.303021e+09
-3.437747e+10 -1.249953e+10 5.409626e+08
-2.102734e+10 2.868395e+10 1.886492e+09
2.273551e+10 2.475438e+10 -2.521083e+08
-1.481462e+10 -4.310295e+10 1.567465e+09
1.359559e+10 -3.835568e+10 -1.074652e+09
2.773601e+10 -2.736269e+10 -1.847913e+08
-1.646257e+10 -2.302965e+10 -5.675496e+08
3.570488e+10 -3.587964e+10 6.576884e+08
2.364393e+10 -1.221290e+10 -1.404095e+09
-1.270026e+08 4.520047e+10 -3.915445e+08
2.766282e+10 2.338402e+10 -1.387320e+09
7.984187e+09 -3.531287e+10 -1.050082e+09
-9.998035e+09 -4.093634e+10 -5.821909e+08
5.443837e+10 3.092829e+09 5.469911e+09
2.234343e+09 3.098476e+10 1.364683e+09
4.408070e+10 -4.437878e+10 1.157272e+09
2.814667e+10 4.087527e+10 2.810722e+09
-1.423039e+10 -2.574525e+10 -3.705745e+07
-2.404044e+10 -2.245166e+09 -5.330562e+08
-4.704731e+10 8.333464e+09 8.450909e+08
2.224343e+10 2.812824e+10 -1.121281e+08
1.181596e+10 2.992849e+10 -2.196448e+09
1.199029e+10 3.991630e+10 -5.319603e+08
-2.481224e+10 6.031570e+09 4.049848e+08
-3.508614e+10 3.883582e+09 -2.145807e+08
-5.324563e+10 3.408152e+09 8.494416e+08
-4.398180e+10 2.194818e+10 -1.885369e+09
-4.820874e+09 2.780577e+10 1.418852e+09
-1.447250e+10 -2.689786e+10 7.468451e+08
2.692173e+10 5.324596e+10 2.438629e+09
5.023935e+10 2.044098e+10 -1.997022e+09
-6.455557e+08 4.711368e+10 1.471411e+09
-5.126262e+10 3.814109e+10 -8.065844e+08
4.219115e+10 -1.986307e+10 -4.492082e+09
3.536234e+10 4.001507e+10 -1.805653e+09
1.549106e+10 -3.222463e+10 -1.217384e+09
-1.264707e+10 -2.311041e+10 5.348308e+08
4.047323e+10 -1.571543e+10 -1.411731e+08
1.662900e+10 -4.379725e+10 6.709293e+09
-1.137449e+10 -2.243600e+10 -1.841407e+08
-1.726456e+10 -4.604642e+10 7.287367e+09
2.775057e+10 1.598842e+10 1.321271e+09
3.006930e+10 -2.750938e+10 1.240677e+09
-3.756328e+10 -3.123555e+10 -3.245575e+09
3.613500e+10 7.954721e+07 -1.238267e+08
2.737120e+10 -6.324523e+09 3.712340e+09
-2.481182e+10 3.379110e+10 -5.837030e+08
-3.498400e+10 -2.181185e+10 -1.198070e+09
1.735177e+10 -1.196937e+10 -4.362849e+07
-8.485546e+09 -2.504307e+10 9.249478e+08
-1.125389e+10 -2.726793e+10 -3.329399e+08
8.491968e+09 -3.093798e+10 -6.085814e+07
2.141121e+10 -1.411644e+10 2.233738e+09
5.893059e+10 -2.650766e+09 -1.212438e+09
2.081686e+10 1.362387e+10 1.236218e+09
3.776638e+10 1.753574e+10 1.175259e+09
-8.040380e+09 2.591812e+10 2.388745e+09
-1.639224e+10 2.854833e+10 1.306562e+09
-4.170218e+10 -4.241997e+10 -7.136237e+08
1.826039e+10 1.860276e+10 -1.516635e+09
2.869960e+10 -2.033897e+10 4.304465e+08
-1.053445e+10 -2.876256e+10 2.104604e+09
2.975954e+10 1.199984e+10 2.250445e+09
-3.171462e+10 -3.361726e+09 -1.298775e+09
5.150001e+09 -5.672922e+10 4.075021e+09
-6.744943e+09 -5.570879e+10 -1.259267e+09
-2.830935e+10 -2.104407e+10 -9.881259e+08
3.752674e+10 4.204106e+10 6.596271e+09
2.236343e+10 1.689412e+10 -8.984730e+08
-1.042341e+10 2.715600e+10 -2.585887e+09
5.079070e+10 -2.246647e+10 -1.906666e+09
5.170801e+10 2.065379e+10 2.709538e+08
-7.286225e+09 -2.370177e+10 9.382646e+08
1.979151e+10 9.081953e+09 3.289685e+08
2.100313e+10 2.380448e+10 -5.728493e+08
2.016518e+10 -3.662786e+10 -1.486105e+09
-1.547821e+10 -3.580554e+10 9.385462e+07
2.839424e+10 -9.197905e+09 1.309426e+09
-5.497776e+10 8.390013e+09 -3.077416e+06
3.063059e+10 -1.139530e+10 -2.141298e+09