# vtk DataFile Version 2.0
Electric current density generated by TTH
ASCII
DATASET UNSTRUCTURED_GRID
POINTS 2256 double
2.654221e-05 -6.500967e-21 -3.518859e-22
2.531187e-05 7.987367e-06 -3.518859e-22
-2.589806e-05 -5.811996e-06 -3.518859e-22
2.274345e-05 -1.053463e-05 1.436105e-06
2.221370e-05 9.419751e-06 -1.053231e-06
2.221370e-05 -9.419751e-06 -1.053231e-06
6.334326e-06 -2.457980e-05 -1.409659e-06
-1.873520e-05 -1.446701e-05 7.293934e-08
1.131550e-05 2.269272e-05 1.414424e-06
-2.597843e-05 3.761096e-06 -8.694149e-07
5.388147e-06 -2.563338e-05 9.382149e-07
-2.379601e-05 -1.099260e-05 9.159682e-07
1.985434e-05 1.302029e-05 4.551477e-07
-2.568577e-05 -6.688055e-06 -3.518859e-22
1.985434e-05 -1.302029e-05 4.551477e-07
-2.168586e-05 -1.098649e-05 -1.196373e-06
-1.180612e-05 -2.087491e-05 -8.956574e-07
7.909098e-06 2.239013e-05 -4.644225e-07
4.069468e-06 -2.339403e-05 -4.625577e-07
1.093491e-05 2.383935e-05 -8.972299e-07
2.484693e-05 2.615866e-06 -1.431555e-06
2.484693e-05 -2.615866e-06 -1.431555e-06
2.324016e-05 -4.690853e-06 3.366341e-07
2.324016e-05 4.690853e-06 3.366341e-07
-2.544386e-05 -7.556400e-06 -3.518859e-22
2.425644e-05 -1.005594e-05 8.574596e-07
2.425644e-05 1.005594e-05 8.574596e-07
-2.447659e-05 4.309670e-06 1.414334e-06
1.567964e-05 -1.777792e-05 3.183104e-07
1.572398e-05 1.773833e-05 3.170302e-07
9.299810e-06 -2.301364e-05 -1.408358e-06
1.931882e-05 1.426656e-05 -9.360709e-07
1.931882e-05 -1.426656e-05 -9.360709e-07
2.550533e-05 -6.064542e-06 -9.110304e-07
2.550533e-05 6.064542e-06 -9.110304e-07
-2.517259e-05 -8.416030e-06 -3.518859e-22
-9.276809e-06 -2.323528e-05 1.434060e-06
1.784486e-05 -1.729759e-05 -1.414223e-06
1.784486e-05 1.729759e-05 -1.414223e-06
-9.197592e-07 2.483320e-05 1.413818e-06
-1.440467e-05 -2.056460e-05 1.436682e-06
2.041277e-05 1.303000e-05 1.128957e-06
2.041277e-05 -1.303000e-05 1.128957e-06
4.376187e-06 -2.335524e-05 5.081105e-07
2.411086e-05 -1.030993e-05 -9.033608e-07
2.411086e-05 1.030993e-05 -9.033608e-07
-2.487230e-05 -9.265953e-06 -3.518859e-22
-1.901828e-05 -1.443728e-05 -7.454931e-07
-1.299232e-05 -2.107776e-05 1.394589e-06
-2.139471e-05 1.019310e-05 2.918295e-07
-2.337387e-05 -3.742107e-06 -8.782352e-08
-1.929592e-05 1.787498e-05 -7.938046e-07
-2.332660e-05 1.215155e-05 -7.954516e-07
-3.783521e-06 2.602964e-05 -7.935276e-07
-1.223893e-05 2.328237e-05 -7.934387e-07
-1.503759e-06 -2.362103e-05 -1.114185e-09
-1.617484e-05 -1.728697e-05 -1.232189e-07
-2.454331e-05 -1.010519e-05 -3.518859e-22
1.089485e-05 -2.390243e-05 -8.438031e-07
-4.272496e-06 -2.435895e-05 -1.386954e-06
-2.314726e-05 1.232104e-05 9.039425e-07
2.321339e-05 9.227145e-06 -1.431191e-06
2.321339e-05 -9.227145e-06 -1.431191e-06
2.107647e-05 -1.563734e-05 8.764096e-07
2.107647e-05 1.563734e-05 8.764096e-07
-2.148887e-05 -1.262175e-05 -1.424846e-06
-2.217027e-05 -1.109433e-05 1.401884e-06
-2.575858e-05 4.806585e-06 9.269200e-07
-2.418602e-05 -1.093277e-05 -3.518859e-22
2.162812e-05 -9.928889e-06 5.959681e-07
2.162812e-05 9.928889e-06 5.959681e-07
-2.501075e-05 -5.156223e-07 -1.433895e-06
-2.459218e-05 4.211461e-06 -1.428261e-06
-1.238500e-05 2.022757e-05 3.725567e-07
-5.600469e-06 -2.450234e-05 -1.436397e-06
2.441548e-06 -2.616144e-05 -8.343240e-07
6.443615e-06 -2.392724e-05 1.399246e-06
-6.134742e-06 -2.301264e-05 -6.340115e-07
-2.207255e-05 -1.424235e-05 -8.433250e-07
-2.380083e-05 -1.174774e-05 -3.518859e-22
-7.206581e-07 2.620007e-05 9.188291e-07
2.436570e-05 -6.228201e-06 -1.436022e-06
2.436570e-05 6.228201e-06 -1.436022e-06
7.601208e-06 2.267259e-05 8.009949e-07
-1.757885e-05 1.947236e-05 -8.899778e-07
-4.425578e-06 2.463046e-05 -1.434419e-06
-1.840056e-05 1.496970e-05 3.825831e-07
1.188358e-05 -2.049356e-05 -2.443527e-07
-2.430103e-05 9.884090e-06 -8.888595e-07
-1.009328e-05 2.421479e-05 -8.889807e-07
-2.338819e-05 -1.254916e-05 -3.518859e-22
-9.306676e-06 -2.451979e-05 8.984818e-07
-2.385784e-05 4.807285e-07 7.206899e-07
-1.118468e-05 2.149262e-05 -1.138079e-06
-2.055473e-05 -1.639400e-05 -8.104017e-07
-2.576660e-05 -1.390107e-06 -1.255426e-06
-2.197271e-05 1.217958e-05 -1.436583e-06
1.261132e-05 -2.148176e-05 -1.423325e-06
-1.767520e-05 1.653334e-05 -1.117460e-06
-6.097410e-06 2.287146e-05 -6.407730e-08
-2.355225e-06 2.613997e-05 8.738995e-07
-2.294858e-05 -1.333611e-05 -3.518859e-22
2.053392e-05 -1.187564e-05 -3.825941e-07
2.053392e-05 1.187564e-05 -3.825941e-07
-7.584836e-06 -2.304799e-05 -1.164393e-06
2.392558e-05 2.523123e-06 9.835007e-07
2.392558e-05 -2.523123e-06 9.835007e-07
-1.919563e-05 1.384843e-05 -4.740303e-08
1.563328e-06 2.627193e-05 7.700584e-07
-2.535290e-05 7.063191e-06 7.700579e-07
-1.349132e-05 1.944858e-05 -5.451179e-08
-2.500325e-05 -8.057291e-06 -8.422679e-07
2.502605e-05 8.842267e-06 -3.518859e-22
-2.248249e-05 -1.410767e-05 -3.518859e-22
1.034071e-05 2.178327e-05 -1.038809e-06
-1.811474e-05 -1.679204e-05 1.378419e-06
-2.009220e-06 2.624160e-05 -7.700583e-07
2.317678e-05 1.246453e-05 -7.739572e-07
2.317678e-05 -1.246453e-05 -7.739572e-07
-2.409996e-05 6.203977e-07 -1.033871e-06
-2.053019e-05 -1.446714e-05 1.436649e-06
2.209854e-06 2.520842e-05 1.422755e-06
-2.316957e-05 4.845843e-06 7.674145e-08
2.774793e-06 -2.350989e-05 -1.101629e-07
-2.199048e-05 -1.486297e-05 -3.518859e-22
9.258038e-06 2.201469e-05 7.532935e-07
-1.579984e-05 -1.837804e-05 1.143731e-06
-1.737136e-05 1.973769e-05 8.081588e-07
-2.417286e-05 7.502992e-06 1.421984e-06
1.693941e-05 -1.653090e-05 2.625422e-09
1.693941e-05 1.653090e-05 2.625422e-09
-9.804205e-06 2.439870e-05 8.059598e-07
1.959270e-05 -1.754119e-05 8.017856e-07
1.959270e-05 1.754119e-05 8.017856e-07
2.528496e-05 2.034460e-06 1.412750e-06
-2.147310e-05 -1.560112e-05 -3.518859e-22
2.528979e-05 -2.035973e-06 1.411828e-06
-2.494733e-05 6.561507e-06 -1.259998e-06
-4.640851e-06 -2.588518e-05 -8.014290e-07
-2.350201e-05 3.233992e-06 -3.924048e-07
-1.553892e-07 2.367120e-05 9.070959e-08
-5.221231e-06 2.308846e-05 8.679569e-08
1.422409e-05 -2.074097e-05 -1.436001e-06
-1.091155e-06 2.500639e-05 -1.434706e-06
2.072225e-05 1.394217e-05 1.430824e-06
2.072225e-05 -1.394217e-05 1.430824e-06
-2.093095e-05 -1.632128e-05 -3.518859e-22
-9.432372e-06 -2.185920e-05 -6.156458e-07
1.334912e-05 -2.265052e-05 8.108236e-07
-3.889569e-06 -2.472104e-05 1.434434e-06
-1.017008e-05 -2.316364e-05 -1.423743e-06
-2.400347e-05 -2.846731e-06 1.091789e-06
-2.303490e-05 -1.263707e-05 8.364617e-07
-1.659295e-05 1.892267e-05 -1.435354e-06
-1.767364e-06 2.365152e-05 -3.705919e-07
9.449350e-06 -2.453553e-05 8.097765e-07
-2.344899e-05 9.148700e-06 -1.435214e-06
-2.036467e-05 -1.702261e-05 -3.518859e-22
-7.745649e-06 2.511021e-05 8.306997e-07
-1.468935e-05 2.121468e-05 -1.255540e-06
-9.344714e-06 2.336214e-05 -1.435583e-06
-1.116239e-06 -2.627714e-05 7.970456e-07
-2.087098e-05 1.517009e-05 -1.256726e-06
1.028054e-05 2.419954e-05 8.090872e-07
1.096947e-05 -2.389545e-05 8.086869e-07
1.189979e-05 -2.344608e-05 8.086355e-07
1.081901e-06 2.579632e-05 -1.247007e-06
6.848723e-06 2.541586e-05 7.636589e-07
-1.977489e-05 -1.770431e-05 -3.518859e-22
-6.783872e-06 2.489785e-05 -1.254631e-06
1.621131e-05 -1.750524e-05 -7.138648e-07
1.621131e-05 1.750524e-05 -7.138648e-07
9.327497e-06 2.458461e-05 8.063471e-07
8.483449e-06 -2.488756e-05 8.076257e-07
8.371388e-07 -2.405960e-05 -1.000172e-06
-1.855637e-05 -1.591524e-05 1.276638e-06
-6.634902e-06 -2.275255e-05 2.986035e-07
1.557362e-05 -2.116808e-05 -8.278029e-07
1.559587e-05 2.115353e-05 -8.257095e-07
-1.916231e-05 -1.836559e-05 -3.518859e-22
-1.229448e-05 -2.324336e-05 8.062769e-07
-2.376569e-05 4.294242e-06 -1.073340e-06
-2.245395e-05 -8.253642e-06 -8.156670e-07
-2.530833e-05 -7.113553e-06 8.144447e-07
2.529459e-05 -8.245024e-07 -1.422341e-06
2.531413e-05 8.626028e-07 -1.419224e-06
-1.978385e-05 1.731646e-05 8.103971e-07
-1.288226e-05 2.291895e-05 8.112143e-07
7.711618e-06 2.518108e-05 7.425368e-07
1.628392e-05 -1.936835e-05 1.422891e-06
-1.852763e-05 -1.900568e-05 -3.518859e-22
1.106824e-05 2.180426e-05 1.279766e-06
-2.092276e-05 -1.593619e-05 7.973386e-07
-1.498211e-05 -1.836735e-05 -3.105645e-07
-9.717582e-06 -2.442989e-05 -8.106650e-07
-2.625344e-05 1.786048e-06 7.767556e-07
1.303166e-05 1.982518e-05 3.967475e-07
2.120537e-05 1.062171e-05 -3.682435e-07
2.120537e-05 -1.062171e-05 -3.682435e-07
-1.583277e-05 1.986817e-05 -1.405096e-06
1.895407e-05 1.825869e-05 -7.707222e-07
-1.787157e-05 -1.962386e-05 -3.518859e-22
1.895407e-05 -1.825869e-05 -7.707222e-07
5.168495e-06 -2.579003e-05 -7.940508e-07
-2.407769e-05 8.127322e-06 -1.403534e-06
-2.382353e-05 -1.114008e-05 -7.991056e-07
-1.848007e-05 -1.867595e-05 8.364019e-07
5.134877e-06 -2.464648e-05 1.434968e-06
-4.519634e-06 2.369669e-05 -1.048984e-06
-7.276190e-07 2.411451e-05 -1.050513e-06
1.829198e-05 -1.713963e-05 1.436171e-06
1.829198e-05 1.713963e-05 1.436171e-06
-1.719491e-05 -2.021940e-05 -3.518859e-22
-1.875351e-05 -1.576729e-05 -1.303330e-06
-8.297064e-06 2.400994e-05 -1.405524e-06
-2.392042e-05 1.083951e-05 8.527130e-07
-2.269362e-05 7.270795e-06 6.609699e-07
-1.596364e-05 -2.091995e-05 7.753134e-07
-5.766665e-06 2.563356e-05 8.356206e-07
-2.192322e-05 -8.934168e-06 1.188014e-07
-2.523326e-05 3.051687e-06 1.402486e-06
5.710270e-06 -2.298165e-05 1.822136e-07
1.953801e-05 -1.603097e-05 1.426886e-06
2.471137e-05 9.686968e-06 -3.518859e-22
-1.649841e-05 -2.079162e-05 -3.518859e-22
1.953801e-05 1.603097e-05 1.426886e-06
2.400269e-06 2.369292e-05 6.296923e-07
-2.257760e-05 -1.351803e-05 -7.752255e-07
2.336232e-05 1.199573e-05 8.523542e-07
2.336232e-05 -1.199573e-05 8.523542e-07
-2.401763e-05 -1.486129e-06 -9.891245e-07
2.304467e-05 -7.800623e-06 -1.208827e-06
2.304467e-05 7.800623e-06 -1.208827e-06
1.239491e-05 -2.316699e-05 -8.353628e-07
-2.404066e-05 -7.846489e-06 -1.424953e-06
-1.578288e-05 -2.133986e-05 -3.518859e-22
-2.116635e-05 -1.556485e-05 -8.370734e-07
9.920007e-07 -2.625199e-05 -8.404659e-07
1.240171e-05 2.316519e-05 -8.330949e-07
2.573909e-05 5.214602e-06 -8.524251e-07
2.573909e-05 -5.214602e-06 -8.524251e-07
1.039259e-05 -2.189454e-05 -1.143564e-06
[...]
POINT_DATA 2256
VECTORS 10.000GHz_fone_imag double
-1.044866e-03 7.249365e-04 1.758007e-02
-1.820397e-04 -3.374758e-04 1.768540e-02
-2.431160e-04 2.717824e-04 1.782056e-02
-2.030530e-02 8.772264e-03 -1.510971e-03
1.683806e-02 6.658780e-03 -1.694070e-02
1.683539e-02 -6.659710e-03 -1.693713e-02
5.156477e-03 -1.989847e-02 3.197909e-03
1.795391e-06 7.013723e-04 -2.644823e-02
-9.310491e-03 -1.858957e-02 2.833751e-03
-1.148493e-02 1.191595e-03 1.426193e-02
-2.519587e-03 1.254855e-02 1.367379e-02
1.114809e-02 4.995884e-03 1.404467e-02
-7.325842e-03 -4.482974e-03 -2.493316e-02
-6.477949e-04 -2.479366e-04 1.832982e-02
-7.281666e-03 4.456449e-03 -2.495081e-02
-1.697635e-02 -9.252665e-03 -1.490232e-02
-7.482767e-03 -1.329733e-02 -2.061217e-02
2.758194e-03 7.854162e-03 -2.504009e-02
8.467894e-04 -7.595058e-03 -2.543851e-02
4.901690e-03 1.052399e-02 1.451560e-02
2.175952e-02 2.510470e-03 -2.522504e-03
2.162141e-02 -2.244470e-03 -2.721638e-03
-6.451068e-03 1.295601e-03 -2.570659e-02
-6.383813e-03 -1.346501e-03 -2.563092e-02
-2.682065e-04 1.354922e-04 1.797124e-02
-9.945761e-03 4.050570e-03 1.508258e-02
-9.939806e-03 -4.048628e-03 1.508289e-02
2.174343e-02 -3.430493e-03 -4.232399e-03
-3.533871e-03 4.179140e-03 -2.624115e-02
-3.321125e-03 -3.997940e-03 -2.580602e-02
8.550370e-03 -2.061762e-02 -5.320757e-03
1.294366e-02 9.490865e-03 -2.007427e-02
1.294680e-02 -9.493584e-03 -2.008445e-02
1.232520e-02 -2.978234e-03 1.378322e-02
1.233117e-02 2.973146e-03 1.378326e-02
-4.394311e-04 -5.998933e-04 1.762312e-02
7.191543e-03 1.917422e-02 -2.679648e-03
1.612986e-02 -1.513603e-02 -5.362165e-03
1.588401e-02 1.541367e-02 -4.679631e-03
8.677176e-04 -2.201663e-02 -5.395055e-03
1.233835e-02 1.778983e-02 -4.780001e-04
-1.561947e-02 -1.021437e-02 -1.555054e-02
-1.562992e-02 1.021924e-02 -1.555675e-02
-2.157929e-03 8.590026e-03 -2.465375e-02
1.086909e-02 -4.952461e-03 1.411356e-02
1.087588e-02 4.955609e-03 1.411433e-02
-1.260789e-04 1.883523e-05 1.772559e-02
-1.067179e-02 -8.141336e-03 -2.206154e-02
1.176767e-02 1.862003e-02 -6.113036e-03
4.452903e-03 -2.276541e-03 -2.620398e-02
-1.109434e-03 1.509968e-04 -2.679352e-02
-7.783020e-03 7.139440e-03 1.505676e-02
-9.685493e-03 4.694021e-03 1.470745e-02
-1.083774e-03 1.042368e-02 1.487692e-02
-4.831728e-03 9.072746e-03 1.511955e-02
-1.174284e-06 5.135374e-04 -2.693952e-02
-6.714056e-04 -9.172679e-04 -2.700287e-02
-4.134724e-04 -3.366460e-04 1.754141e-02
4.462840e-03 -9.828309e-03 1.456570e-02
-4.168096e-03 -2.143116e-02 -7.334772e-03
1.055806e-02 -5.360660e-03 1.417460e-02
2.019525e-02 8.159207e-03 -3.060652e-03
2.019527e-02 -8.157866e-03 -3.062427e-03
-9.364038e-03 6.822233e-03 1.445355e-02
-9.368594e-03 -6.824311e-03 1.447021e-02
-1.923309e-02 -1.039956e-02 -3.407624e-03
1.991009e-02 9.651938e-03 -6.618875e-03
1.208589e-02 -2.121319e-03 1.371256e-02
1.615737e-04 -7.713869e-05 1.767722e-02
-9.143502e-03 4.484823e-03 -2.428608e-02
-9.111873e-03 -4.472239e-03 -2.429267e-02
-2.172122e-02 7.601239e-05 -1.650112e-03
-2.181542e-02 3.759997e-03 -3.905394e-03
4.100442e-03 -5.969491e-03 -2.552478e-02
-4.775078e-03 -2.103392e-02 -2.333341e-04
1.520238e-03 -1.133478e-02 1.431620e-02
-5.712097e-03 2.121357e-02 -5.735721e-03
-2.937245e-03 -1.054658e-02 -2.367491e-02
-9.255498e-03 -6.308604e-03 1.456862e-02
1.517977e-06 4.358974e-05 1.772366e-02
7.431785e-04 -1.214450e-02 1.389645e-02
2.075707e-02 -5.739266e-03 -2.282746e-04
2.077617e-02 5.758348e-03 -2.241460e-04
-4.512971e-03 -1.355662e-02 -2.131797e-02
-8.437406e-03 9.022538e-03 1.396573e-02
-3.736619e-03 2.208413e-02 -1.911843e-03
5.328995e-03 -4.814811e-03 -2.559411e-02
1.977289e-03 -3.417180e-03 -2.675482e-02
-1.137413e-02 4.656241e-03 1.392177e-02
-4.982988e-03 1.123699e-02 1.381679e-02
-1.041255e-04 -8.983017e-05 1.752815e-02
4.603427e-03 1.226041e-02 1.363981e-02
1.299628e-02 -2.201800e-04 -2.266872e-02
-8.506693e-03 1.646101e-02 -1.604681e-02
-8.456815e-03 -6.788374e-03 1.510009e-02
-1.779400e-02 -1.304705e-03 8.353362e-03
-1.975689e-02 9.687664e-03 -1.377632e-03
1.122167e-02 -1.911568e-02 -3.643096e-03
-1.321251e-02 1.244310e-02 -1.656960e-02
-3.491075e-04 1.576143e-03 -2.676366e-02
4.770576e-04 -1.080357e-02 1.468505e-02
-4.739140e-05 1.609254e-04 1.757227e-02
5.593692e-03 -2.935364e-03 -2.610967e-02
5.594012e-03 2.938505e-03 -2.610892e-02
-6.266201e-03 -1.832560e-02 -1.495932e-02
-1.720714e-02 -1.398198e-03 -1.907233e-02
-1.665389e-02 1.571104e-03 -1.914156e-02
-1.868565e-04 1.485324e-05 -2.678103e-02
-5.058478e-04 -1.008541e-02 1.492873e-02
9.629307e-03 -2.606010e-03 1.502014e-02
-3.268842e-04 3.865233e-04 -2.701329e-02
-1.100951e-02 -3.566290e-03 1.415685e-02
1.569268e-04 5.157722e-05 1.772992e-02
-7.587968e-05 -6.242783e-05 1.776550e-02
7.921969e-03 1.661954e-02 -1.810371e-02
1.631602e-02 1.483206e-02 -7.504085e-03
-9.285909e-04 1.004871e-02 1.503483e-02
8.967331e-03 5.581336e-03 1.480030e-02
8.967210e-03 -5.580029e-03 1.479821e-02
-1.792155e-02 1.321720e-04 -1.807929e-02
1.748989e-02 1.301241e-02 -2.393819e-04
-1.749849e-03 -2.102252e-02 1.882866e-03
1.618440e-03 -1.159256e-03 -2.652534e-02
-1.418197e-04 -2.184517e-03 -2.627434e-02
1.823221e-04 -1.941522e-04 1.761027e-02
-5.338438e-03 -1.247857e-02 -2.226943e-02
1.275875e-02 1.473024e-02 -1.604693e-02
7.975175e-03 -8.104330e-03 1.508377e-02
2.013312e-02 -6.569098e-03 2.083962e-03
2.916125e-04 2.799961e-05 -2.696537e-02
-5.753182e-06 2.890127e-05 -2.726285e-02
4.537130e-03 -9.803082e-03 1.493217e-02
-7.348115e-03 7.404406e-03 1.490006e-02
-7.678627e-03 -7.019605e-03 1.505984e-02
-2.065137e-02 -2.034641e-03 3.302629e-03
-6.719042e-04 2.461752e-04 1.744762e-02
-2.052582e-02 2.324221e-03 3.474784e-03
-1.739165e-02 4.511649e-03 8.656393e-03
-1.252511e-03 -1.071891e-02 1.451347e-02
-6.781223e-03 1.443197e-03 -2.581645e-02
8.349176e-05 -1.482642e-03 -2.664232e-02
2.427381e-04 -1.655375e-03 -2.685718e-02
1.191568e-02 -1.795320e-02 -1.354649e-04
-1.144141e-03 2.227230e-02 -1.839298e-03
-1.784165e-02 -1.250671e-02 -3.570979e-03
-1.784066e-02 1.251194e-02 -3.567645e-03
1.833032e-04 -2.074467e-04 1.757570e-02
-3.384780e-03 -1.020525e-02 -2.432009e-02
-5.356721e-03 9.388200e-03 1.481135e-02
3.634531e-03 2.199185e-02 -2.420189e-03
-8.457889e-03 -1.937423e-02 2.342076e-03
1.805993e-02 1.664747e-03 -1.688063e-02
9.533234e-03 5.204855e-03 1.482971e-02
-1.339709e-02 1.642398e-02 4.943365e-04
-3.006089e-04 7.407826e-03 -2.569096e-02
-4.059270e-03 1.040134e-02 1.467668e-02
-2.018759e-02 7.713259e-03 2.653208e-05
-5.126328e-04 -2.020719e-04 1.791763e-02
3.249071e-03 -1.046644e-02 1.503782e-02
-1.005585e-02 1.458746e-02 9.034651e-03
-8.133378e-03 2.010195e-02 6.693747e-04
4.645879e-05 1.072433e-02 1.507349e-02
-1.429145e-02 1.083203e-02 8.397459e-03
-4.311229e-03 -1.013864e-02 1.492833e-02
-4.458950e-03 9.710564e-03 1.474107e-02
-4.505623e-03 9.819052e-03 1.464405e-02
1.267710e-03 1.769147e-02 8.717010e-03
-2.607546e-03 -9.765573e-03 1.523517e-02
1.831419e-05 -6.835974e-04 1.749281e-02
-4.526609e-03 1.730568e-02 8.417443e-03
7.836956e-03 -9.357697e-03 -2.294334e-02
8.895126e-03 8.989306e-03 -2.301288e-02
-3.860818e-03 -1.022984e-02 1.484902e-02
-3.420829e-03 1.036266e-02 1.506974e-02
7.134234e-04 -1.753372e-02 -1.796952e-02
1.610484e-02 1.416028e-02 -1.184105e-02
1.262770e-03 4.716054e-03 -2.614879e-02
6.640740e-03 -8.744292e-03 1.448183e-02
6.407992e-03 8.567466e-03 1.464766e-02
1.067317e-04 1.618749e-05 1.764090e-02
4.653074e-03 1.003511e-02 1.455002e-02
-1.772033e-02 2.971828e-03 -1.698197e-02
-1.365324e-02 -5.057565e-03 -2.148674e-02
1.071833e-02 2.923565e-03 1.525101e-02
2.028994e-02 -8.319064e-04 1.284782e-03
2.158846e-02 1.261658e-03 1.197379e-03
7.816214e-03 -7.156887e-03 1.486436e-02
5.104960e-03 -8.894332e-03 1.504675e-02
-2.888697e-03 -9.493056e-03 1.543741e-02
-1.347588e-02 1.628200e-02 2.409267e-03
-6.527303e-04 -8.507402e-05 1.807896e-02
-9.291755e-03 -1.868878e-02 -1.168573e-02
8.390554e-03 5.971307e-03 1.528341e-02
-3.736461e-03 -4.017258e-03 -2.580425e-02
-4.505259e-03 -1.046418e-02 1.489028e-02
1.020880e-02 -4.279352e-04 1.491443e-02
-3.583023e-03 -5.811471e-03 -2.559180e-02
5.543577e-03 2.405887e-03 -2.590123e-02
5.544780e-03 -2.403607e-03 -2.590324e-02
-1.268240e-02 1.499407e-02 3.070079e-03
7.298515e-03 6.929738e-03 1.510375e-02
5.649572e-04 -9.216196e-04 1.736382e-02
6.507130e-03 -7.324192e-03 1.491991e-02
2.108118e-03 -1.046933e-02 1.505189e-02
-1.947775e-02 6.698738e-03 3.597391e-03
-9.631659e-03 -4.570539e-03 1.490249e-02
8.260216e-03 7.992590e-03 1.463126e-02
-4.272669e-03 2.105094e-02 7.172147e-05
-3.863287e-03 1.696976e-02 -1.775306e-02
-6.777162e-04 1.805529e-02 -1.745033e-02
-1.633997e-02 1.541007e-02 -1.432212e-03
-1.591323e-02 -1.504198e-02 -1.502457e-03
-6.288957e-04 2.580849e-04 1.722884e-02
-1.521804e-02 -1.385826e-02 -1.122962e-02
-7.249990e-03 1.958325e-02 2.695596e-03
1.035000e-02 -4.514808e-03 1.449062e-02
1.144873e-02 -3.257763e-03 -2.349137e-02
6.409313e-03 8.071897e-03 1.479616e-02
2.303274e-03 -1.082962e-02 1.497450e-02
2.077377e-03 6.627685e-04 -2.651719e-02
2.016727e-02 -2.309733e-03 3.841195e-03
-9.444969e-04 3.570714e-03 -2.627166e-02
-1.624835e-02 1.377450e-02 8.390987e-04
4.222678e-04 -3.384757e-04 1.747441e-02
2.280940e-04 -3.508005e-04 1.766171e-02
-1.631412e-02 -1.379832e-02 7.915148e-04
-6.927141e-04 -1.170297e-02 -2.354001e-02
-8.928607e-03 -5.328326e-03 1.496283e-02
-1.021222e-02 -5.088178e-03 1.468986e-02
-1.021617e-02 5.084669e-03 1.468877e-02
-1.646407e-02 -8.273433e-04 -1.935590e-02
1.893889e-02 -5.656065e-03 -1.386897e-02
1.893621e-02 5.658156e-03 -1.386843e-02
5.211368e-03 -9.906932e-03 1.460480e-02
-2.000189e-02 -6.499397e-03 2.045830e-03
1.597121e-04 4.650258e-04 1.748387e-02
-9.412677e-03 -6.741326e-03 1.461412e-02
3.468554e-04 -1.120866e-02 1.455424e-02
5.259818e-03 9.678684e-03 1.473036e-02
1.151966e-02 1.982331e-03 1.441126e-02
1.150048e-02 -2.010468e-03 1.440556e-02
8.156684e-03 -1.760195e-02 -1.570715e-02
7.549259e-04 1.631689e-03 -2.646319e-02
-1.859240e-02 -1.197462e-02 -3.378907e-03
-1.859713e-03 -1.679157e-02 -1.863744e-02
1.305791e-02 -1.575345e-02 3.502136e-03
1.372022e-05 1.930419e-04 1.774891e-02
1.268568e-02 1.676545e-02 2.977155e-03
1.888226e-02 1.110368e-02 -1.689773e-03
-1.837422e-02 -4.877088e-04 -1.748401e-02
-1.917746e-02 1.587569e-03 -1.581846e-02
-3.188611e-03 7.086202e-03 -2.563746e-02
2.087486e-02 -8.893066e-04 1.894613e-03
9.401712e-03 -5.245164e-03 1.338352e-02
1.225232e-02 1.761515e-02 6.950180e-04
2.076780e-03 -2.072566e-02 2.580552e-03
9.332833e-03 -2.875929e-03 1.523598e-02
-3.734575e-04 1.384159e-04 1.747473e-02
9.340070e-03 2.880157e-03 1.523423e-02
8.592767e-04 3.519075e-03 -2.712840e-02
-1.473073e-03 2.099806e-03 -2.621793e-02
6.443232e-03 -6.699140e-03 1.565492e-02
7.026216e-03 7.067005e-03 1.510974e-02
-1.761115e-02 1.191615e-02 1.882213e-03
1.716070e-02 -1.326051e-02 2.678020e-04
2.044292e-02 6.681907e-03 -7.911381e-03
-9.023646e-03 1.999738e-02 -3.343468e-03
7.079083e-03 1.508541e-02 -1.911318e-02
4.881734e-05 -8.394186e-05 1.765982e-02
-1.861587e-02 -1.081642e-02 3.826722e-04
-1.861418e-02 1.081457e-02 3.794087e-04
-2.076906e-02 -4.208642e-03 1.440392e-03
2.876335e-03 -1.871833e-02 -1.579057e-02
-1.831597e-03 1.794428e-03 -2.651609e-02
-9.470792e-03 1.990929e-02 -3.274318e-03
4.314807e-03 -9.349285e-03 1.567985e-02
-5.888403e-03 -2.132540e-02 -3.248679e-03
1.183096e-02 -1.840821e-02 5.207084e-04
9.720029e-03 -3.373752e-03 1.494504e-02
3.110413e-04 1.665010e-04 1.786005e-02
-6.493973e-03 -2.092603e-02 -2.851769e-03
-1.981666e-02 7.743392e-03 1.516144e-03
-1.981733e-02 -7.745326e-03 1.516672e-03
-2.171876e-02 -3.261505e-03 -9.020531e-03
-2.124816e-02 3.784577e-03 -9.192867e-03
7.596635e-03 -7.531178e-03 1.521635e-02
2.054119e-02 -3.682897e-03 -1.106762e-02
-1.985693e-02 9.710345e-03 -2.995318e-03
-1.985675e-02 -9.711487e-03 -2.988210e-03
-1.503134e-03 -2.756316e-06 -2.685303e-02
-1.841314e-04 2.537829e-04 1.767097e-02
8.359663e-03 -5.040875e-04 -2.560869e-02
8.095894e-03 -2.548482e-04 -2.513964e-02
2.838153e-03 2.390350e-03 -2.621543e-02
2.850871e-03 -2.379863e-03 -2.622607e-02
3.982959e-03 2.940455e-03 -2.568227e-02
-1.611821e-03 -1.060377e-02 1.462777e-02
2.185284e-03 1.965946e-03 -2.644694e-02
2.116674e-03 -1.883192e-03 -2.649122e-02
-4.318988e-03 -8.750226e-03 -2.456541e-02
-2.538817e-03 1.203057e-03 -2.656286e-02
1.892563e-04 1.861240e-04 1.765244e-02
-4.042383e-03 -8.910395e-03 1.525068e-02
1.504598e-03 -1.981932e-02 5.708915e-03
-1.505731e-02 -6.853538e-03 -1.882799e-02
2.087928e-02 5.889826e-03 -7.827683e-04
2.086035e-02 -5.887520e-03 -7.840559e-04
-7.082342e-03 6.408177e-03 1.536847e-02
-7.050898e-03 -6.487880e-03 1.536593e-02
1.276902e-03 2.998852e-03 -2.636633e-02
3.680893e-03 -9.426641e-03 1.502586e-02
-3.326093e-03 3.238123e-03 -2.606474e-02
-3.870711e-04 -5.289591e-04 1.777836e-02
2.057069e-03 1.414900e-02 -2.141127e-02
2.035049e-02 3.572387e-03 3.415298e-03
2.024287e-02 -3.710572e-03 3.470892e-03
6.357640e-03 -7.075719e-03 1.528172e-02
6.264141e-03 7.450529e-03 1.536240e-02
2.011043e-02 2.140874e-03 -1.270790e-02
2.041482e-02 -1.158228e-03 -1.234795e-02
1.852550e-02 -8.897258e-03 3.808401e-03
-5.239194e-03 -8.353689e-03 1.532254e-02
-1.134494e-02 1.888364e-02 -2.683363e-03
-1.173813e-05 -1.618647e-04 1.837613e-02
-1.341670e-02 4.745604e-03 -2.187889e-02
3.464769e-04 -2.106387e-02 -1.059764e-02
8.024339e-03 1.854044e-02 4.091290e-03
-2.784545e-03 1.741144e-02 -1.787109e-02
-2.137028e-03 1.317766e-03 -2.651695e-02
-3.741117e-04 -1.253897e-04 -2.712493e-02
2.355285e-04 -4.146270e-04 -2.659117e-02
-9.531527e-03 2.582703e-03 1.535733e-02
-9.506812e-03 -2.582947e-03 1.535925e-02
1.144978e-04 -8.706950e-04 -2.665435e-02
7.304595e-05 5.424207e-04 1.754333e-02
8.694143e-05 5.213180e-05 1.785875e-02
-5.049526e-03 -8.445105e-03 1.533413e-02
1.132996e-02 1.904706e-02 -1.861480e-04
1.457429e-02 -1.542623e-02 3.371707e-03
1.414329e-02 1.479720e-02 3.024024e-03
-9.338138e-03 1.941278e-04 1.584424e-02
-1.098792e-02 -1.302524e-03 1.466942e-02
-1.125696e-02 1.429858e-03 1.455828e-02
3.748173e-03 1.703829e-02 -1.437247e-02
-1.041110e-02 5.383238e-04 1.478112e-02
8.084898e-04 9.894965e-05 -2.675101e-02
-2.417181e-05 -5.014519e-04 1.774464e-02
-1.760301e-02 1.284445e-02 -2.330201e-03
-1.760704e-02 -1.283651e-02 -2.330320e-03
-9.526093e-04 -2.132064e-02 7.228270e-04
2.186224e-02 3.041333e-03 -2.388366e-03
7.590715e-03 -5.411551e-03 1.541482e-02
1.915113e-02 -7.496822e-03 3.869877e-03
1.937651e-02 8.935589e-03 -1.217800e-02
2.117787e-02 2.852583e-03 -2.899655e-03
1.396711e-02 -1.022663e-02 -1.841362e-02
-1.181581e-02 1.837373e-02 -2.132478e-03
9.249329e-05 2.707827e-04 1.771789e-02
1.028583e-02 1.661261e-02 6.009771e-03
-2.230836e-03 4.915015e-03 -2.617843e-02
9.929525e-03 1.826717e-02 3.102282e-03
1.105265e-03 -3.967087e-03 -2.630796e-02
-6.941242e-03 -6.228149e-03 1.499560e-02
-5.565174e-03 -7.312440e-03 1.558142e-02
-7.034451e-03 5.740606e-03 1.587852e-02
-1.657707e-03 9.585868e-03 1.534063e-02
-5.271442e-03 8.013184e-03 1.556119e-02
-6.433182e-03 1.985032e-02 3.186398e-03
6.382768e-05 -1.893492e-04 1.775490e-02
-9.220141e-03 1.917739e-03 1.586053e-02
-7.553835e-03 1.909301e-02 3.286565e-03
1.384741e-02 1.274740e-02 6.920664e-03
1.407101e-02 -1.295588e-02 6.902981e-03
2.281061e-03 2.127749e-02 1.752248e-03
-2.575278e-03 -1.054454e-02 1.361043e-02
-7.872052e-04 -5.960408e-03 -2.599001e-02
1.904828e-03 -5.232117e-03 -2.603737e-02
-8.468440e-03 -1.871034e-02 2.877376e-03
1.028473e-02 -1.938198e-02 -2.725719e-03
-7.296947e-05 -1.004261e-04 1.779783e-02
-1.167761e-02 -1.710402e-02 2.750129e-03
1.035764e-02 1.525538e-02 -1.634216e-02
1.452250e-02 -6.822958e-04 -2.112394e-02
-3.390557e-03 1.238536e-03 -2.653011e-02
1.365257e-02 -2.738312e-03 -2.193428e-02
1.362377e-02 2.785513e-03 -2.191258e-02
-1.409827e-02 -1.191343e-02 7.098993e-03
3.023776e-04 3.292993e-03 -2.654692e-02
1.011560e-02 1.958599e-02 -2.021570e-03
3.607117e-03 -4.584849e-03 -2.616726e-02
2.155464e-04 -4.756920e-05 1.755653e-02
-1.243535e-03 2.179550e-02 -5.440725e-04
1.000790e-03 7.549114e-03 -2.551318e-02
1.212488e-02 1.770035e-02 -1.050415e-02
-7.270397e-03 -1.970382e-02 3.077265e-03
1.183094e-02 -1.391762e-02 -1.706053e-02
-8.848884e-03 -4.542941e-03 1.515224e-02
4.108687e-03 -1.432542e-02 -2.065921e-02
4.540207e-03 2.169237e-02 -3.578587e-04
3.689212e-03 -1.686869e-02 -1.914344e-02
4.347842e-03 -1.991380e-02 3.783820e-03
2.486285e-05 -3.856070e-04 1.757810e-02
8.306956e-03 -1.491802e-02 -1.752352e-02
4.358065e-03 1.580040e-02 -1.941889e-02
-6.570437e-03 1.082953e-02 -2.254160e-02
-2.199180e-02 1.150711e-03 -1.637613e-04
-4.784258e-05 -1.419080e-02 -2.154612e-02
-7.276644e-04 -2.091716e-02 -1.159646e-02
2.060111e-04 7.099484e-06 -2.693387e-02
-7.358724e-03 1.560156e-02 -1.841029e-02
2.969261e-04 -2.174558e-02 -2.958977e-03
-9.083704e-03 5.135616e-03 1.512342e-02
4.400702e-05 -3.236173e-04 1.774412e-02
-9.078766e-03 -5.140898e-03 1.512902e-02
-1.200637e-02 -9.065726e-03 -2.039118e-02
1.557126e-03 9.994215e-03 1.519483e-02
-2.981756e-04 -2.135902e-02 1.022244e-03
8.066109e-03 1.767223e-03 -2.516339e-02
1.205681e-02 -3.142309e-03 -2.300461e-02
1.202443e-02 3.134479e-03 -2.301204e-02
-2.814543e-03 -2.050353e-02 3.953178e-03
-3.719023e-03 -2.077394e-02 2.674981e-03
1.256723e-03 -3.317473e-03 -2.648802e-02
-1.074916e-04 -4.920403e-04 1.776205e-02
1.765979e-02 -1.243118e-02 1.249157e-04
1.765949e-02 1.242529e-02 1.221806e-04
1.907039e-03 -1.771592e-02 -1.766514e-02
-9.317660e-03 -2.890831e-03 -2.408968e-02
-9.334502e-03 2.891172e-03 -2.408749e-02
6.830500e-03 2.638010e-03 -2.544320e-02
1.377700e-02 -1.653842e-02 -8.995504e-03
-1.323719e-02 1.086248e-02 -1.838410e-02
-1.356088e-03 -9.697458e-03 1.529283e-02
-6.673499e-03 6.511098e-03 1.509397e-02
-5.327971e-04 -4.863857e-04 1.753949e-02
-6.232173e-03 -6.964140e-03 1.540934e-02
-3.921832e-03 -5.111479e-03 -2.529594e-02
2.616046e-03 8.607450e-03 1.560290e-02
5.223332e-03 -6.987102e-03 1.618901e-02
-8.134686e-04 -1.031190e-02 1.489220e-02
-9.568934e-03 1.458042e-02 -1.793958e-02
1.905085e-02 -1.102847e-02 -9.469885e-03
1.704576e-02 1.174228e-02 -1.266957e-02
-1.703710e-02 -1.216508e-02 2.567177e-03
2.676911e-03 -3.337657e-03 -2.672695e-02
-7.320541e-05 1.297735e-04 1.763443e-02
1.739220e-04 -5.126908e-04 1.749781e-02
9.966236e-03 -1.961006e-03 1.510679e-02
9.802732e-03 1.320465e-03 1.551181e-02
1.770596e-02 -2.947989e-03 -1.709258e-02
1.755471e-02 2.501361e-03 -1.763078e-02
-1.559489e-03 -1.333646e-02 -2.203845e-02
9.632819e-03 1.794610e-02 -1.276702e-02
-4.614686e-03 -8.137609e-03 1.544648e-02
-6.146987e-03 -2.047722e-02 3.931928e-04
-2.096694e-02 -4.532570e-03 -6.647560e-04
-7.956800e-03 4.636057e-03 1.586622e-02
4.248277e-04 -2.855923e-04 1.758373e-02
-4.399004e-04 9.514851e-03 1.570317e-02
1.300069e-02 1.503210e-02 3.852994e-03
4.002718e-03 -2.060413e-02 2.167360e-03
7.962533e-03 -2.046942e-02 -7.851910e-03
-1.318530e-02 1.732233e-02 -9.230571e-03
3.388736e-03 2.140652e-02 6.950712e-04
9.216708e-03 -3.248370e-03 1.547126e-02
9.218448e-03 3.249334e-03 1.547494e-02
-5.343408e-03 1.905686e-02 5.149496e-03
1.054770e-03 -2.851405e-04 -2.692220e-02
-1.317551e-04 -3.505984e-04 1.773176e-02
1.469753e-02 1.433420e-02 4.056795e-03
8.293935e-03 -1.068448e-02 -2.240833e-02
8.096719e-03 1.045055e-02 -2.265167e-02
-3.282452e-03 -1.733439e-02 -1.827361e-02
9.129269e-04 -1.054194e-03 -2.647526e-02
8.912474e-03 4.299457e-03 1.551392e-02
8.913072e-03 -4.299652e-03 1.551293e-02
-7.741412e-03 4.492500e-03 1.670939e-02
1.337950e-02 -1.226691e-02 -1.691157e-02
5.140941e-03 1.852212e-02 -1.539233e-02
2.111035e-04 -3.011585e-04 1.767955e-02
9.926544e-04 8.897136e-03 1.589282e-02
-4.891652e-03 2.101787e-02 -9.941251e-03
1.107630e-03 8.776200e-03 1.584319e-02
-5.812406e-03 1.086176e-03 -2.561536e-02
-5.825130e-03 -1.093074e-03 -2.561132e-02
-7.041428e-03 -1.453089e-02 -1.954183e-02
3.379584e-03 8.646107e-03 1.580094e-02
-8.444312e-03 3.240528e-03 1.574107e-02
-8.438762e-03 -3.236284e-03 1.574202e-02
1.297085e-02 5.405562e-03 -2.145051e-02
1.684341e-04 8.993451e-05 1.772622e-02
-9.024206e-03 -2.964273e-03 1.559126e-02