# vtk DataFile Version 2.0
Electric current density generated by TTH
ASCII
DATASET UNSTRUCTURED_GRID
POINTS 14568 double
3.828476e-05 1.824526e-05 -9.427934e-23
3.224493e-05 -2.754772e-05 -9.427934e-23
-3.784518e-06 -4.199165e-05 3.598259e-07
5.374017e-07 -4.215842e-05 3.598259e-07
2.380683e-05 3.479735e-05 3.598259e-07
2.380683e-05 -3.479735e-05 -3.598259e-07
-6.785927e-06 -4.181449e-05 -1.870613e-07
4.853641e-06 -4.188155e-05 3.598207e-07
3.877914e-05 1.654693e-05 3.598205e-07
3.877914e-05 -1.654693e-05 -3.598205e-07
2.724651e-05 3.217530e-05 3.598202e-07
2.724651e-05 -3.217530e-05 -3.598202e-07
3.240147e-05 -2.736343e-05 -9.427934e-23
-2.108814e-05 -3.641972e-05 -3.803172e-07
4.034008e-05 -1.123525e-05 -3.546286e-07
4.003071e-05 -1.388577e-05 1.696418e-07
4.003071e-05 1.388577e-05 -1.696418e-07
7.425747e-06 -4.117093e-05 -3.348273e-07
4.232261e-05 1.834608e-06 -1.855903e-07
4.232144e-05 -1.829747e-06 1.880763e-07
1.400110e-05 -3.974234e-05 3.684600e-07
3.509954e-05 2.326172e-05 3.758929e-07
4.158563e-05 -3.497124e-06 -2.499704e-07
3.255696e-05 -2.717824e-05 -9.427934e-23
4.013475e-05 1.267238e-05 3.797785e-07
-4.896614e-06 -4.188180e-05 3.577943e-07
4.161235e-05 -5.004541e-06 3.679892e-07
3.551215e-05 -2.273724e-05 -3.576388e-07
-3.778242e-05 -1.784910e-05 3.019393e-07
-4.033226e-05 1.092759e-05 3.019584e-07
-3.262023e-05 2.611559e-05 3.019584e-07
-4.155177e-05 4.421722e-06 3.019393e-07
-3.881026e-05 1.548764e-05 3.019584e-07
3.279662e-05 2.680908e-05 -1.903107e-07
3.271139e-05 -2.699217e-05 -9.427934e-23
4.200214e-05 1.317382e-06 -3.849175e-07
4.200214e-05 -1.317382e-06 3.849175e-07
3.268846e-05 2.595804e-05 -2.602737e-07
-7.396260e-06 -4.099265e-05 1.041344e-07
1.664337e-05 -3.817038e-05 2.607420e-08
1.664337e-05 3.817038e-05 -2.607420e-08
-4.105121e-05 1.045835e-05 1.853815e-07
6.674179e-06 4.183340e-05 1.853941e-07
-3.910325e-05 1.629463e-05 1.853815e-07
-3.346671e-05 2.597226e-05 1.853815e-07
3.286476e-05 -2.680523e-05 -9.427934e-23
-3.046241e-05 -2.943840e-05 1.853941e-07
-1.312563e-05 -4.027774e-05 1.853941e-07
9.326475e-06 -4.066305e-05 2.332287e-07
-1.043732e-05 4.050764e-05 3.322040e-07
-7.326715e-06 -4.157603e-05 -3.338857e-07
3.580835e-05 2.202208e-05 -3.847025e-07
3.471417e-05 -2.391156e-05 -3.632267e-07
3.070015e-05 -2.837483e-05 -3.155418e-07
3.070015e-05 2.837483e-05 3.155418e-07
4.118888e-05 6.923094e-06 -2.852305e-07
3.301705e-05 -2.661741e-05 -9.427934e-23
2.088105e-05 3.612223e-05 -2.388820e-07
2.088105e-05 -3.612223e-05 2.388820e-07
4.019382e-05 -1.341540e-05 1.636521e-07
4.019382e-05 1.341540e-05 -1.636521e-07
2.837260e-05 -3.125883e-05 -3.347512e-07
2.837271e-05 3.125861e-05 3.348021e-07
2.140713e-05 -3.579012e-05 2.117667e-07
2.140713e-05 3.579012e-05 -2.117667e-07
3.961012e-05 1.288597e-05 1.001106e-07
2.073372e-05 -3.647233e-05 3.782513e-07
3.316828e-05 -2.642873e-05 -9.427934e-23
2.073372e-05 3.647233e-05 -3.782513e-07
-2.521239e-05 3.404330e-05 -1.846858e-07
4.039380e-05 1.153428e-05 3.845572e-07
6.299084e-06 -4.174254e-05 3.347555e-07
3.920319e-05 1.439816e-05 -2.824292e-07
3.920319e-05 -1.439816e-05 2.824292e-07
2.858482e-05 3.123658e-05 -2.190283e-07
2.860286e-05 -3.121888e-05 2.202888e-07
6.487575e-06 -4.184179e-05 -2.188920e-07
3.717236e-05 1.877386e-05 -5.557866e-08
3.331843e-05 -2.623919e-05 -9.427934e-23
3.717236e-05 -1.877386e-05 5.557869e-08
4.049750e-05 1.241846e-05 -1.919600e-07
1.594507e-05 3.858957e-05 -2.732814e-07
1.596922e-05 -3.859950e-05 2.903819e-07
3.633549e-05 2.139535e-05 3.579542e-07
2.861794e-05 -3.103835e-05 -3.330724e-07
2.861794e-05 3.103835e-05 3.330724e-07
1.596653e-05 3.903079e-05 3.565054e-07
6.625213e-06 -4.169498e-05 3.330784e-07
2.198374e-05 -3.560609e-05 -3.406500e-07
3.346749e-05 -2.604879e-05 -9.427934e-23
2.198374e-05 3.560609e-05 3.406500e-07
3.440139e-05 2.346188e-05 9.172112e-09
9.542935e-06 -4.106389e-05 -3.612022e-07
-4.376590e-08 -4.236444e-05 -1.817157e-07
4.296662e-06 -4.214601e-05 -1.817155e-07
2.692938e-05 3.270406e-05 -1.817155e-07
2.691969e-05 -3.271201e-05 1.817491e-07
1.383005e-05 -4.003584e-05 -1.945323e-07
2.343721e-05 3.529089e-05 -1.816735e-07
2.342674e-05 -3.529781e-05 1.817086e-07
3.361546e-05 -2.585755e-05 -9.427934e-23
2.504125e-05 3.398971e-05 3.330823e-07
2.504125e-05 -3.398971e-05 -3.330823e-07
2.012504e-06 -4.217006e-05 3.330823e-07
2.528716e-05 3.380716e-05 3.330822e-07
2.528716e-05 -3.380716e-05 -3.330822e-07
2.318370e-06 -4.215436e-05 3.330822e-07
-2.318370e-06 -4.215436e-05 3.330822e-07
-2.012504e-06 -4.217006e-05 3.330822e-07
-4.172845e-06 -4.201133e-05 3.330822e-07
-4.477502e-06 -4.197995e-05 3.330822e-07
3.818011e-05 1.846325e-05 -9.427934e-23
3.376235e-05 -2.566547e-05 -9.427934e-23
1.531342e-07 -4.221778e-05 3.330822e-07
2.351984e-05 -3.505969e-05 -3.330822e-07
2.351984e-05 3.505969e-05 3.330822e-07
-1.531342e-07 -4.221778e-05 3.330822e-07
2.326488e-05 -3.522939e-05 -3.330822e-07
2.326488e-05 3.522939e-05 3.330822e-07
4.477497e-06 -4.197995e-05 3.330819e-07
3.898030e-05 1.621421e-05 3.330819e-07
3.898030e-05 -1.621421e-05 -3.330819e-07
2.698791e-05 -3.246563e-05 -3.330819e-07
3.390813e-05 -2.547255e-05 -9.427934e-23
2.698791e-05 3.246563e-05 3.330819e-07
4.172845e-06 -4.201134e-05 3.330774e-07
3.909691e-05 -1.593101e-05 -3.330772e-07
3.909691e-05 1.593101e-05 3.330772e-07
2.675169e-05 -3.266056e-05 -3.330769e-07
2.675169e-05 3.266056e-05 3.330769e-07
4.173266e-05 -7.279902e-06 -1.846689e-07
3.195574e-06 4.154929e-05 1.531907e-07
4.073529e-05 -1.075269e-05 3.702037e-07
4.194307e-05 -5.971550e-06 -1.787421e-07
3.405281e-05 -2.527881e-05 -9.427934e-23
3.308031e-05 -2.612252e-05 -3.638196e-07
3.915990e-05 -1.610311e-05 2.191646e-07
3.915118e-05 1.612651e-05 -2.179454e-07
1.274873e-05 -3.979523e-05 -3.027749e-07
3.518491e-05 2.306638e-05 3.820847e-07
4.222360e-05 -3.442155e-06 1.831698e-07
3.823616e-05 1.789145e-05 3.348213e-07
3.823616e-05 -1.789145e-05 -3.348213e-07
-4.694124e-06 -4.209384e-05 -1.987492e-07
-1.847157e-06 -4.231662e-05 -1.951443e-07
3.419639e-05 -2.508424e-05 -9.427934e-23
2.497862e-06 -4.228320e-05 -1.951443e-07
2.550798e-05 3.381496e-05 -1.951443e-07
2.553214e-05 -3.378759e-05 2.070295e-07
4.122969e-05 -6.078141e-06 -1.605985e-07
3.576072e-05 -2.217118e-05 -3.815463e-07
8.605892e-06 -4.077924e-05 -1.651455e-07
4.141585e-05 -8.928736e-06 -1.761441e-07
3.217061e-05 -2.661919e-05 -2.748036e-07
3.132869e-05 2.852104e-05 1.774880e-07
3.133852e-05 -2.852076e-05 -1.631372e-07
3.433886e-05 -2.488886e-05 -9.427934e-23
4.162653e-05 3.206411e-06 -2.690412e-07
-6.417193e-06 -4.114313e-05 -1.691429e-08
-4.006715e-05 -1.194261e-05 3.186030e-07
-2.100221e-05 3.615121e-05 3.186030e-07
-4.107984e-05 -7.774929e-06 3.186030e-07
-3.197207e-05 -2.694048e-05 3.186030e-07
3.737961e-05 1.841347e-05 -1.456621e-07
3.737961e-05 -1.841347e-05 1.456616e-07
3.022938e-05 -2.872504e-05 -2.070624e-07
3.022938e-05 2.872504e-05 2.070624e-07
3.448020e-05 -2.469267e-05 -9.427934e-23
4.119683e-05 -6.931205e-06 2.932925e-07
-2.145899e-05 -3.628624e-05 3.617735e-07
-3.873167e-05 -1.663977e-05 3.624360e-07
-8.278377e-06 4.133392e-05 3.624360e-07
-2.460999e-05 3.422758e-05 3.617735e-07
-4.173297e-05 5.948401e-06 3.624360e-07
-4.215247e-05 -4.402521e-07 3.624360e-07
-2.737976e-05 -3.199510e-05 3.752197e-07
-1.272863e-05 -4.014125e-05 3.752197e-07
-3.051356e-05 -2.902172e-05 3.752197e-07
3.462043e-05 -2.449568e-05 -9.427934e-23
-3.612712e-05 2.163721e-05 3.752197e-07
-1.958841e-05 3.727777e-05 3.752197e-07
-1.234900e-06 4.209291e-05 3.752197e-07
6.965343e-06 4.153097e-05 3.752197e-07
-1.256557e-05 4.019259e-05 3.752197e-07
-4.088899e-05 1.007116e-05 3.752197e-07
-3.874099e-05 1.650677e-05 3.752197e-07
-3.347249e-05 2.555250e-05 3.752197e-07
-3.332626e-05 -2.574293e-05 3.752197e-07
-4.083090e-05 -1.030413e-05 3.752197e-07
3.475953e-05 -2.429789e-05 -9.427934e-23
-4.167171e-05 -6.066819e-06 3.752197e-07
1.118350e-05 4.059885e-05 3.752197e-07
1.474024e-05 -3.943458e-05 -3.776871e-07
1.146343e-05 4.051613e-05 3.761993e-07
-4.089707e-05 -1.001983e-05 3.761993e-07
-1.244880e-05 -4.022430e-05 3.761993e-07
-3.862162e-05 1.677314e-05 3.761993e-07
-4.170840e-05 -5.777237e-06 3.761993e-07
-3.350038e-05 -2.550866e-05 3.761993e-07
-1.932755e-05 3.740873e-05 3.761993e-07
3.489750e-05 -2.409931e-05 -9.427934e-23
-3.364528e-05 2.531724e-05 3.761993e-07
-1.526463e-06 4.207894e-05 3.761993e-07
-4.095353e-05 9.786486e-06 3.761993e-07
-1.284250e-05 4.010034e-05 3.761993e-07
7.252276e-06 4.147736e-05 3.761993e-07
-3.597253e-05 2.188481e-05 3.761993e-07
-3.071077e-05 -2.880652e-05 3.761993e-07
-2.759798e-05 -3.180124e-05 3.761993e-07
3.488603e-05 2.361308e-05 3.714313e-07
-4.067705e-05 -1.078813e-05 -3.804996e-07
3.503434e-05 -2.389994e-05 -9.427934e-23
-4.156825e-05 -6.564038e-06 -3.804996e-07
-1.207255e-05 4.031451e-05 -3.804996e-07
-3.299203e-05 -2.612532e-05 -3.804996e-07
1.607622e-05 -3.848476e-05 -2.175483e-07
1.161684e-05 -4.074224e-05 -1.787264e-07
-3.438076e-05 2.388573e-05 3.494153e-07
-3.773937e-05 1.811917e-05 3.494153e-07
-3.101591e-06 4.174859e-05 3.494153e-07
-1.779311e-05 3.789419e-05 3.494153e-07
-1.085291e-05 -4.043240e-05 3.494153e-07
3.807422e-05 1.868064e-05 -9.427934e-23
3.517004e-05 -2.369980e-05 -9.427934e-23
-4.173958e-05 -3.220600e-06 3.494169e-07
3.502003e-05 -2.275138e-05 2.805355e-07
1.364998e-05 -3.991190e-05 3.517140e-07
-2.019567e-05 -3.699518e-05 3.645669e-07
-2.576990e-05 3.335471e-05 3.640968e-07
-1.928695e-05 -3.747695e-05 3.645669e-07
-1.761510e-05 -3.829269e-05 3.641094e-07
-2.656837e-05 3.272117e-05 3.643867e-07
-1.891645e-05 -3.766686e-05 3.640968e-07
-2.689728e-05 3.245240e-05 3.641094e-07
3.530459e-05 -2.349889e-05 -9.427934e-23
-1.799975e-05 -3.811249e-05 3.643867e-07
-2.543366e-05 3.361075e-05 3.643867e-07
-2.056324e-05 -3.679275e-05 3.643867e-07
2.287917e-05 3.565459e-05 -1.826259e-07
2.287389e-05 -3.566132e-05 1.773049e-07
3.403619e-05 2.435373e-05 3.436526e-07
1.293984e-05 4.033327e-05 1.930487e-07
-3.455827e-05 -2.451020e-05 1.754883e-07
8.739651e-06 4.144672e-05 1.930487e-07
[...]
POINT_DATA 14568
VECTORS 10.000GHz_fone_imag double
4.678807e+10 -1.038612e+11 1.340034e+08
-7.341034e+10 -8.614217e+10 7.354928e+07
-1.129707e+11 1.002148e+10 1.186504e+09
-1.137045e+11 -1.448382e+09 1.438074e+09
9.390523e+10 -6.422062e+10 -1.457742e+09
-9.516780e+10 -6.481466e+10 -1.235058e+09
-1.135667e+11 1.648387e+10 9.200867e+08
-1.136314e+11 -1.337258e+10 1.100656e+09
4.495514e+10 -1.063438e+11 1.204644e+09
-4.493882e+10 -1.063272e+11 1.218487e+09
8.710048e+10 -7.379345e+10 -1.358467e+09
-8.794961e+10 -7.436726e+10 -1.227402e+09
-7.241102e+10 -8.864537e+10 -1.801057e+09
-9.945335e+10 5.750492e+10 1.605373e+08
-3.357692e+10 -1.126908e+11 9.687865e+08
-3.538820e+10 -1.089902e+11 -8.045620e+06
3.531032e+10 -1.076724e+11 1.494165e+08
-1.162134e+11 -1.966466e+10 -2.310801e+09
5.297844e+09 -1.111917e+11 -2.359674e+09
-5.647735e+09 -1.103520e+11 -1.335951e+09
-1.094567e+11 -4.031271e+10 2.534983e+09
6.473063e+10 -9.572505e+10 1.483844e+09
-9.867761e+09 -1.171890e+11 -1.539197e+09
-7.421112e+10 -8.576429e+10 -4.872015e+08
3.428530e+10 -1.096663e+11 7.739004e+08
-1.162767e+11 1.371694e+10 -2.257280e+08
-1.145838e+10 -1.150473e+11 2.363446e+09
-6.273579e+10 -9.597969e+10 2.193452e+08
-4.897533e+10 1.032761e+11 2.573021e+08
3.203170e+10 1.123878e+11 -7.142576e+08
7.419409e+10 9.042113e+10 -6.262104e+08
1.110288e+10 1.168484e+11 6.489115e+08
4.205192e+10 1.091683e+11 6.243272e+08
7.418741e+10 -8.455436e+10 2.174058e+08
-6.984215e+10 -8.928458e+10 -1.916606e+08
2.398747e+09 -1.159977e+11 -3.523235e+08
-2.810960e+09 -1.147541e+11 -1.150010e+09
7.373871e+10 -9.224223e+10 9.275497e+07
-1.163766e+11 1.952209e+10 1.972180e+08
-1.082581e+11 -4.568471e+10 2.310176e+09
1.070194e+11 -4.527217e+10 1.269028e+09
2.666095e+10 1.105724e+11 9.869810e+08
1.114787e+11 -1.940163e+10 -2.857055e+08
4.455101e+10 1.043436e+11 -7.820633e+08
6.871935e+10 9.021522e+10 7.459304e+08
-7.261384e+10 -8.749946e+10 4.233662e+08
-7.779245e+10 8.248430e+10 -4.262894e+08
-1.081923e+11 3.365433e+10 3.896005e+08
-1.158815e+11 -2.851222e+10 1.074100e+09
1.143209e+11 2.973424e+10 -9.477852e+07
-1.143627e+11 1.892140e+10 -9.856209e+08
6.283090e+10 -9.847171e+10 1.384749e+09
-6.520074e+10 -9.513310e+10 -2.777585e+09
-7.934261e+10 -8.605670e+10 -9.121483e+07
7.841606e+10 -8.759535e+10 -1.288129e+09
1.788838e+10 -1.149312e+11 -2.795382e+09
-7.284304e+10 -8.764804e+10 -1.563657e+08
1.021275e+11 -5.963009e+10 1.083082e+09
-1.017097e+11 -5.868787e+10 4.165574e+08
-3.467157e+10 -1.088097e+11 4.749531e+08
3.430042e+10 -1.080987e+11 3.237670e+08
-8.549932e+10 -7.751739e+10 -1.698200e+09
8.569802e+10 -7.754858e+10 -1.495305e+09
-9.970654e+10 -5.905897e+10 -6.626076e+08
9.932235e+10 -5.953629e+10 -5.062746e+08
3.759769e+10 -1.118803e+11 1.175334e+08
-1.024149e+11 -5.841291e+10 -7.809946e+08
-7.195428e+10 -9.027568e+10 -7.973744e+08
1.023804e+11 -5.825319e+10 -8.451181e+08
8.775678e+10 6.805915e+10 -6.432202e+08
3.226345e+10 -1.120115e+11 -1.948455e+09
-1.138965e+11 -1.704756e+10 1.472640e+09
4.213912e+10 -1.099463e+11 1.572813e+09
-4.131059e+10 -1.105274e+11 2.626100e+09
8.412989e+10 -7.798180e+10 -1.383830e+09
-8.410259e+10 -7.807223e+10 -9.935744e+08
-1.136036e+11 -1.847960e+10 1.454986e+09
5.528908e+10 -1.053012e+11 1.953641e+09
-7.197344e+10 -9.175131e+10 1.412757e+09
-5.528061e+10 -1.051296e+11 1.992317e+09
3.492579e+10 -1.065090e+11 -9.875946e+08
1.099710e+11 -4.499316e+10 -1.999148e+09
-1.095541e+11 -4.555423e+10 -1.631706e+09
5.623438e+10 -9.854004e+10 1.781899e+09
-8.650476e+10 -7.681562e+10 1.424394e+07
8.653574e+10 -7.692350e+10 -2.166842e+08
1.057300e+11 -4.248755e+10 -1.497305e+09
-1.145675e+11 -1.603136e+10 2.367713e+08
-9.877394e+10 -6.159248e+10 -6.778239e+08
-7.005947e+10 -8.908048e+10 4.406543e+08
9.837036e+10 -6.110672e+10 -4.068230e+08
6.811411e+10 -9.727102e+10 -5.993495e+07
-1.122521e+11 -2.628196e+10 1.329686e+09
-1.145849e+11 -1.427694e+09 -1.550228e+09
-1.136083e+11 -1.317669e+10 -1.537613e+09
8.740706e+10 -7.394528e+10 1.619711e+09
-8.738526e+10 -7.364289e+10 9.836907e+08
-1.072964e+11 -3.613100e+10 -3.006011e+08
9.448483e+10 -6.465638e+10 1.434616e+09
-9.432863e+10 -6.417219e+10 1.119286e+09
-6.804983e+10 -9.027773e+10 6.495657e+08
9.175189e+10 -6.750612e+10 -1.916565e+09
-9.156536e+10 -6.788981e+10 -1.841988e+09
-1.137418e+11 -5.359199e+09 1.917614e+09
9.212753e+10 -6.701843e+10 2.180277e+09
-9.200430e+10 -6.725703e+10 1.742828e+09
-1.137834e+11 -4.749125e+09 -2.185473e+09
-1.136805e+11 6.326807e+09 1.915586e+09
-1.136829e+11 6.935965e+09 -2.188323e+09
-1.139607e+11 1.122605e+10 -9.689157e+08
-1.139180e+11 1.126221e+10 5.832126e+08
5.074758e+10 -1.015355e+11 -7.476048e+07
-7.164388e+10 -9.188004e+10 -2.796799e+09
-1.158370e+11 3.668293e+08 -3.062828e+08
-9.565465e+10 -6.357407e+10 1.029438e+09
9.670520e+10 -6.391674e+10 3.031485e+08
-1.148599e+11 -6.552660e+08 3.445297e+08
-9.447011e+10 -6.442783e+10 9.084172e+06
9.546126e+10 -6.427276e+10 -3.912008e+08
-1.150986e+11 -1.163757e+10 -3.583175e+08
4.346029e+10 -1.062685e+11 -5.564498e+08
-4.326451e+10 -1.063641e+11 -7.262463e+08
-8.880135e+10 -7.322915e+10 1.001801e+09
-6.795416e+10 -9.144893e+10 -7.455550e+08
8.965717e+10 -7.358415e+10 3.450748e+08
-1.141263e+11 -1.241086e+10 3.498196e+08
-4.427709e+10 -1.070905e+11 6.197845e+08
4.393471e+10 -1.060217e+11 1.200623e+08
-8.742772e+10 -7.410768e+10 1.542401e+07
8.820239e+10 -7.363500e+10 -3.455557e+08
-2.016999e+10 -1.142345e+11 -1.076287e+09
1.154928e+11 -8.902575e+09 6.174903e+08
-2.876183e+10 -1.117378e+11 6.396421e+08
-1.249562e+10 -1.111274e+11 -1.756348e+09
-6.797479e+10 -9.079790e+10 7.362796e+08
-6.887734e+10 -8.952191e+10 2.756297e+09
-4.290759e+10 -1.065584e+11 -8.481991e+08
4.317281e+10 -1.070659e+11 -1.177141e+09
-1.113630e+11 -3.694717e+10 2.142166e+09
6.204597e+10 -9.895108e+10 -2.181956e+09
-9.168781e+09 -1.132410e+11 -2.147075e+09
4.913711e+10 -1.039501e+11 2.083492e+09
-4.914580e+10 -1.039740e+11 2.077115e+09
-1.130099e+11 1.249161e+10 -9.365308e+08
-1.142869e+11 5.368559e+09 -8.995078e+08
-6.763351e+10 -9.429160e+10 -3.232098e+07
-1.141956e+11 -6.375993e+09 -8.743462e+08
9.158504e+10 -6.861457e+10 8.897583e+08
-9.191706e+10 -6.951852e+10 -7.571759e+06
-1.498544e+10 -1.161574e+11 -6.020489e+06
-6.231466e+10 -1.009184e+11 -9.846030e+08
-1.161334e+11 -2.224211e+10 9.196007e+08
-2.377083e+10 -1.101550e+11 -2.860270e+07
-7.456309e+10 -9.133561e+10 4.688110e+08
7.539746e+10 -8.512487e+10 2.073027e+08
-7.457143e+10 -8.424657e+10 -2.141926e+08
-6.712251e+10 -9.127058e+10 -5.904874e+08
1.108379e+10 -1.173068e+11 1.307546e+09
-1.173399e+11 1.700895e+10 -6.158537e+08
-3.227222e+10 1.124647e+11 5.828942e+06
1.009227e+11 5.796025e+10 -3.287416e+08
-2.043150e+10 1.151792e+11 -7.563622e+07
-7.427521e+10 9.031416e+10 -1.169858e+08
5.258340e+10 -1.058530e+11 3.944534e+08
-5.245366e+10 -1.056554e+11 3.593832e+08
-8.047402e+10 -8.446417e+10 -4.751553e+08
8.229810e+10 -8.682789e+10 -3.427396e+08
-6.658739e+10 -9.213630e+10 1.150849e+09
-1.858660e+10 -1.150296e+11 6.472395e+08
-9.863230e+10 5.862107e+10 -5.099951e+08
-4.528737e+10 1.042382e+11 3.061740e+08
1.120814e+11 2.311818e+10 6.382795e+08
9.341808e+10 6.623239e+10 -6.156322e+08
1.597525e+10 1.131106e+11 6.528659e+08
-5.189882e+08 1.144002e+11 -6.339110e+08
-8.814348e+10 7.355952e+10 4.137377e+08
-1.092014e+11 3.609664e+10 -1.974488e+08
-8.033559e+10 8.256116e+10 1.896826e+08
-6.558063e+10 -9.350090e+10 -8.648362e+08
5.840995e+10 9.910036e+10 3.793201e+08
1.011489e+11 5.458318e+10 2.751589e+08
1.146642e+11 2.109613e+09 -2.354502e+08
1.135646e+11 -1.800466e+10 2.823693e+08
1.099111e+11 3.298815e+10 -3.192350e+08
2.908400e+10 1.102095e+11 -4.658706e+08
4.322729e+10 1.054491e+11 4.683770e+08
7.039525e+10 8.973401e+10 -5.160120e+08
-7.114556e+10 9.044428e+10 2.690564e+08
-2.942679e+10 1.113778e+11 1.937235e+08
-6.552153e+10 -9.250205e+10 -1.853293e+09
-1.783299e+10 1.137809e+11 1.910551e+08
1.111278e+11 -2.969565e+10 3.624569e+08
-1.078476e+11 -4.058901e+10 7.236703e+08
1.089635e+11 -3.341746e+10 -2.132589e+09
-2.598068e+10 1.116121e+11 -2.488434e+09
-1.097616e+11 3.263069e+10 2.499337e+09
4.688604e+10 1.045036e+11 -2.490038e+09
-1.430572e+10 1.136067e+11 -2.462099e+09
-6.702964e+10 9.205220e+10 -2.130579e+09
1.023675e+11 5.133948e+10 -2.486735e+09
-6.618647e+10 -9.466468e+10 -1.966172e+09
6.777528e+10 9.247286e+10 2.442179e+09
1.134631e+11 5.756104e+09 2.399783e+09
2.551584e+10 1.119532e+11 2.558972e+09
1.084976e+11 3.624792e+10 2.446395e+09
1.116972e+11 -2.199468e+10 -2.133131e+09
6.135379e+10 9.604150e+10 -2.130352e+09
-7.743213e+10 8.450208e+10 -2.484597e+09
-8.562378e+10 7.614928e+10 -2.513750e+09
6.451681e+10 -9.716525e+10 -2.936196e+08
-2.865784e+10 1.099970e+11 9.308039e+08
-6.290144e+10 -9.422490e+10 -1.015445e+08
-1.710469e+10 1.123542e+11 9.031673e+08
1.095161e+11 3.325693e+10 -1.360805e+08
-7.028094e+10 8.974235e+10 9.029854e+08
-1.075852e+11 -4.444570e+10 -1.727388e+09
-1.076326e+11 -3.248969e+10 -6.742106e+08
6.649280e+10 9.545660e+10 1.769852e+09
5.011149e+10 1.047261e+11 -1.377802e+09
1.161061e+11 8.392134e+09 1.725514e+09
1.053379e+11 4.988280e+10 -1.651493e+09
-1.121332e+11 3.101427e+10 1.530654e+09
4.955325e+10 -1.016208e+11 1.442937e+09
-6.405243e+10 -9.431295e+10 -8.287548e+08
-8.910652e+09 1.156220e+11 1.452873e+09
-6.453842e+10 -9.749017e+10 -1.291387e+09
-1.099227e+11 -3.820018e+10 -2.261014e+08
-1.008343e+11 5.422430e+10 -3.750357e+08
9.130078e+10 7.015323e+10 -5.322080e+08
-1.030991e+11 5.335187e+10 8.488217e+08
-1.041001e+11 4.806150e+10 -5.794959e+08
9.045392e+10 7.325889e+10 8.838647e+08
-1.025592e+11 5.161857e+10 -6.234757e+08
8.840515e+10 7.288909e+10 -5.288190e+08
-6.038706e+10 -9.932600e+10 -1.204718e+09
-1.036830e+11 4.965957e+10 1.241795e+09
9.178301e+10 6.917910e+10 8.214762e+08
-1.006440e+11 5.658789e+10 5.691914e+08
9.607097e+10 -6.230326e+10 4.681414e+07
-9.551121e+10 -6.216623e+10 -6.818437e+08
6.605749e+10 -9.361061e+10 -7.417107e+08
1.096461e+11 -3.568014e+10 3.749378e+08
-6.736925e+10 9.388613e+10 -7.731535e+07
1.121713e+11 -2.381975e+10 -4.910190e+08
1.089175e+11 3.954728e+10 2.231068e+08
-6.526309e+10 -9.365804e+10 -2.641702e+08
6.393804e+10 9.648477e+10 -3.958895e+08
-8.176211e+09 1.170852e+11 -3.124943e+08
2.415468e+10 1.141354e+11 -9.194620e+08
6.754013e+10 9.599491e+10 -2.601422e+07
-2.340550e+10 1.145692e+11 -1.267938e+09
5.006511e+10 1.060359e+11 -1.343895e+06
-7.662740e+10 8.832711e+10 -1.292783e+09
1.172683e+11 8.026550e+09 4.530427e+06
-1.129094e+11 3.095943e+10 -2.025432e+08
1.061471e+11 5.062391e+10 -4.937691e+06
-5.968129e+10 -9.748619e+10 4.596253e+08
-1.239909e+10 1.169332e+11 -1.751078e+08
1.156489e+11 -3.404603e+09 -7.570587e+08
1.078863e+11 4.221421e+10 -1.215019e+09
7.970043e+10 8.476831e+10 -4.610046e+08
1.157092e+11 1.225804e+10 1.182223e+09
-6.399331e+10 9.648093e+10 -9.463156e+08
1.070711e+11 4.723448e+10 -1.361674e+09
8.179545e+10 8.300766e+10 -1.385152e+09
-9.320915e+10 7.157554e+10 1.347098e+09
-5.660885e+10 1.016549e+11 1.045633e+09
-6.380676e+10 -9.605463e+10 1.240946e+09
1.139012e+11 1.569343e+10 -1.324593e+09
-3.996208e+10 1.086367e+11 -2.034836e+08
8.399059e+10 7.891012e+10 8.041802e+08
-3.639887e+09 -1.161668e+11 9.020320e+06
3.734701e+09 -1.174257e+11 9.377155e+07
-1.104348e+11 4.040209e+10 1.011354e+08
-8.451807e+10 8.151978e+10 -1.529945e+08
1.160061e+11 -1.394562e+10 -4.818339e+08
7.488618e+10 8.972847e+10 8.138251e+07
4.102525e+10 1.095357e+11 -1.504914e+08
-6.211059e+10 -9.583053e+10 -2.827448e+08
9.934357e+09 1.161884e+11 -3.601921e+08
3.279558e+10 1.119121e+11 3.276328e+08
-9.736744e+10 6.516729e+10 6.661345e+08
2.113760e+10 1.131333e+11 -2.142904e+09
-6.169653e+09 1.136152e+11 2.524067e+09
1.122580e+11 1.749023e+10 -2.548721e+09
-4.021327e+10 1.063782e+11 -2.510502e+09
-1.057737e+11 4.445048e+10 2.085969e+09
8.454526e+10 7.600641e+10 2.593507e+09
-1.100792e+11 -3.830059e+10 -1.695921e+09
-5.948586e+10 -9.752612e+10 5.967279e+08
5.832760e+10 -9.775546e+10 -1.641525e+08
-7.759394e+10 -8.674720e+10 -3.080432e+07
8.006896e+10 -8.888305e+10 9.313515e+07
5.264457e+10 -1.009829e+11 1.771700e+07
-5.221133e+10 -1.012443e+11 6.223919e+07
1.152226e+11 -1.301195e+10 -4.437596e+08
-1.143840e+11 1.742346e+10 2.302340e+09
2.725949e+10 -1.100983e+11 -7.331593e+07
2.696404e+10 1.100265e+11 -1.216692e+09
6.890054e+10 9.025877e+10 -1.215723e+09
-6.098537e+10 -9.640996e+10 -5.895535e+08
-1.091345e+11 3.527975e+10 -1.291206e+09
-7.924181e+10 8.254225e+10 1.270362e+09
4.447906e+10 1.044689e+11 1.223666e+09
1.137210e+11 -1.854991e+10 1.280715e+09
-1.167159e+11 6.649797e+09 -4.033179e+08
-1.168559e+11 -5.271316e+09 -4.731728e+08
-9.387010e+10 -6.906388e+10 3.237009e+08
9.429161e+10 -6.909546e+10 4.705920e+08
-1.153110e+11 -1.672850e+10 -9.003731e+08
-8.625188e+10 -7.854137e+10 2.670647e+08
-5.798945e+10 -9.673264e+10 -3.295218e+08
8.632612e+10 -7.844724e+10 3.668478e+08
4.999591e+10 -1.051537e+11 -6.141179e+05
-4.999243e+10 -1.050865e+11 1.411219e+07
-1.024517e+11 -6.165126e+10 2.836641e+08
1.001703e+11 -5.994156e+10 6.377264e+08
-1.094566e+11 4.248205e+10 -8.013483e+08
-8.625647e+10 7.993660e+10 -7.979812e+08
-2.363983e+09 -1.153605e+11 1.006155e+08
3.112120e+09 -1.160749e+11 7.483244e+08
-1.048927e+11 -5.286752e+10 1.849318e+09
-5.800084e+10 -9.685413e+10 4.546395e+08
1.048330e+11 -5.333560e+10 2.028827e+09
-9.850445e+10 5.997801e+10 9.747015e+08
-4.592267e+10 1.051286e+11 -6.347476e+07
1.129565e+11 2.441672e+10 -1.024319e+09
5.421207e+08 1.155147e+11 1.019826e+09
9.494296e+10 6.611543e+10 1.023121e+09
1.514965e+10 1.137392e+11 -5.454787e+08
9.317551e+10 6.776119e+10 5.948215e+08
-7.258247e+10 -9.082758e+10 -1.747542e+09
-1.136895e+11 2.451674e+10 -2.695771e+07
5.226497e+10 -1.012946e+11 2.297490e+09
-5.997540e+10 -9.648524e+10 8.351141e+07
-6.113933e+10 -9.559430e+10 2.346460e+08
1.114841e+11 -3.309802e+10 1.733495e+08
-2.128078e+10 1.150112e+11 -2.583604e+07
-4.114233e+10 1.096712e+11 1.010516e+09
-7.500894e+10 8.975347e+10 -4.336166e+07
1.019526e+11 5.862134e+10 -1.553051e+09
1.140608e+11 -2.145460e+10 2.261890e+08
1.146841e+11 1.805906e+10 1.411493e+08
1.105171e+11 3.663093e+10 -7.673215e+08
1.161389e+11 -6.739030e+09 9.590137e+08
-5.615255e+10 -9.904413e+10 7.717546e+08
6.159354e+10 9.783320e+10 8.462617e+08
-6.866963e+10 9.313877e+10 8.301844e+08
2.576892e+10 1.135185e+11 -1.358236e+09
8.610231e+10 7.756705e+10 -6.659248e+07
-1.125574e+11 2.792711e+10 7.863611e+08
-3.303241e+10 1.126334e+11 6.349340e+08
-9.634629e+10 6.856285e+10 1.480274e+09
-1.150676e+11 5.976154e+08 3.114012e+08
-1.145646e+11 -1.118827e+10 3.051973e+08
8.916565e+10 -7.278033e+10 -3.019391e+08
-5.713703e+10 -9.991778e+10 -8.027954e+08
-9.034149e+10 -7.270346e+10 3.424693e+08
-7.098835e+10 -9.258469e+10 1.179789e+09
-7.597370e+10 -8.933418e+10 2.880257e+09
6.341389e+10 -9.781759e+10 -1.029633e+09
2.912463e+10 1.156719e+11 1.257210e+09
-1.666451e+10 1.187849e+11 -5.369387e+08
7.299428e+10 9.497814e+10 6.522771e+08
-7.335265e+10 9.600990e+10 -4.857346e+08
1.196932e+11 4.163630e+09 9.788458e+08
4.645051e+10 1.101045e+11 -7.116122e+08
-5.953814e+10 -9.910989e+10 6.368268e+08
1.191192e+11 -2.062860e+10 -5.022867e+08
1.143515e+11 3.638814e+10 4.843246e+08
1.063947e+11 5.521966e+10 -5.114029e+08
6.250308e+10 1.031053e+11 -5.120343e+08
-8.221942e+10 8.733647e+10 -5.043819e+08
-9.058450e+10 7.719450e+10 -8.911770e+08
-1.146293e+11 3.571239e+10 4.811724e+08
-2.874735e+10 1.164196e+11 -4.698776e+08
1.160708e+11 -3.263996e+10 -5.254211e+08
8.585214e+10 -8.010318e+10 -3.205706e+08
-5.471083e+10 -9.896248e+10 8.377974e+08
-8.584401e+10 -8.010151e+10 -3.271355e+08
3.445317e+10 -1.131550e+11 3.213355e+08
2.152046e+09 1.204104e+11 -2.901146e+09
1.173068e+11 2.698030e+10 2.887982e+09
9.927150e+10 6.722515e+10 -2.863712e+09
-4.973170e+10 1.041981e+11 1.435687e+09
-1.157968e+11 -1.905342e+10 1.412603e+08
-8.121078e+10 -8.050139e+10 -2.597119e+08
8.124769e+10 -8.055997e+10 -2.617285e+08
6.842814e+10 -8.959273e+10 -8.647730e+08
-5.476159e+10 -9.858140e+10 1.172190e+09
1.088907e+11 -2.793897e+10 4.390237e+07
-1.070489e+11 3.861948e+10 -1.019382e+09
-6.938801e+10 9.003163e+10 6.386346e+08
-1.111281e+11 2.310098e+10 -3.767840e+08
-8.712278e+10 7.164969e+10 1.116001e+08
-2.768636e+10 1.102337e+11 6.424365e+08
8.654454e+10 7.215286e+10 1.296552e+09
-4.439238e+10 1.043647e+11 -1.313661e+09
9.881058e+10 5.435979e+10 1.899834e+08
1.112901e+11 2.190816e+10 -1.255076e+09
-5.594971e+10 -9.926212e+10 -5.521890e+08
1.127984e+11 1.105333e+09 3.067536e+07
4.041282e+10 1.066413e+11 1.157621e+08
7.268092e+10 8.754929e+10 2.851801e+08
1.096564e+11 3.346151e+10 -1.245727e+09
-9.514670e+10 6.183837e+10 4.397262e+08
1.117588e+11 -1.067795e+10 -1.889349e+08
5.608544e+10 9.748865e+10 5.261445e+07
3.107482e+10 1.093050e+11 -5.577871e+08
-1.621275e+10 1.124165e+11 5.965457e+08
-1.464139e+09 1.132255e+11 1.215932e+09
-5.401698e+10 -1.013453e+11 -1.539708e+09
-8.211631e+10 7.928380e+10 7.061184e+08
1.117705e+10 1.137814e+11 -1.712243e+08
-1.020463e+11 4.750703e+10 4.925189e+07
5.272949e+10 -1.022833e+11 2.279083e+09
-5.273418e+10 -1.024192e+11 2.238077e+09
-6.843240e+10 -9.281431e+10 1.173792e+09
-9.516740e+10 6.368079e+10 2.187717e+08
-8.318101e+10 7.931632e+10 5.374816e+08
-2.106212e+09 1.149400e+11 6.669759e+08
-1.042858e+11 4.755779e+10 4.137302e+08
-5.317543e+10 -1.004084e+11 -6.870079e+08
-1.077178e+11 4.029084e+10 -5.638466e+08
9.536587e+09 1.142556e+11 1.335338e+08
7.416913e+10 8.786564e+10 -5.650380e+08
3.275982e+10 1.102329e+11 -2.552431e+08
1.148302e+11 -1.023167e+10 7.917309e+08
-4.456001e+10 1.062578e+11 -8.958836e+08
3.972272e+10 1.079567e+11 5.971872e+08
1.127945e+11 2.168364e+10 -6.671205e+08
8.840580e+10 7.415565e+10 6.654666e+08
1.219438e+10 -1.162212e+11 1.561869e+09
-5.265197e+10 -9.981431e+10 -7.903057e+08
-4.045869e+10 -1.107967e+11 1.696899e+09
4.066506e+10 -1.111473e+11 1.691881e+09
4.115392e+10 -1.031462e+11 -7.548344e+07
-4.178548e+10 -1.046633e+11 5.771177e+08
1.056566e+11 -4.618441e+10 -2.809002e+08
-1.071209e+11 -4.728465e+10 -4.215886e+08
2.712225e+10 -1.112386e+11 2.096065e+08
2.100291e+10 -1.145402e+11 -3.942471e+08
-1.117895e+11 2.473243e+10 -4.261742e+08
7.162139e+10 -9.171466e+10 3.742462e+08
5.061530e+10 -1.032684e+11 1.945273e+08
-5.102469e+10 -1.019143e+11 1.554963e+09
-1.114914e+11 -3.576413e+10 -2.429973e+08
-1.033068e+11 4.367891e+10 -8.373852e+08
-8.424319e+10 7.674759e+10 -6.384927e+08
6.907653e+09 1.136836e+11 -1.119569e+09
-5.281898e+09 1.106507e+11 2.814738e+08
-1.918517e+10 1.134481e+11 -2.775759e+09
5.965567e+10 9.814166e+10 -1.516540e+08
1.137193e+11 -7.583667e+09 -1.231482e+08
1.102479e+11 3.048418e+10 9.789810e+08
7.584776e+10 8.599774e+10 8.682905e+08
-5.276018e+10 -1.026791e+11 -2.615721e+09
3.714079e+10 1.080705e+11 -5.954870e+08
-9.253862e+10 6.525209e+10 1.232099e+09
1.146790e+11 4.135097e+09 1.718751e+08
-3.077620e+10 1.110527e+11 -2.739446e+09
3.491078e+10 1.079170e+11 5.294623e+08
1.019095e+11 5.272650e+10 -1.010115e+08
1.093987e+11 1.769509e+10 -2.880701e+08
8.316837e+10 7.422624e+10 2.507371e+08
-4.007283e+10 1.037258e+11 -2.113584e+08
-1.103042e+11 2.703534e+10 8.783595e+08
-5.099634e+10 -1.030141e+11 1.058250e+08
-7.263951e+10 8.967526e+10 -2.777549e+09
-8.655304e+10 7.512438e+10 -1.618312e+08
-1.045448e+11 4.152305e+10 8.125499e+08
1.104723e+11 -3.129224e+10 -1.662684e+08
2.498124e+10 -1.118133e+11 -3.872331e+08
-9.268084e+10 6.861872e+10 -1.281145e+08
5.177691e+10 1.024978e+11 -6.643100e+07
9.923685e+10 5.981184e+10 -2.967591e+08
1.133052e+11 -2.286686e+10 6.277350e+07
1.155198e+11 -4.929359e+09 4.356151e+08
-5.200909e+10 -1.019768e+11 1.663463e+09
-3.262959e+10 -1.130381e+11 6.993492e+07
1.073399e+10 -1.163194e+11 -1.192950e+09
-7.416907e+10 -9.199040e+10 -1.451448e+08
-1.997157e+10 -1.140431e+11 1.047657e+09
1.983649e+10 -1.148747e+11 4.129544e+08
-4.334436e+09 -1.163090e+11 1.433872e+09
4.543315e+09 -1.187188e+11 1.552473e+09
-7.162143e+10 -9.358265e+10 -3.649995e+09
6.405526e+10 -9.729187e+10 -2.629900e+09
1.091801e+11 -4.461857e+10 -8.827276e+08
-4.987675e+10 -1.017614e+11 1.376338e+09
-1.080824e+11 -4.447655e+10 -2.029904e+08