# vtk DataFile Version 2.0
Electric current density generated by TTH
ASCII
DATASET UNSTRUCTURED_GRID
POINTS 6210 double
1.831120e-05 3.155302e-05 -1.905280e-22
1.202752e-05 -3.280134e-05 -1.321109e-07
1.296248e-05 3.243250e-05 4.565497e-08
1.296248e-05 -3.243250e-05 -4.565497e-08
-3.452661e-05 5.361843e-06 -1.511906e-07
-3.398459e-05 8.116857e-06 -1.511906e-07
-3.322314e-05 1.081934e-05 -1.511335e-07
-1.484631e-05 -3.162928e-05 -1.503172e-07
-1.217381e-05 -3.274329e-05 -1.079030e-07
-2.447039e-05 -2.493040e-05 -1.079030e-07
-4.633516e-06 -3.462449e-05 -1.079030e-07
1.788686e-05 3.179549e-05 -1.905280e-22
-1.964116e-05 -2.888857e-05 -1.079030e-07
-2.971610e-05 -1.836513e-05 -1.079030e-07
-3.202371e-05 -1.395732e-05 -1.079030e-07
-2.429132e-05 2.593819e-05 7.597948e-07
-2.777147e-05 2.127285e-05 -2.924375e-07
2.249297e-05 2.808724e-05 -7.256775e-07
1.980034e-05 -2.877918e-05 -1.047926e-07
-3.089823e-05 1.629640e-05 1.025226e-07
4.943326e-06 -3.463492e-05 -3.002587e-07
-6.665131e-07 -3.500069e-05 -3.464558e-07
1.745930e-05 3.203226e-05 -1.905280e-22
-2.678367e-05 -2.250887e-05 -3.002595e-07
-3.494345e-05 -1.977010e-06 -3.305134e-07
-3.438693e-05 -6.446176e-06 -3.002595e-07
-3.377750e-05 -9.167003e-06 -3.305134e-07
-3.466183e-05 -4.750995e-06 -3.002595e-07
-8.998943e-06 -3.380877e-05 -3.002595e-07
-3.497537e-05 8.586628e-07 -3.002595e-07
3.237786e-06 -3.483577e-05 -3.002595e-07
8.772270e-06 -3.386832e-05 -3.003165e-07
-2.591077e-05 2.447409e-05 -7.754502e-07
1.702861e-05 3.226328e-05 -1.905280e-22
-1.300797e-05 -3.241471e-05 5.187800e-08
-3.236600e-05 -1.312869e-05 5.187800e-08
-2.381857e-05 -2.554596e-05 5.187800e-08
-2.923015e-05 -1.911855e-05 5.187800e-08
-2.037271e-05 -2.837029e-05 5.187800e-08
-3.742769e-06 -3.472625e-05 5.187800e-08
7.934194e-06 -3.497258e-05 7.617205e-07
8.955543e-06 -3.468538e-05 7.686809e-07
6.142005e-06 -3.533142e-05 7.617182e-07
5.096689e-06 -3.542955e-05 7.725781e-07
1.659486e-05 3.248851e-05 -1.905280e-22
2.233716e-06 -3.579168e-05 7.617172e-07
3.287962e-06 -3.567177e-05 7.686618e-07
4.072122e-07 -3.585900e-05 7.617172e-07
-6.530006e-07 -3.581703e-05 7.686618e-07
-1.720370e-05 -3.146532e-05 7.617172e-07
-1.633103e-05 -3.184037e-05 7.736902e-07
-2.201858e-05 -2.830575e-05 7.617172e-07
-2.120762e-05 -2.881219e-05 7.745268e-07
-1.879393e-05 -3.051019e-05 7.668497e-07
-1.954531e-05 -2.995381e-05 7.753270e-07
1.615814e-05 3.270791e-05 -1.905280e-22
-9.191505e-06 -3.466338e-05 7.617172e-07
-8.209547e-06 -3.486031e-05 7.700133e-07
-2.626562e-05 -2.441620e-05 7.617172e-07
-2.555617e-05 -2.504752e-05 7.737127e-07
-3.584967e-05 -9.138719e-07 7.617172e-07
-3.576867e-05 -1.971819e-06 7.686618e-07
-3.459411e-05 -9.448879e-06 7.617172e-07
-3.427156e-05 -1.039703e-05 7.700133e-07
-2.343330e-05 -2.713787e-05 7.629905e-07
-2.408323e-05 -2.642405e-05 7.763535e-07
1.571852e-05 3.292144e-05 -1.905280e-22
-1.096383e-05 -3.411565e-05 7.668497e-07
-1.183447e-05 -3.375247e-05 7.752885e-07
-2.747553e-05 -2.304624e-05 7.617172e-07
-2.807095e-05 -2.224095e-05 7.700133e-07
-3.584967e-05 9.138719e-07 7.617172e-07
-3.576288e-05 1.911615e-06 7.700133e-07
-6.378518e-06 -3.528949e-05 7.617172e-07
-5.415415e-06 -3.535425e-05 7.753270e-07
-3.503060e-05 -7.674021e-06 7.617172e-07
-3.520460e-05 -6.627342e-06 7.686618e-07
1.527607e-05 3.312906e-05 -1.905280e-22
-3.218432e-05 -1.581782e-05 7.617172e-07
-3.252075e-05 -1.492972e-05 7.737127e-07
-2.923732e-05 -2.076567e-05 7.617172e-07
-2.970798e-05 -1.993343e-05 7.745268e-07
-3.553368e-05 -4.836447e-06 7.617172e-07
-3.560917e-05 -3.804049e-06 7.703181e-07
-3.129930e-05 -1.744812e-05 7.668497e-07
-3.077616e-05 -1.822301e-05 7.753270e-07
-3.566053e-05 3.789483e-06 7.617172e-07
-3.545726e-05 4.749562e-06 7.746941e-07
1.483088e-05 3.333074e-05 -1.905280e-22
-3.372371e-05 -1.219612e-05 7.617172e-07
-3.328071e-05 -1.306241e-05 7.763535e-07
-2.473414e-06 -3.577591e-05 7.617172e-07
-3.415430e-06 -3.561236e-05 7.745268e-07
-3.189847e-05 -1.669970e-05 -7.169024e-07
3.587508e-05 1.881054e-06 7.458818e-07
1.787438e-05 3.128111e-05 7.070814e-07
1.796024e-05 -3.120979e-05 -7.155547e-07
-1.375802e-05 3.329363e-05 -7.086752e-07
2.134014e-05 -2.769934e-05 2.487883e-07
1.438303e-05 3.352643e-05 -1.905280e-22
-3.459774e-05 9.504175e-06 7.577401e-07
-3.418021e-05 1.038122e-05 7.776715e-07
-3.524917e-05 6.695449e-06 7.577401e-07
-3.493512e-05 7.637788e-06 7.758152e-07
-1.370775e-05 -3.315766e-05 7.577401e-07
-1.456678e-05 -3.265895e-05 7.758152e-07
1.592849e-05 3.212497e-05 7.625800e-07
1.592849e-05 -3.212497e-05 -7.625800e-07
-4.563914e-06 3.471428e-05 -3.581958e-07
-1.088681e-05 3.327199e-05 -3.480400e-07
1.393260e-05 3.371610e-05 -1.905280e-22
-1.660686e-05 3.081836e-05 -3.483414e-07
3.036464e-05 1.937516e-05 7.107973e-07
-2.741483e-05 2.339715e-05 7.005628e-07
1.518293e-05 -3.264947e-05 -7.162162e-07
1.518293e-05 3.264947e-05 7.162162e-07
3.614746e-05 9.801581e-07 6.293258e-07
3.614746e-05 -9.801581e-07 -6.293258e-07
1.791205e-05 2.998589e-05 -6.598646e-08
2.751521e-05 2.193914e-05 5.852571e-07
-7.311811e-06 -3.528954e-05 -7.017965e-07
1.347967e-05 3.389973e-05 -1.905280e-22
-2.701254e-05 -2.385659e-05 -7.017965e-07
-1.808918e-05 -3.117044e-05 -7.017965e-07
-1.012179e-05 -3.458849e-05 -7.017965e-07
-3.291196e-05 1.171007e-05 -1.076976e-07
-3.375518e-05 8.999037e-06 -1.148218e-07
-3.436877e-05 6.259596e-06 -1.148218e-07
1.012493e-05 3.342947e-05 -7.362761e-08
1.012493e-05 -3.342947e-05 7.362761e-08
-3.592363e-05 2.893845e-06 -7.013507e-07
9.890129e-06 -3.465641e-05 -7.013496e-07
1.302432e-05 3.407727e-05 -1.905280e-22
9.890129e-06 3.465641e-05 7.013496e-07
-1.801571e-05 -2.992455e-05 7.372196e-08
-6.535581e-06 -3.431225e-05 7.372196e-08
-2.257349e-05 -2.665486e-05 7.372196e-08
-1.034798e-05 -3.336111e-05 7.372196e-08
-3.068034e-05 -1.669612e-05 7.372196e-08
-2.169120e-05 -2.737807e-05 7.710908e-08
-3.476673e-05 3.364277e-06 7.372196e-08
-1.704388e-05 -3.048852e-05 7.372196e-08
-3.295732e-05 -1.156976e-05 7.372196e-08
1.256664e-05 3.424869e-05 -1.905280e-22
-2.580532e-05 -2.353996e-05 7.372196e-08
-2.828591e-05 -2.049271e-05 7.372196e-08
-3.120149e-05 -1.570067e-05 7.372196e-08
-2.081418e-06 -3.486706e-05 7.372196e-08
-3.302748e-05 1.404574e-05 -7.551872e-07
-1.566287e-05 -3.122640e-05 -1.165942e-07
2.462260e-05 2.484228e-05 -2.787788e-07
1.708527e-05 -3.052694e-05 2.928689e-07
1.714573e-05 3.048878e-05 -2.835783e-07
1.339577e-05 3.331233e-05 -7.513858e-07
1.210669e-05 3.441397e-05 -1.905280e-22
1.339577e-05 -3.331233e-05 7.513858e-07
2.531826e-05 -2.547785e-05 7.476070e-07
2.606122e-05 -2.471708e-05 7.476634e-07
2.372192e-05 2.626532e-05 -7.128058e-07
-2.276815e-05 2.709382e-05 -7.119822e-07
3.495025e-05 -9.698778e-07 2.403811e-07
3.469389e-05 -4.667902e-06 3.453722e-07
-3.008533e-05 1.965211e-05 -7.426138e-07
3.330158e-05 1.362760e-05 7.263209e-07
3.330158e-05 -1.362760e-05 -7.263209e-07
1.164458e-05 3.457307e-05 -1.905280e-22
1.445438e-05 -3.290634e-05 7.407496e-07
1.445438e-05 3.290634e-05 -7.407496e-07
3.442783e-05 7.892591e-06 -6.773082e-07
3.442783e-05 -7.892591e-06 6.773082e-07
2.140010e-05 2.886166e-05 7.442108e-07
-2.129191e-05 2.774455e-05 -2.670938e-07
4.125608e-06 3.483986e-05 -4.694843e-07
-5.061594e-06 3.568386e-05 7.008409e-07
3.434436e-05 -6.350521e-06 -3.786809e-08
3.475512e-05 -9.178306e-06 -7.389270e-07
1.118037e-05 3.472596e-05 -1.905280e-22
3.475512e-05 9.178306e-06 7.389270e-07
3.460636e-05 4.800871e-06 1.369399e-07
-1.079766e-05 3.420881e-05 7.593257e-07
-2.274283e-06 3.578780e-05 7.619897e-07
-1.734831e-05 3.139842e-05 7.593492e-07
1.926740e-05 -3.034061e-05 7.406180e-07
3.434427e-05 6.349103e-06 3.010729e-08
3.062184e-05 1.679591e-05 2.102986e-09
3.062184e-05 -1.679591e-05 -2.102986e-09
-1.481562e-05 3.163014e-05 6.124896e-08
1.071416e-05 3.487262e-05 -1.905280e-22
2.396002e-05 -2.541416e-05 -6.010941e-08
3.292024e-05 -1.187227e-05 -3.224713e-07
3.292024e-05 1.187227e-05 3.224713e-07
-2.963623e-05 1.883020e-05 5.056922e-07
-1.572360e-05 3.238772e-05 -7.180443e-07
-1.592197e-05 3.233742e-05 6.990957e-07
-1.247321e-05 3.382614e-05 6.951731e-07
-1.832760e-05 3.102070e-05 -7.059089e-07
-1.293969e-06 3.603669e-05 -6.914428e-07
-9.849037e-06 3.465812e-05 -7.058833e-07
1.024602e-05 3.501303e-05 -1.905280e-22
-6.163917e-06 3.549922e-05 -7.058833e-07
6.204986e-06 3.446436e-05 3.685639e-07
-1.265003e-05 -3.374669e-05 -7.014781e-07
-1.391149e-05 -3.318856e-05 -7.246889e-07
-2.517447e-05 -2.582067e-05 -6.904117e-07
-3.061242e-05 -1.906150e-05 -6.904117e-07
-3.310668e-05 -1.429716e-05 -6.904117e-07
-2.037589e-05 -2.975373e-05 -6.904117e-07
-4.663120e-06 -3.575915e-05 -6.904117e-07
-1.730772e-05 3.039564e-05 -2.802834e-07
9.776048e-06 3.514715e-05 -1.905280e-22
-1.009893e-05 3.348835e-05 -2.805105e-07
-5.431228e-06 3.455372e-05 -2.805105e-07
-1.405396e-05 3.205939e-05 -3.413853e-07
2.454675e-05 -2.495349e-05 3.385025e-07
-1.542015e-05 3.156127e-05 -5.220677e-07
3.431283e-06 3.475889e-05 -5.858007e-08
2.776113e-05 -2.184504e-05 -6.798248e-07
-2.719007e-05 2.196418e-05 -2.052114e-07
3.552816e-05 5.777632e-06 7.212654e-07
9.370485e-06 3.477785e-05 -7.114326e-07
9.304319e-06 3.527496e-05 -1.905280e-22
1.702285e-05 -3.171176e-05 -7.224794e-07
1.702285e-05 3.171176e-05 7.224794e-07
6.357120e-06 3.537323e-05 7.410940e-07
3.551792e-05 -5.758817e-06 -7.264285e-07
-3.264109e-05 1.520202e-05 7.160214e-07
-3.377685e-05 1.248090e-05 -7.153924e-07
1.705390e-05 -3.179346e-05 6.815292e-07
1.235977e-05 -3.384291e-05 -7.064080e-07
1.235977e-05 3.384291e-05 7.064080e-07
-3.497568e-06 -3.589653e-05 -6.879975e-07
8.830920e-06 3.539644e-05 -1.905280e-22
-2.997982e-05 -2.005004e-05 -6.879975e-07
-2.133637e-05 -2.907040e-05 -6.913613e-07
-3.355865e-05 -1.321405e-05 -6.879975e-07
-2.432410e-05 -2.662953e-05 -6.879975e-07
-1.529703e-05 -3.260389e-05 -7.132125e-07
-3.409302e-05 1.111009e-05 -7.624749e-07
-3.487506e-05 8.336797e-06 -7.624632e-07
-3.551243e-05 5.438582e-06 -7.452572e-07
-3.533770e-05 6.952239e-06 -7.127648e-07
-3.466537e-05 9.767245e-06 -7.127647e-07
8.355936e-06 3.551157e-05 -1.905280e-22
[...]
POINT_DATA 6210
VECTORS 10.000GHz_fone_imag double
3.650494e+10 -2.060150e+10 -2.540268e+06
-4.451504e+10 -1.766302e+10 -3.499183e+08
4.422255e+10 -1.917925e+10 4.930589e+08
-4.423693e+10 -1.918405e+10 5.039898e+08
8.683030e+09 4.658138e+10 -6.161404e+08
1.248541e+10 4.592024e+10 -6.065681e+08
1.631690e+10 4.532928e+10 -3.668304e+08
-4.329905e+10 2.088620e+10 -1.739207e+08
-4.466855e+10 1.740273e+10 -6.937213e+08
-3.468741e+10 3.305498e+10 3.442622e+08
-4.793866e+10 4.930128e+09 -1.486333e+08
3.584627e+10 -1.945282e+10 -9.832913e+07
-3.893412e+10 2.824900e+10 1.009090e+08
-2.680132e+10 3.988751e+10 1.945815e+08
-1.815244e+10 4.385122e+10 -2.113292e+08
3.357045e+10 2.949118e+10 1.224883e+09
2.897773e+10 3.818855e+10 6.186023e+08
3.446668e+10 -2.693382e+10 2.119974e+08
-4.065573e+10 -2.814469e+10 -3.344333e+08
2.343807e+10 4.118505e+10 4.190201e+08
-4.704758e+10 -6.607357e+09 7.572257e+08
-4.737550e+10 -4.805680e+07 3.527070e+08
3.599314e+10 -1.972446e+10 -1.210570e+09
-3.056378e+10 3.660282e+10 -1.159919e+08
-2.722486e+09 4.716133e+10 -7.938757e+08
-9.004277e+09 4.733933e+10 2.656751e+08
-1.392771e+10 5.037928e+10 1.026348e+09
-6.089076e+09 4.806482e+10 -6.743716e+08
-4.741624e+10 1.322463e+10 1.074390e+09
1.673929e+09 4.764715e+10 -3.913079e+08
-4.814736e+10 -4.435805e+09 -1.626064e+08
-4.595786e+10 -1.137072e+10 4.953751e+08
3.260179e+10 3.274093e+10 -4.078973e+08
3.660377e+10 -1.900542e+10 -5.658683e+08
-4.468567e+10 1.771443e+10 2.625584e+08
-1.870325e+10 4.508684e+10 2.410179e+08
-3.535652e+10 3.349835e+10 -1.942542e+08
-2.631278e+10 4.099787e+10 -9.707975e+08
-4.057702e+10 2.884564e+10 1.231313e+08
-4.956266e+10 5.598994e+09 -5.131672e+08
-4.312228e+10 -9.162849e+09 -6.147905e+08
-4.304944e+10 -1.141563e+10 5.446599e+08
-4.494616e+10 -7.422471e+09 5.707408e+08
-4.464076e+10 -6.177477e+09 -4.466978e+08
3.735564e+10 -1.896420e+10 7.853658e+08
-4.432850e+10 -2.486722e+09 -7.497346e+08
-4.431180e+10 -4.616066e+09 6.837359e+08
-4.477175e+10 -9.094514e+08 3.169246e+08
-4.437842e+10 1.002072e+09 -8.428075e+08
-3.926750e+10 2.097970e+10 9.222159e+08
-3.969927e+10 2.034535e+10 -6.434357e+08
-3.714991e+10 2.732767e+10 -1.038065e+08
-3.653273e+10 2.559547e+10 8.110107e+07
-3.977906e+10 2.276975e+10 -1.082365e+09
-3.734139e+10 2.452909e+10 2.493475e+08
3.724149e+10 -1.863843e+10 6.544995e+08
-4.407237e+10 1.119072e+10 -2.666716e+08
-4.378617e+10 9.995795e+09 9.597813e+08
-2.977009e+10 3.256122e+10 9.297189e+08
-3.140953e+10 3.150610e+10 -6.272796e+08
-1.440303e+09 4.499146e+10 -4.352654e+08
-3.997690e+09 4.484324e+10 1.224266e+08
-1.121162e+10 4.183704e+10 -8.419871e+08
-1.335306e+10 4.259955e+10 8.964514e+08
-3.477071e+10 2.994860e+10 -1.104720e+08
-3.257725e+10 3.061138e+10 -3.001495e+08
3.733432e+10 -1.812522e+10 4.879916e+08
-4.514166e+10 1.483239e+10 -6.630647e+08
-4.134225e+10 1.516374e+10 -7.914949e+08
-2.877019e+10 3.318318e+10 5.981043e+07
-2.747009e+10 3.530859e+10 -2.093969e+08
2.281307e+08 4.420272e+10 -9.124629e+07
2.768940e+09 4.529122e+10 -7.000596e+08
-4.414513e+10 8.587969e+09 8.104216e+08
-4.408370e+10 6.438895e+09 -2.571292e+08
-9.743555e+09 4.421179e+10 6.209421e+07
-7.612598e+09 4.367884e+10 -8.534657e+08
3.831105e+10 -1.884407e+10 1.320727e+08
-1.853380e+10 4.016828e+10 -1.143712e+09
-1.829352e+10 4.016176e+10 1.602175e+08
-2.659293e+10 3.649818e+10 4.078675e+08
-2.535352e+10 3.803122e+10 -7.760743e+07
-6.261344e+09 4.409953e+10 -7.019789e+08
-6.561690e+09 4.444032e+10 -3.584039e+08
-2.119682e+10 4.037976e+10 9.593215e+08
-2.277821e+10 3.809153e+10 -2.512961e+08
4.077184e+09 4.458094e+10 -8.927578e+08
6.004672e+09 4.422707e+10 2.488880e+08
4.134378e+10 -1.768535e+10 8.910187e+08
-1.618560e+10 4.368733e+10 5.098110e+08
-1.669927e+10 4.171441e+10 3.809959e+08
-4.535160e+10 3.527809e+09 1.367626e+09
-4.596663e+10 4.987342e+09 -3.835668e+08
-2.195517e+10 3.991743e+10 3.758644e+08
1.402392e+09 -4.282756e+10 -1.234624e+08
3.676875e+10 -2.122950e+10 -8.932614e+08
-3.714647e+10 -2.095923e+10 -2.778521e+08
3.971766e+10 1.676908e+10 7.996581e+07
-3.616787e+10 -2.926536e+10 4.126377e+08
3.926794e+10 -1.663271e+10 6.937613e+08
1.262655e+10 4.546167e+10 -1.121844e+09
1.360774e+10 4.376236e+10 -2.332952e+08
8.970813e+09 4.567563e+10 -9.637405e+08
9.686807e+09 4.381549e+10 -2.404545e+08
-4.157524e+10 1.794184e+10 -1.029192e+09
-4.111301e+10 1.831030e+10 1.138150e+09
4.069545e+10 -1.956470e+10 -6.429498e+08
-4.024295e+10 -2.009226e+10 -2.449519e+08
4.904069e+10 5.020739e+09 3.031490e+08
4.382195e+10 1.434843e+10 4.773063e+08
3.843546e+10 -1.585702e+10 1.906743e+08
4.122965e+10 2.111053e+10 8.662496e+08
2.308182e+10 -3.630615e+10 -1.226281e+08
2.821417e+10 3.214919e+10 -1.925824e+08
-4.244085e+10 -1.875646e+10 -7.559172e+08
4.274534e+10 -1.879632e+10 -7.468252e+08
1.315605e+09 -4.239931e+10 1.324803e+08
-2.024272e+09 -4.356569e+10 -6.961960e+06
4.216379e+10 -2.454676e+10 4.694545e+08
2.933509e+10 -3.581214e+10 3.064679e+08
-4.219159e+10 8.773777e+09 9.569115e+07
3.920053e+10 -1.714760e+10 -5.344460e+08
-2.876592e+10 3.168577e+10 5.103157e+08
-3.966315e+10 2.262766e+10 2.391093e+08
-4.230809e+10 1.323411e+10 -1.490300e+09
1.682870e+10 4.615936e+10 -4.806106e+08
1.310838e+10 4.574829e+10 -4.854018e+08
9.673863e+09 4.724748e+10 -5.127618e+08
4.904534e+10 -1.525277e+10 9.123841e+07
-4.640876e+10 -1.496102e+10 -2.252945e+08
3.524899e+09 4.259002e+10 -2.320708e+08
-4.177076e+10 -1.236703e+10 5.808747e+08
3.912548e+10 -1.402827e+10 2.781693e+08
4.260689e+10 -1.240239e+10 3.334471e+08
-4.377108e+10 2.666118e+10 -5.843775e+08
-4.896689e+10 9.018123e+09 -7.580972e+06
-3.716949e+10 3.091691e+10 1.085484e+09
-4.679214e+10 1.480607e+10 7.252711e+08
-2.448796e+10 4.439940e+10 8.058607e+08
-3.771007e+10 3.014497e+10 -1.249059e+09
5.098698e+09 4.942668e+10 -2.054232e+08
-4.107376e+10 2.304436e+10 -6.883583e+08
-1.623895e+10 4.539626e+10 -5.891026e+08
3.820580e+10 -1.451135e+10 -9.220324e+08
-3.328920e+10 3.638391e+10 -2.771512e+08
-2.893345e+10 4.054926e+10 -3.084185e+08
-2.093619e+10 4.394050e+10 1.145713e+09
-4.834713e+10 3.193421e+09 -1.292906e+08
1.692305e+10 3.929146e+10 -6.140362e+08
-4.141222e+10 2.283045e+10 -3.614652e+08
3.430522e+10 -3.373993e+10 -4.102453e+08
-4.357763e+10 -2.417214e+10 8.501387e+08
4.288266e+10 -2.399159e+10 -1.618969e+08
4.045952e+10 -1.635875e+10 -6.528816e+08
4.045631e+10 -1.427084e+10 -3.780299e+08
-4.043621e+10 -1.637178e+10 -6.612559e+08
-3.195393e+10 -3.060440e+10 -1.788916e+08
-2.996325e+10 -3.128812e+10 -2.246412e+08
3.418711e+10 -3.065801e+10 1.721812e+08
3.495806e+10 2.988016e+10 -7.093821e+08
-9.992046e+08 -4.693320e+10 -3.771230e+07
-6.029198e+09 -5.043245e+10 -2.144285e+09
2.517265e+10 3.678575e+10 2.565639e+08
1.656411e+10 -4.002209e+10 4.043843e+08
-1.618233e+10 -3.981455e+10 4.632376e+08
3.921553e+10 -1.308209e+10 9.552198e+08
-4.198989e+10 -2.094125e+10 -1.175925e+09
4.194711e+10 -2.085632e+10 -1.183323e+09
1.078625e+10 -4.527309e+10 2.055429e+08
-1.092080e+10 -4.566353e+10 -2.426973e+08
3.542105e+10 -2.626651e+10 -4.362788e+08
3.708722e+10 2.867721e+10 -3.860530e+08
4.792632e+10 -6.174791e+09 -1.784673e+08
4.431057e+10 6.207651e+09 -6.648487e+08
-8.663488e+09 -4.742928e+10 -1.562999e+08
-1.248241e+10 -4.497057e+10 -9.962036e+06
3.993263e+10 -1.178394e+10 1.950978e+09
1.312365e+10 -4.403496e+10 -2.001880e+08
7.063800e+09 -4.746468e+10 2.400840e+07
4.367782e+10 1.400380e+10 -1.092677e+09
4.412599e+10 2.562462e+09 -2.672114e+08
4.084238e+10 2.224408e+10 1.149354e+09
-3.719880e+10 -2.292126e+10 1.166781e+09
8.167015e+09 -4.776056e+10 7.789256e+06
2.225948e+10 -4.138825e+10 -5.450996e+07
-2.291413e+10 -4.099058e+10 -1.844756e+08
4.258115e+10 2.170194e+10 2.375701e+08
4.006017e+10 -1.178615e+10 1.713217e+08
-3.599010e+10 -3.457623e+10 -1.168049e+08
-1.611028e+10 -4.594659e+10 7.932057e+08
1.556033e+10 -4.589351e+10 -4.134712e+08
2.450680e+10 3.989187e+10 -3.779432e+08
3.877387e+10 1.937127e+10 -1.196793e+08
3.854875e+10 1.867081e+10 -2.805303e+08
4.041273e+10 1.466638e+10 -8.527454e+08
3.771583e+10 2.155066e+10 1.536855e+08
4.342228e+10 1.171686e+09 1.454429e+08
4.166032e+10 1.258717e+10 -1.365473e+08
4.061862e+10 -1.213613e+10 -3.183879e+08
4.212315e+10 6.761083e+09 4.767711e+08
4.680253e+10 -6.905694e+09 1.338792e+09
-3.969730e+10 1.521783e+10 -4.117581e+07
-4.016986e+10 1.756456e+10 -1.736853e+08
-2.959992e+10 2.987900e+10 -3.809448e+08
-2.265195e+10 3.595977e+10 8.239096e+08
-1.671412e+10 3.907311e+10 -3.225812e+07
-3.524473e+10 2.403041e+10 -2.304009e+08
-4.219962e+10 5.580124e+09 2.245309e+08
4.182028e+10 2.497164e+10 1.251385e+09
3.931809e+10 -1.092443e+10 -7.763169e+08
4.691816e+10 1.304551e+10 -1.125442e+09
4.833868e+10 8.633307e+09 1.364710e+09
4.451716e+10 2.032708e+10 -1.990659e+09
-3.629151e+10 -3.507919e+10 -1.993346e+08
4.369897e+10 2.115190e+10 1.276235e+09
4.823776e+10 -4.003327e+09 -7.880245e+08
-2.954262e+10 -3.562944e+10 -6.049072e+08
3.032282e+10 3.712043e+10 9.400866e+08
7.309477e+09 -4.245600e+10 6.140185e+07
4.035605e+10 -1.283404e+10 -2.616291e+08
4.001337e+10 -9.596057e+09 -5.761741e+08
-3.880151e+10 -2.048005e+10 -2.123934e+08
3.910205e+10 -2.036866e+10 -6.216497e+07
4.348065e+10 -7.903137e+09 8.096383e+08
-6.710906e+09 -4.303041e+10 8.971744e+08
1.861352e+10 3.904450e+10 2.268502e+07
1.358379e+10 4.101213e+10 7.987812e+08
-3.779507e+10 -1.950754e+10 5.843405e+08
-3.934887e+10 -1.507501e+10 -4.225025e+08
3.939492e+10 -1.516379e+10 -3.994897e+08
-4.205757e+10 4.319933e+09 -1.646075e+09
3.989581e+10 -1.032708e+10 2.071984e+08
-2.368898e+10 3.617936e+10 -1.281706e+09
-3.487376e+10 2.577607e+10 5.397052e+08
-1.583000e+10 3.962727e+10 1.243470e+09
-3.163018e+10 2.925776e+10 -1.104155e+09
-3.794097e+10 1.772499e+10 -3.162627e+08
1.356451e+10 4.192918e+10 -3.184595e+08
1.015996e+10 4.294854e+10 -3.797205e+08
6.356252e+09 4.331319e+10 2.216495e+08
9.235607e+09 4.073583e+10 -4.684494e+08
1.229491e+10 3.960889e+10 -4.231785e+08
4.092985e+10 -9.850933e+09 8.546550e+08
3.720949e+10 -2.378097e+10 -3.287651e+08
3.172700e+09 4.768725e+10 1.143992e+08
3.782803e+10 -1.957457e+10 9.647080e+08
4.551811e+10 -1.284967e+10 -8.365361e+08
-4.693440e+10 -1.268751e+10 2.046121e+08
-1.954671e+09 4.468937e+10 7.461857e+08
-9.876610e+09 4.253528e+10 -3.193731e+08
-2.650528e+10 3.484156e+10 1.130474e+08
-2.502352e+10 3.532336e+10 -1.683557e+07
-3.929606e+09 4.399613e+10 -2.841233e+08
4.058652e+10 -8.191678e+09 5.469038e+08
-1.368112e+10 4.227877e+10 -5.814467e+07
-1.458257e+10 4.042896e+10 -9.240055e+08
-4.635068e+10 -8.148813e+08 -5.150609e+07
-4.503935e+10 -2.468664e+09 -8.191716e+08
-4.359658e+10 -7.226118e+09 4.666272e+07
-4.370465e+10 -8.492574e+09 -1.081193e+09
-3.559552e+10 -3.133465e+10 1.137852e+09
-3.620726e+10 -3.129666e+10 -2.655434e+08
-4.191171e+10 2.428909e+10 -1.796676e+08
-2.201155e+10 4.280544e+10 9.531171e+07
4.017465e+10 -8.969425e+09 -3.122264e+08
-4.711479e+10 9.534500e+09 -1.645823e+08
-4.541342e+10 1.296517e+10 -8.696856e+08
-2.241187e+10 4.300910e+10 2.649267e+08
-3.151994e+10 3.550074e+10 -4.044362e+07
-1.417907e+10 -4.443765e+10 4.203949e+08
1.383128e+10 -4.491436e+10 7.075407e+08
2.634047e+10 -3.954372e+10 2.249886e+08
-5.992266e+09 -5.018682e+10 8.201862e+08
3.511882e+09 4.817938e+10 -8.348775e+08
-4.796254e+10 1.077934e+10 -5.739538e+07
4.108233e+10 -7.142238e+09 3.526495e+08
-5.159549e+08 4.796912e+10 1.090303e+09
-1.085553e+10 4.754736e+10 -9.630805e+08
-3.225252e+09 4.616600e+10 1.233274e+08
-1.483343e+10 4.731559e+10 -8.231181e+08
-2.976157e+10 3.813631e+10 5.614852e+08
-4.897006e+10 -7.866625e+08 -1.200696e+09
-4.762821e+10 -1.916529e+09 -1.308623e+08
-4.661331e+10 -8.738025e+09 -5.070895e+08
-4.808217e+10 -9.615078e+09 -1.427280e+08
-2.639310e+10 -4.002987e+10 -5.896249e+08
4.218800e+10 -8.366349e+09 4.393509e+08
-2.195313e+10 -3.580958e+10 -8.589156e+07
3.722364e+10 -2.351565e+10 -7.073346e+08
1.450925e+10 4.020236e+10 2.828986e+08
-3.974594e+10 -1.720948e+10 -1.185334e+08
3.975813e+10 -1.720612e+10 -1.275879e+08
-4.356916e+10 1.800376e+10 7.663712e+07
1.996855e+10 3.919374e+10 2.494832e+08
3.907933e+10 1.652202e+10 6.935699e+08
-1.812651e+10 -4.459668e+10 -4.440536e+08
1.802817e+10 -4.452484e+10 6.172867e+07
4.125846e+10 -6.373676e+09 -5.052065e+08
1.806106e+10 -4.172783e+10 1.192190e+09
-1.842397e+10 -4.113483e+10 9.885263e+08
-3.546619e+10 -2.562179e+10 -4.265397e+08
1.558110e+10 -4.161227e+10 1.195031e+08
-1.534867e+10 -4.118356e+10 5.223015e+07
-3.599907e+09 -4.830546e+10 4.769757e+08
-3.317036e+10 2.805163e+10 2.380342e+08
-4.411450e+10 2.996838e+09 1.544287e+08
-3.484703e+10 -2.407411e+10 -6.610223e+08
-2.672850e+09 4.318131e+10 2.362240e+08
4.032908e+10 -6.173008e+09 1.042955e+08
-1.091179e+10 4.223104e+10 1.518519e+08
5.425408e+08 4.306602e+10 3.057703e+08
4.604334e+10 1.233872e+10 5.334408e+08
4.649485e+10 8.525734e+09 -4.096354e+08
4.734127e+10 -1.334577e+09 -6.504334e+08
4.680265e+10 8.497349e+08 5.253228e+08
4.092779e+10 2.491180e+10 -5.551731e+08
3.787772e+10 2.718889e+10 9.871405e+08
-8.111505e+09 -4.641832e+10 -2.620257e+08
-3.301466e+10 2.661092e+10 -9.900131e+08
4.063870e+10 -6.016041e+09 -1.595516e+08
3.248401e+10 -3.438749e+10 4.359345e+08
1.238130e+10 -4.264545e+10 -1.397914e+08
-1.233159e+10 -4.111471e+10 1.494131e+08
2.777750e+10 3.354953e+10 -3.654302e+08
4.705188e+10 3.210202e+09 3.964654e+07
-2.826647e+10 -3.272337e+10 -6.851299e+08
2.603788e+10 3.934390e+10 2.236538e+08
2.639767e+10 3.966424e+10 -1.075365e+08
4.223137e+10 -4.834444e+09 -4.981559e+06
2.318144e+10 -4.179747e+10 -1.259920e+09
4.113558e+10 -5.187057e+09 -1.079068e+09
-2.423460e+10 -4.129980e+10 5.169733e+08
-3.880873e+10 -2.775085e+10 1.174045e+09
3.291134e+10 3.379758e+10 -9.005777e+08
8.683307e+09 -4.677742e+10 -2.560584e+08
2.180956e+10 -3.722485e+10 -1.504207e+08
-2.093311e+10 -3.769273e+10 -4.808436e+08
2.795151e+10 3.448965e+10 -6.661978e+08
2.180689e+09 4.384803e+10 -6.646436e+08
-4.255619e+10 9.570883e+09 1.589499e+09
2.265679e+10 3.583246e+10 -8.140387e+08
4.203820e+10 -3.544799e+09 -5.325636e+08
4.371492e+10 -8.612903e+09 3.602351e+08
4.458616e+10 -1.826089e+10 5.484807e+08
-4.460627e+10 -1.829565e+10 5.270784e+08
3.309734e+09 -4.317868e+10 -8.885363e+08
-4.857242e+09 -4.637561e+10 1.552764e+09
4.718712e+10 -2.963484e+09 -5.632981e+06
3.756442e+10 2.722197e+10 4.616504e+07
2.070649e+10 4.359240e+10 -1.116088e+08
3.461961e+10 3.318355e+10 -2.321553e+08
3.762652e+10 -2.789192e+10 -1.516090e+09
4.265009e+10 -5.217114e+09 -1.166049e+09
3.779702e+10 2.187131e+10 2.247424e+08
4.182517e+10 1.348998e+10 8.336376e+08
4.303506e+10 6.912836e+09 1.238859e+08
-1.801604e+10 4.362699e+10 -9.499136e+08
-3.414972e+10 3.221290e+10 1.009030e+09
-2.464570e+10 3.775921e+10 1.388741e+08
-3.766788e+10 2.666053e+10 -1.301125e+09
-4.558567e+10 5.175185e+09 1.074212e+09
-1.301081e+10 -4.151806e+10 -4.380986e+08
1.263827e+10 -4.093718e+10 -1.792684e+08
4.130611e+10 -2.549659e+09 -4.714427e+08
-1.209550e+10 -4.506381e+10 4.572674e+08
1.248192e+10 -4.535570e+10 4.931794e+08
7.450496e+09 -4.559991e+10 -2.460635e+08
2.632340e+10 -3.640496e+10 4.060859e+08
2.204942e+10 4.345191e+10 -1.650537e+08
-7.325551e+09 -4.533235e+10 3.375816e+07
-4.164522e+10 -2.652586e+10 -9.295297e+08
2.852817e+10 -3.803988e+10 7.064649e+08
2.695164e+10 -3.909291e+10 6.168422e+08
2.854562e+10 -3.101750e+10 3.997478e+08
4.173006e+10 -3.259424e+09 -1.013655e+09
3.898403e+10 -3.063998e+10 1.689351e+08
-1.050554e+10 -4.701354e+10 4.446174e+08
9.564064e+09 -4.646157e+10 7.838388e+08
3.384711e+10 -2.581793e+10 3.743168e+07
-3.847595e+10 -2.827548e+10 2.374194e+08
4.112074e+10 -2.427236e+10 1.792871e+08
-2.777292e+10 -3.137314e+10 6.410041e+08
4.302564e+10 3.553040e+09 -9.871742e+08
2.259346e+10 4.015465e+10 -4.125101e+08
1.981898e+10 -3.883936e+10 -2.539004e+08
4.254661e+10 -2.310088e+09 2.870957e+08
-1.921005e+10 -3.878582e+10 6.738729e+08
1.982890e+10 3.795094e+10 -6.190375e+08
4.708496e+10 -6.077937e+09 8.503394e+08
4.359483e+10 1.617243e+10 -4.465220e+07
-4.297830e+09 -4.786655e+10 1.221056e+08
2.567500e+10 3.548012e+10 2.025850e+08
-1.306228e+10 -4.067568e+10 -2.716149e+08
1.376239e+10 -3.931775e+10 -3.664948e+08
-3.339256e+10 -2.553351e+10 -9.111306e+08
3.671967e+10 3.122079e+10 -7.716632e+07
4.130269e+10 -1.779277e+09 6.004767e+08
3.398836e+10 -3.150401e+10 -9.786826e+08
-3.784500e+10 1.948754e+10 -1.143608e+09
-3.840157e+10 -2.374522e+10 -4.058885e+08
1.363380e+10 4.532149e+10 8.179364e+08
9.678064e+09 4.598986e+10 8.558700e+08
-4.358994e+10 2.047622e+10 -6.453965e+08
4.674569e+09 -4.674008e+10 -9.077516e+08
5.759429e+09 4.708977e+10 1.713977e+09
-2.435144e+10 -3.610379e+10 5.496520e+08
2.502222e+10 3.519624e+10 1.004318e+09
4.163817e+10 -1.044380e+09 -1.067487e+09
1.079144e+10 4.502190e+10 -8.702446e+07
7.122496e+09 4.650692e+10 -2.289700e+08
3.363200e+09 -4.173629e+10 1.725706e+09
-3.314880e+10 -2.676196e+10 -1.510985e+08
-1.543062e+10 -3.972474e+10 2.167686e+08
1.608648e+10 -3.966458e+10 -2.502214e+08
4.685621e+10 1.603477e+09 2.293342e+08
1.551850e+10 4.432032e+10 2.469617e+08
3.146321e+10 -2.648574e+10 1.929920e+08
-4.550809e+10 -1.690421e+10 3.704864e+08
4.155431e+10 -7.277670e+07 -5.110780e+08
4.537876e+10 -1.698688e+10 5.312624e+08
-3.451282e+10 3.380163e+10 3.434659e+08
-4.343094e+10 1.498227e+10 3.013635e+07
-4.707106e+10 7.498095e+09 1.616230e+08
-1.896201e+10 4.337650e+10 -2.083283e+08
-2.393637e+10 4.097557e+10 1.935375e+08
-4.011170e+10 2.582748e+10 -1.632477e+08
1.669659e+10 4.399756e+10 4.182693e+08
-6.535578e+09 4.234275e+10 -1.282198e+07
-4.229606e+10 -5.636001e+09 -3.946161e+08
4.115821e+10 -2.360886e+08 -8.599523e+08
4.433293e+10 -1.221422e+10 -1.652461e+08
2.103701e+10 3.690035e+10 8.365019e+08
-2.075633e+10 -4.450035e+10 3.480205e+08
2.034088e+10 -4.523669e+10 -1.243597e+09
-2.082333e+10 -3.613687e+10 -2.160445e+09
2.981643e+10 3.146813e+10 -6.695079e+08
3.939435e+10 -1.293281e+10 -1.635319e+09
1.826057e+10 4.329131e+10 -9.337193e+08
1.579956e+10 4.595822e+10 -1.105651e+09
3.617082e+10 -2.181109e+10 -1.552305e+08
4.389042e+10 3.110839e+07 -3.354945e+08
4.295244e+10 -1.689009e+10 4.262942e+08
-4.294458e+10 -1.688139e+10 4.207567e+08
1.236695e+10 4.568922e+10 6.840519e+08
8.893272e+09 4.683687e+10 5.519465e+08
-3.742577e+10 -2.310238e+10 4.830433e+08
-1.026945e+10 -4.118331e+10 1.680158e+09
9.271003e+09 -4.200119e+10 1.013743e+09
-4.062708e+10 -1.938198e+10 -4.386816e+08
4.049232e+10 -1.925587e+10 -4.819064e+08
1.433760e+10 -4.122028e+10 5.319124e+07
4.121219e+10 1.098483e+09 4.756392e+08
-1.364598e+10 -4.021836e+10 -6.781475e+08
-3.643738e+09 -4.617199e+10 1.461638e+09
5.440140e+09 -4.082140e+10 -4.404254e+07
3.901444e+09 -4.663785e+10 4.315073e+06
2.493012e+10 -3.595990e+10 6.152104e+08
4.243486e+10 2.192342e+10 -1.334278e+08
4.472677e+10 1.584389e+10 1.777916e+08
1.768704e+09 4.887880e+10 9.879089e+06
-4.299209e+10 1.203815e+10 4.817562e+08
-1.184130e+10 4.443034e+10 8.275513e+08
4.147967e+10 1.466492e+09 -8.874165e+08
-3.039509e+10 3.719149e+10 -6.887176e+07
-7.899843e+09 4.580895e+10 8.304584e+07
-6.287017e+09 5.036702e+10 5.575521e+07
-2.903755e+09 4.797458e+10 -7.723082e+08
-4.639385e+10 1.129265e+09 6.151467e+08
-4.771236e+10 -5.630804e+09 8.690628e+08
-4.662335e+10 -4.988956e+09 -1.213233e+08
-4.492216e+10 -1.206859e+10 -2.339174e+08
3.086332e+10 -2.879292e+10 -1.843977e+08
-2.881055e+10 -3.642339e+10 -1.194528e+09
4.330271e+10 2.086026e+09 -5.287367e+07
3.272557e+10 2.722862e+10 -1.889031e+08
-4.184725e+09 -4.828824e+10 -4.897730e+08
-4.220134e+10 2.239222e+10 -1.061196e+09
4.297148e+10 1.899464e+09 8.351278e+08
-2.809385e+10 -3.146794e+10 3.592963e+08
-4.295237e+10 -1.953718e+10 1.807231e+07
4.311982e+10 -1.954059e+10 -5.129853e+08
-1.994957e+10 -3.699447e+10 1.064883e+09
2.030520e+10 -3.739044e+10 1.151865e+09
-2.929069e+09 -4.403548e+10 -1.751743e+09
4.223712e+10 2.759284e+09 3.890292e+07
2.736385e+09 -4.255051e+10 -7.860783e+08
4.756038e+10 4.274376e+09 5.782977e+08
1.718250e+10 -4.351257e+10 1.919961e+09
-1.841667e+10 -4.510983e+10 1.567707e+09
-2.655041e+10 -3.930599e+10 2.659017e+08
3.808959e+10 3.319238e+10 9.128956e+08
2.309961e+10 4.144924e+10 -3.688497e+08