# vtk DataFile Version 2.0
Electric current density generated by TTH
ASCII
DATASET UNSTRUCTURED_GRID
POINTS 5942 double
3.648141e-05 -8.935368e-21 -1.905280e-22
3.621655e-05 4.388017e-06 -1.905280e-22
8.830920e-06 3.539644e-05 -1.905280e-22
-3.494345e-05 -1.977010e-06 -3.305134e-07
-3.438693e-05 -6.446176e-06 -3.002595e-07
-3.377750e-05 -9.167003e-06 -3.305134e-07
-3.466183e-05 -4.750995e-06 -3.002595e-07
-8.998943e-06 -3.380877e-05 -3.002595e-07
-3.497537e-05 8.586628e-07 -3.002595e-07
3.237786e-06 -3.483577e-05 -3.002595e-07
8.772270e-06 -3.386832e-05 -3.003165e-07
-2.591077e-05 2.447409e-05 -7.754502e-07
-1.300797e-05 -3.241471e-05 5.187800e-08
8.355936e-06 3.551157e-05 -1.905280e-22
-3.236600e-05 -1.312869e-05 5.187800e-08
-2.381857e-05 -2.554596e-05 5.187800e-08
-2.923015e-05 -1.911855e-05 5.187800e-08
-2.037271e-05 -2.837029e-05 5.187800e-08
-3.742769e-06 -3.472625e-05 5.187800e-08
7.934194e-06 -3.497258e-05 7.617205e-07
8.955543e-06 -3.468538e-05 7.686809e-07
6.142005e-06 -3.533142e-05 7.617182e-07
5.096689e-06 -3.542955e-05 7.725781e-07
2.233716e-06 -3.579168e-05 7.617172e-07
7.879453e-06 3.562032e-05 -1.905280e-22
3.287962e-06 -3.567177e-05 7.686618e-07
4.072122e-07 -3.585900e-05 7.617172e-07
-6.530006e-07 -3.581703e-05 7.686618e-07
-1.720370e-05 -3.146532e-05 7.617172e-07
-1.633103e-05 -3.184037e-05 7.736902e-07
-2.201858e-05 -2.830575e-05 7.617172e-07
-2.120762e-05 -2.881219e-05 7.745268e-07
-1.879393e-05 -3.051019e-05 7.668497e-07
-1.954531e-05 -2.995381e-05 7.753270e-07
-9.191505e-06 -3.466338e-05 7.617172e-07
7.401555e-06 3.572268e-05 -1.905280e-22
-8.209547e-06 -3.486031e-05 7.700133e-07
-2.626562e-05 -2.441620e-05 7.617172e-07
-2.555617e-05 -2.504752e-05 7.737127e-07
-3.584967e-05 -9.138719e-07 7.617172e-07
-3.576867e-05 -1.971819e-06 7.686618e-07
-3.459411e-05 -9.448879e-06 7.617172e-07
-3.427156e-05 -1.039703e-05 7.700133e-07
-2.343330e-05 -2.713787e-05 7.629905e-07
-2.408323e-05 -2.642405e-05 7.763535e-07
-1.096383e-05 -3.411565e-05 7.668497e-07
6.922329e-06 3.581863e-05 -1.905280e-22
-1.183447e-05 -3.375247e-05 7.752885e-07
-2.747553e-05 -2.304624e-05 7.617172e-07
-2.807095e-05 -2.224095e-05 7.700133e-07
-3.584967e-05 9.138719e-07 7.617172e-07
-3.576288e-05 1.911615e-06 7.700133e-07
-6.378518e-06 -3.528949e-05 7.617172e-07
-5.415415e-06 -3.535425e-05 7.753270e-07
-3.503060e-05 -7.674021e-06 7.617172e-07
-3.520460e-05 -6.627342e-06 7.686618e-07
-3.218432e-05 -1.581782e-05 7.617172e-07
6.441861e-06 3.590815e-05 -1.905280e-22
-3.252075e-05 -1.492972e-05 7.737127e-07
-2.923732e-05 -2.076567e-05 7.617172e-07
-2.970798e-05 -1.993343e-05 7.745268e-07
-3.553368e-05 -4.836447e-06 7.617172e-07
-3.560917e-05 -3.804049e-06 7.703181e-07
-3.129930e-05 -1.744812e-05 7.668497e-07
-3.077616e-05 -1.822301e-05 7.753270e-07
-3.566053e-05 3.789483e-06 7.617172e-07
-3.545726e-05 4.749562e-06 7.746941e-07
-3.372371e-05 -1.219612e-05 7.617172e-07
5.960236e-06 3.599123e-05 -1.905280e-22
-3.328071e-05 -1.306241e-05 7.763535e-07
-2.473414e-06 -3.577591e-05 7.617172e-07
-3.415430e-06 -3.561236e-05 7.745268e-07
-3.189847e-05 -1.669970e-05 -7.169024e-07
3.587508e-05 1.881054e-06 7.458818e-07
1.787438e-05 3.128111e-05 7.070814e-07
1.796024e-05 -3.120979e-05 -7.155547e-07
-1.375802e-05 3.329363e-05 -7.086752e-07
2.134014e-05 -2.769934e-05 2.487883e-07
-3.459774e-05 9.504175e-06 7.577401e-07
5.477542e-06 3.606785e-05 -1.905280e-22
-3.418021e-05 1.038122e-05 7.776715e-07
-3.524917e-05 6.695449e-06 7.577401e-07
-3.493512e-05 7.637788e-06 7.758152e-07
-1.370775e-05 -3.315766e-05 7.577401e-07
-1.456678e-05 -3.265895e-05 7.758152e-07
1.592849e-05 3.212497e-05 7.625800e-07
1.592849e-05 -3.212497e-05 -7.625800e-07
-4.563914e-06 3.471428e-05 -3.581958e-07
-1.088681e-05 3.327199e-05 -3.480400e-07
-1.660686e-05 3.081836e-05 -3.483414e-07
4.993864e-06 3.613799e-05 -1.905280e-22
3.036464e-05 1.937516e-05 7.107973e-07
-2.741483e-05 2.339715e-05 7.005628e-07
1.518293e-05 -3.264947e-05 -7.162162e-07
1.518293e-05 3.264947e-05 7.162162e-07
3.614746e-05 9.801581e-07 6.293258e-07
3.614746e-05 -9.801581e-07 -6.293258e-07
1.791205e-05 2.998589e-05 -6.598646e-08
2.751521e-05 2.193914e-05 5.852571e-07
-7.311811e-06 -3.528954e-05 -7.017965e-07
-2.701254e-05 -2.385659e-05 -7.017965e-07
4.509291e-06 3.620165e-05 -1.905280e-22
-1.808918e-05 -3.117044e-05 -7.017965e-07
-1.012179e-05 -3.458849e-05 -7.017965e-07
-3.291196e-05 1.171007e-05 -1.076976e-07
-3.375518e-05 8.999037e-06 -1.148218e-07
-3.436877e-05 6.259596e-06 -1.148218e-07
1.012493e-05 3.342947e-05 -7.362761e-08
1.012493e-05 -3.342947e-05 7.362761e-08
-3.592363e-05 2.893845e-06 -7.013507e-07
9.890129e-06 -3.465641e-05 -7.013496e-07
9.890129e-06 3.465641e-05 7.013496e-07
3.615451e-05 4.872801e-06 -1.905280e-22
4.023907e-06 3.625881e-05 -1.905280e-22
-1.801571e-05 -2.992455e-05 7.372196e-08
-6.535581e-06 -3.431225e-05 7.372196e-08
-2.257349e-05 -2.665486e-05 7.372196e-08
-1.034798e-05 -3.336111e-05 7.372196e-08
-3.068034e-05 -1.669612e-05 7.372196e-08
-2.169120e-05 -2.737807e-05 7.710908e-08
-3.476673e-05 3.364277e-06 7.372196e-08
-1.704388e-05 -3.048852e-05 7.372196e-08
-3.295732e-05 -1.156976e-05 7.372196e-08
-2.580532e-05 -2.353996e-05 7.372196e-08
3.537802e-06 3.630946e-05 -1.905280e-22
-2.828591e-05 -2.049271e-05 7.372196e-08
-3.120149e-05 -1.570067e-05 7.372196e-08
-2.081418e-06 -3.486706e-05 7.372196e-08
-3.302748e-05 1.404574e-05 -7.551872e-07
-1.566287e-05 -3.122640e-05 -1.165942e-07
2.462260e-05 2.484228e-05 -2.787788e-07
1.708527e-05 -3.052694e-05 2.928689e-07
1.714573e-05 3.048878e-05 -2.835783e-07
1.339577e-05 3.331233e-05 -7.513858e-07
1.339577e-05 -3.331233e-05 7.513858e-07
3.051062e-06 3.635360e-05 -1.905280e-22
2.531826e-05 -2.547785e-05 7.476070e-07
2.606122e-05 -2.471708e-05 7.476634e-07
2.372192e-05 2.626532e-05 -7.128058e-07
-2.276815e-05 2.709382e-05 -7.119822e-07
3.495025e-05 -9.698778e-07 2.403811e-07
3.469389e-05 -4.667902e-06 3.453722e-07
-3.008533e-05 1.965211e-05 -7.426138e-07
3.330158e-05 1.362760e-05 7.263209e-07
3.330158e-05 -1.362760e-05 -7.263209e-07
1.445438e-05 -3.290634e-05 7.407496e-07
2.563774e-06 3.639121e-05 -1.905280e-22
1.445438e-05 3.290634e-05 -7.407496e-07
3.442783e-05 7.892591e-06 -6.773082e-07
3.442783e-05 -7.892591e-06 6.773082e-07
2.140010e-05 2.886166e-05 7.442108e-07
-2.129191e-05 2.774455e-05 -2.670938e-07
4.125608e-06 3.483986e-05 -4.694843e-07
-5.061594e-06 3.568386e-05 7.008409e-07
3.434436e-05 -6.350521e-06 -3.786809e-08
3.475512e-05 -9.178306e-06 -7.389270e-07
3.475512e-05 9.178306e-06 7.389270e-07
2.076026e-06 3.642229e-05 -1.905280e-22
3.460636e-05 4.800871e-06 1.369399e-07
-1.079766e-05 3.420881e-05 7.593257e-07
-2.274283e-06 3.578780e-05 7.619897e-07
-1.734831e-05 3.139842e-05 7.593492e-07
1.926740e-05 -3.034061e-05 7.406180e-07
3.434427e-05 6.349103e-06 3.010729e-08
3.062184e-05 1.679591e-05 2.102986e-09
3.062184e-05 -1.679591e-05 -2.102986e-09
-1.481562e-05 3.163014e-05 6.124896e-08
2.396002e-05 -2.541416e-05 -6.010941e-08
1.587906e-06 3.644683e-05 -1.905280e-22
3.292024e-05 -1.187227e-05 -3.224713e-07
3.292024e-05 1.187227e-05 3.224713e-07
-2.963623e-05 1.883020e-05 5.056922e-07
-1.572360e-05 3.238772e-05 -7.180443e-07
-1.592197e-05 3.233742e-05 6.990957e-07
-1.247321e-05 3.382614e-05 6.951731e-07
-1.832760e-05 3.102070e-05 -7.059089e-07
-1.293969e-06 3.603669e-05 -6.914428e-07
-9.849037e-06 3.465812e-05 -7.058833e-07
-6.163917e-06 3.549922e-05 -7.058833e-07
1.099500e-06 3.646483e-05 -1.905280e-22
6.204986e-06 3.446436e-05 3.685639e-07
-1.265003e-05 -3.374669e-05 -7.014781e-07
-1.391149e-05 -3.318856e-05 -7.246889e-07
-2.517447e-05 -2.582067e-05 -6.904117e-07
-3.061242e-05 -1.906150e-05 -6.904117e-07
-3.310668e-05 -1.429716e-05 -6.904117e-07
-2.037589e-05 -2.975373e-05 -6.904117e-07
-4.663120e-06 -3.575915e-05 -6.904117e-07
-1.730772e-05 3.039564e-05 -2.802834e-07
-1.009893e-05 3.348835e-05 -2.805105e-07
6.108975e-07 3.647629e-05 -1.905280e-22
-5.431228e-06 3.455372e-05 -2.805105e-07
-1.405396e-05 3.205939e-05 -3.413853e-07
2.454675e-05 -2.495349e-05 3.385025e-07
-1.542015e-05 3.156127e-05 -5.220677e-07
3.431283e-06 3.475889e-05 -5.858007e-08
2.776113e-05 -2.184504e-05 -6.798248e-07
-2.719007e-05 2.196418e-05 -2.052114e-07
3.552816e-05 5.777632e-06 7.212654e-07
9.370485e-06 3.477785e-05 -7.114326e-07
1.702285e-05 -3.171176e-05 -7.224794e-07
1.221850e-07 3.648120e-05 -1.905280e-22
1.702285e-05 3.171176e-05 7.224794e-07
6.357120e-06 3.537323e-05 7.410940e-07
3.551792e-05 -5.758817e-06 -7.264285e-07
-3.264109e-05 1.520202e-05 7.160214e-07
-3.377685e-05 1.248090e-05 -7.153924e-07
1.705390e-05 -3.179346e-05 6.815292e-07
1.235977e-05 -3.384291e-05 -7.064080e-07
1.235977e-05 3.384291e-05 7.064080e-07
-3.497568e-06 -3.589653e-05 -6.879975e-07
-2.997982e-05 -2.005004e-05 -6.879975e-07
-3.665494e-07 3.647957e-05 -1.905280e-22
-2.133637e-05 -2.907040e-05 -6.913613e-07
-3.355865e-05 -1.321405e-05 -6.879975e-07
-2.432410e-05 -2.662953e-05 -6.879975e-07
-1.529703e-05 -3.260389e-05 -7.132125e-07
-3.409302e-05 1.111009e-05 -7.624749e-07
-3.487506e-05 8.336797e-06 -7.624632e-07
-3.551243e-05 5.438582e-06 -7.452572e-07
-3.533770e-05 6.952239e-06 -7.127648e-07
-3.466537e-05 9.767245e-06 -7.127647e-07
1.931348e-05 3.039920e-05 -7.125518e-07
3.608599e-05 5.356711e-06 -1.905280e-22
-8.552181e-07 3.647138e-05 -1.905280e-22
-3.479024e-05 4.076766e-06 -3.862253e-07
1.705483e-05 3.179520e-05 -6.804433e-07
1.082923e-05 3.331121e-05 3.844260e-07
1.082923e-05 -3.331121e-05 -3.844260e-07
-3.592563e-05 -5.999262e-07 -7.439946e-07
-3.502939e-05 -7.997024e-06 -7.439946e-07
-2.843510e-05 -2.202559e-05 -7.316249e-07
-2.891211e-05 -2.141770e-05 -7.267384e-07
-3.576146e-05 -3.482651e-06 -7.439946e-07
-3.430206e-05 -1.081899e-05 -7.316249e-07
-1.343733e-06 3.645665e-05 -1.905280e-22
-3.407426e-05 -1.155736e-05 -7.267384e-07
7.237429e-07 -3.592335e-05 -7.439946e-07
1.922781e-06 -3.587915e-05 -7.439946e-07
6.464724e-06 -3.534428e-05 -7.439936e-07
7.641226e-06 -3.510874e-05 -7.439892e-07
2.363441e-05 -2.596851e-05 5.067960e-07
2.299573e-05 -2.648790e-05 4.613923e-07
[...]
POINT_DATA 5942
VECTORS 10.000GHz_fone_imag double
2.083232e-06 1.156883e-06 1.963579e-02
-4.574374e-05 7.190755e-05 1.945312e-02
3.693823e-05 5.765681e-04 1.940249e-02
-9.777386e-03 -8.786861e-04 -2.081708e-02
-8.550878e-03 -1.566737e-03 -2.153883e-02
-9.374409e-03 -2.435293e-03 -2.129913e-02
-9.320855e-03 -1.623765e-03 -2.121312e-02
-2.161876e-03 -8.211649e-03 -2.153072e-02
-8.939557e-03 6.689252e-05 -2.118193e-02
8.492046e-04 -8.669002e-03 -2.150970e-02
2.452734e-03 -8.517750e-03 -2.137223e-02
-1.541571e-02 1.480195e-02 -2.065599e-03
1.803381e-04 1.176767e-03 -2.301016e-02
-3.611950e-04 3.063015e-04 1.943120e-02
9.397753e-04 4.738141e-04 -2.313846e-02
7.665002e-04 7.163348e-04 -2.314845e-02
1.028972e-03 4.539183e-04 -2.309832e-02
5.964401e-04 1.139973e-03 -2.316895e-02
3.932286e-04 1.184078e-03 -2.317770e-02
-4.585758e-03 2.011036e-02 3.551964e-03
-5.316433e-03 2.027159e-02 2.081333e-03
-3.590641e-03 2.047212e-02 3.643533e-03
-2.744828e-03 2.089588e-02 1.217115e-03
-1.379162e-03 2.062295e-02 3.526994e-03
-2.601692e-04 -3.633586e-04 1.941415e-02
-2.033688e-03 2.086233e-02 2.226670e-03
3.525973e-05 2.066318e-02 3.542272e-03
3.641883e-04 2.096904e-02 2.075569e-03
9.768070e-03 1.808166e-02 4.034789e-03
9.670692e-03 1.881397e-02 1.216137e-03
1.282201e-02 1.655684e-02 3.571046e-03
1.251221e-02 1.710474e-02 5.117481e-04
1.077188e-02 1.801201e-02 3.306526e-03
1.161050e-02 1.773429e-02 7.835127e-04
5.308030e-03 2.014438e-02 3.446208e-03
2.936567e-05 -2.584202e-04 1.939217e-02
4.757042e-03 2.042754e-02 2.111108e-03
1.508599e-02 1.391665e-02 4.226766e-03
1.497816e-02 1.491102e-02 1.271053e-03
2.057346e-02 4.784664e-04 3.709113e-03
2.096952e-02 1.354479e-03 2.182559e-03
1.992130e-02 5.505120e-03 3.491370e-03
2.000819e-02 6.109868e-03 2.063666e-03
1.339120e-02 1.588470e-02 3.791746e-03
1.443964e-02 1.547136e-02 1.093914e-04
6.168335e-03 2.007670e-02 3.221901e-03
-6.606474e-06 -3.668526e-06 1.938835e-02
6.957164e-03 1.991941e-02 6.565193e-04
1.573305e-02 1.327649e-02 3.870807e-03
1.637949e-02 1.305481e-02 2.247970e-03
2.061486e-02 -4.310943e-04 3.872214e-03
2.094245e-02 -1.153812e-03 1.996838e-03
3.884591e-03 2.052180e-02 3.651781e-03
3.148305e-03 2.095796e-02 7.681722e-04
2.032797e-02 4.496749e-03 3.516363e-03
2.061523e-02 3.845045e-03 2.183782e-03
1.833938e-02 9.207060e-03 4.077567e-03
-1.700350e-04 -2.305356e-04 1.955518e-02
1.921453e-02 8.765883e-03 1.229659e-03
1.698246e-02 1.223590e-02 3.425679e-03
1.778902e-02 1.153573e-02 3.855905e-04
2.045977e-02 2.877006e-03 3.970826e-03
2.086688e-02 2.607106e-03 1.625054e-03
1.849309e-02 9.986549e-03 3.252989e-03
1.820695e-02 1.081312e-02 7.565390e-04
2.078714e-02 -2.020160e-03 3.619944e-03
2.098205e-02 -2.829133e-03 9.682916e-04
1.973228e-02 7.017740e-03 3.506539e-03
1.002240e-04 -3.785339e-04 1.947038e-02
1.964641e-02 7.958266e-03 1.586600e-04
1.369877e-03 2.083905e-02 3.468425e-03
2.090413e-03 2.122738e-02 6.006348e-04
-1.692131e-02 -8.854900e-03 7.591013e-03
-1.982394e-02 -1.197688e-03 5.609818e-03
-9.298882e-03 -1.616741e-02 8.025329e-03
9.459321e-03 -1.662188e-02 7.364131e-03
-7.245222e-03 1.738841e-02 7.816212e-03
-4.411382e-03 5.414767e-03 -2.173609e-02
1.978967e-02 -5.574953e-03 4.706742e-03
-4.333930e-06 -1.494850e-04 1.936860e-02
2.051390e-02 -6.302835e-03 -4.385637e-04
2.008723e-02 -3.931091e-03 4.795712e-03
2.081360e-02 -4.400638e-03 6.033795e-04
7.876439e-03 1.887302e-02 4.542084e-03
8.565828e-03 1.935500e-02 1.046155e-03
-9.309542e-03 -1.857149e-02 3.709590e-03
9.254982e-03 -1.856348e-02 3.806486e-03
-1.230426e-03 1.060503e-02 -2.029082e-02
-3.129335e-03 9.333967e-03 -2.028215e-02
-4.669485e-03 8.861693e-03 -2.021722e-02
1.450594e-04 -2.020545e-04 1.965370e-02
-1.617292e-02 -1.028062e-02 7.541742e-03
1.422127e-02 -1.210104e-02 8.311481e-03
8.323008e-03 -1.742039e-02 7.487621e-03
-8.341184e-03 -1.748407e-02 7.474534e-03
-1.661818e-02 -4.281510e-04 1.116952e-02
1.685428e-02 -1.588540e-04 1.126435e-02
1.234601e-03 1.806084e-03 -2.320085e-02
-1.313171e-02 -1.030342e-02 -1.480818e-02
-3.671003e-03 -1.834133e-02 8.327440e-03
-1.405256e-02 -1.235462e-02 8.176503e-03
2.293362e-04 3.324734e-05 1.939244e-02
-9.543350e-03 -1.628063e-02 8.172140e-03
-5.333748e-03 -1.797943e-02 8.364788e-03
-2.955897e-03 1.100420e-03 -2.306968e-02
-3.271445e-03 1.119350e-03 -2.283046e-02
-3.362971e-03 8.400477e-04 -2.288444e-02
5.463306e-04 1.949295e-03 -2.325510e-02
-5.583367e-04 1.893892e-03 -2.310710e-02
-1.860490e-02 1.640515e-03 8.305089e-03
5.147355e-03 -1.813650e-02 8.161006e-03
-4.999529e-03 -1.817483e-02 8.356853e-03
-3.400267e-04 -2.702464e-04 1.936336e-02
-1.790786e-04 1.015326e-04 1.952700e-02
8.470318e-04 1.690619e-03 -2.320671e-02
3.673306e-04 1.766611e-03 -2.315617e-02
1.268975e-03 1.709547e-03 -2.297131e-02
4.179303e-04 1.890444e-03 -2.310496e-02
1.690536e-03 8.013545e-04 -2.322799e-02
1.533478e-03 1.753911e-03 -2.295991e-02
1.791296e-03 -1.871048e-04 -2.313732e-02
1.183957e-03 1.864576e-03 -2.291541e-02
2.399946e-03 8.397408e-04 -2.307625e-02
1.369415e-03 1.175270e-03 -2.313694e-02
-4.924501e-05 -8.834915e-05 1.960125e-02
2.120405e-03 1.498049e-03 -2.315622e-02
1.781884e-03 9.604384e-04 -2.309267e-02
2.310645e-04 2.699089e-03 -2.307347e-02
-1.871201e-02 8.136607e-03 4.174071e-03
-1.573562e-03 -3.036094e-03 -2.283713e-02
5.870872e-03 6.226863e-03 -2.155838e-02
-3.984197e-03 7.454781e-03 -2.165251e-02
3.936144e-03 7.247741e-03 -2.186633e-02
7.390477e-03 1.889791e-02 4.836523e-03
-7.393105e-03 1.889336e-02 4.832221e-03
-4.461216e-05 -1.577143e-06 1.939995e-02
-1.413552e-02 1.402348e-02 5.326444e-03
-1.450564e-02 1.378067e-02 5.371192e-03
1.347782e-02 1.483373e-02 -9.236853e-03
-1.297537e-02 1.510091e-02 -9.139214e-03
-6.340008e-03 3.955506e-05 -2.193730e-02
-9.465160e-03 1.519386e-03 -2.078533e-02
-1.660347e-02 1.094131e-02 5.762819e-03
-1.799438e-02 -7.250140e-03 6.942817e-03
1.786172e-02 -7.468912e-03 6.995474e-03
-8.274570e-03 1.848791e-02 5.468861e-03
1.075427e-04 1.782838e-04 1.945528e-02
8.271375e-03 1.848304e-02 5.467548e-03
1.852392e-02 3.824575e-03 -1.138830e-02
-1.845028e-02 4.195257e-03 -1.140169e-02
-1.189567e-02 -1.601188e-02 5.707957e-03
-5.001677e-03 6.398008e-03 -2.154281e-02
1.777795e-03 1.351871e-02 -1.823440e-02
2.768834e-03 -1.855433e-02 8.472902e-03
1.276329e-03 -2.709852e-04 -2.307367e-02
1.968047e-02 -5.133245e-03 5.391676e-03
-1.955386e-02 -5.148323e-03 5.566039e-03
-4.526911e-05 5.550959e-04 1.958258e-02
-4.398907e-03 -4.549181e-04 -2.267390e-02
6.277558e-03 -1.956913e-02 3.800071e-03
1.330186e-03 -2.044033e-02 3.689402e-03
9.872312e-03 -1.808259e-02 3.836074e-03
-1.066053e-02 1.683183e-02 5.445587e-03
-1.045045e-03 -1.502306e-04 -2.309615e-02
-2.696827e-04 -2.323985e-04 -2.312106e-02
3.376662e-04 -3.316598e-04 -2.305902e-02
6.385433e-04 -1.551683e-03 -2.309464e-02
1.250918e-03 -1.117734e-03 -2.332452e-02
-1.267026e-04 -1.666882e-04 1.954993e-02
8.588373e-03 -3.168870e-03 -2.115549e-02
-8.875210e-03 -3.101484e-03 -2.104524e-02
1.227552e-02 -7.826511e-03 -1.722093e-02
-8.363038e-03 1.706214e-02 7.548919e-03
8.230681e-03 -1.648760e-02 8.672562e-03
6.422383e-03 -1.720211e-02 8.825464e-03
-9.276204e-03 1.605955e-02 8.424243e-03
-5.341199e-04 1.797480e-02 9.325020e-03
-5.268772e-03 1.779468e-02 8.469407e-03
-3.215693e-03 1.822585e-02 8.335257e-03
3.301424e-05 1.848492e-05 1.939981e-02
-1.772412e-03 -1.066518e-02 -2.017172e-02
-6.393865e-03 -1.741404e-02 8.449222e-03
-7.502567e-03 -1.779820e-02 6.940588e-03
-1.281430e-02 -1.284449e-02 8.936899e-03
-1.541386e-02 -9.664137e-03 8.930070e-03
-1.665203e-02 -7.349236e-03 8.935118e-03
-1.039354e-02 -1.496786e-02 8.922988e-03
-2.232177e-03 -1.807733e-02 8.926399e-03
-3.718241e-03 6.968416e-03 -2.144130e-02
-2.451534e-03 7.494530e-03 -2.144728e-02
-9.345364e-05 -2.702456e-04 1.966703e-02
-1.120477e-03 7.998037e-03 -2.145837e-02
-3.993844e-03 9.045859e-03 -2.078579e-02
-7.094755e-03 7.064255e-03 -2.091576e-02
-6.511453e-03 1.361994e-02 -1.675062e-02
2.998511e-04 1.928577e-03 -2.308823e-02
1.466846e-02 -1.186747e-02 -1.161971e-02
-4.566329e-03 3.667931e-03 -2.218782e-02
-1.912098e-02 -3.043280e-03 7.052555e-03
5.037871e-03 1.807406e-02 7.656088e-03
9.012462e-03 -1.700719e-02 7.299576e-03
1.791068e-04 2.977315e-04 1.943504e-02
-9.014838e-03 -1.693281e-02 7.423032e-03
-3.489655e-03 -1.941099e-02 5.850134e-03
1.925971e-02 -3.184464e-03 6.704506e-03
1.721048e-02 -8.026627e-03 7.751638e-03
-1.781634e-02 6.442642e-03 7.808433e-03
-8.542409e-03 1.578703e-02 9.358987e-03
6.199325e-03 -1.736272e-02 8.354362e-03
-6.222314e-03 -1.736332e-02 8.347272e-03
-2.247522e-03 -1.836493e-02 8.644109e-03
-1.573765e-02 -9.927710e-03 8.600342e-03
-1.128102e-04 1.359147e-04 1.964663e-02
-1.076399e-02 -1.526524e-02 8.590164e-03
-1.703350e-02 -7.097463e-03 8.725290e-03
-1.276741e-02 -1.340930e-02 8.657899e-03
-7.973640e-03 -1.696620e-02 7.633991e-03
-1.946174e-02 6.544401e-03 3.883668e-03
-1.994521e-02 4.946971e-03 3.790854e-03
-1.988512e-02 3.187086e-03 5.253837e-03
-1.839945e-02 3.657359e-03 7.802284e-03
-1.809935e-02 5.143161e-03 7.669982e-03
1.035547e-02 1.625997e-02 7.525999e-03
2.645556e-06 -6.731247e-06 1.943842e-02
-2.059738e-04 2.315978e-04 1.934723e-02
-1.117174e-02 1.044949e-03 -1.982364e-02
8.478008e-03 1.573493e-02 9.457904e-03
-3.252957e-03 -1.063685e-02 -1.993293e-02
3.234528e-03 -1.074263e-02 -1.998431e-02
-2.029447e-02 -4.026895e-04 5.299019e-03
-1.974571e-02 -4.233209e-03 5.279381e-03
-1.557061e-02 -1.233245e-02 6.306674e-03
-1.563816e-02 -1.172034e-02 6.933023e-03
-2.019599e-02 -1.983823e-03 4.821052e-03
-1.907065e-02 -5.852176e-03 6.324035e-03
1.804887e-04 -8.418469e-05 1.940408e-02
-1.847259e-02 -6.209619e-03 6.957920e-03
3.393041e-04 -2.033875e-02 5.340556e-03
1.014870e-03 -2.018270e-02 5.434865e-03
3.619282e-03 -1.994087e-02 5.351957e-03
4.220847e-03 -1.967133e-02 5.529632e-03
-9.492506e-03 1.064780e-02 -1.760733e-02
-8.387268e-03 9.843860e-03 -1.866357e-02
-5.925024e-03 -9.772880e-03 -1.985504e-02
-1.020463e-02 -5.031038e-03 -1.984560e-02
-2.038061e-03 -1.119008e-02 -1.985071e-02
3.111970e-05 4.599107e-04 1.966858e-02
-3.372185e-03 -1.085739e-02 -1.979110e-02
-1.002436e-02 -5.467128e-03 -1.985713e-02
-8.293250e-03 -7.678529e-03 -1.984301e-02
-1.004307e-02 2.803923e-03 -2.030140e-02
1.004217e-02 2.794209e-03 -2.032150e-02
1.077978e-02 7.356066e-03 -1.872273e-02
-1.681535e-02 1.592626e-03 -1.512922e-02
4.100619e-03 -2.158760e-04 -2.273081e-02
8.979786e-04 4.149791e-03 -2.275447e-02
4.586249e-03 3.147229e-04 -2.270776e-02
1.108589e-05 -1.041050e-04 1.962532e-02
4.575031e-03 1.016194e-03 -2.272309e-02
4.192171e-03 5.081975e-04 -2.253787e-02
4.213271e-03 1.211846e-03 -2.264438e-02
3.705361e-03 2.827367e-03 -2.266451e-02
5.943478e-05 4.367538e-03 -2.261628e-02
-3.076938e-04 4.452088e-03 -2.259831e-02
-4.713517e-04 4.460140e-03 -2.267507e-02
-1.095382e-03 4.387695e-03 -2.267400e-02
-6.572840e-03 4.389285e-03 -2.156739e-02
-1.519272e-02 9.890959e-03 8.754368e-03
1.010672e-04 2.365875e-04 1.946115e-02
-1.020361e-02 -1.538597e-02 8.677131e-03
1.724022e-02 -6.030141e-03 8.757897e-03
7.125677e-03 -1.738187e-02 8.239423e-03
-7.126314e-03 -1.738366e-02 8.230122e-03
-5.030560e-03 -1.197838e-02 -1.862304e-02
1.676924e-02 -8.578443e-03 8.070122e-03
-7.308589e-03 1.665223e-02 8.835997e-03
-5.975126e-03 2.271921e-03 -2.222556e-02
5.808149e-03 2.584177e-03 -2.224719e-02
-1.933845e-02 -8.681063e-03 -1.965064e-03
5.468769e-05 9.274737e-05 1.961309e-02
1.936766e-02 -8.594007e-03 -2.002228e-03
1.078124e-02 -1.534462e-02 8.337815e-03
1.848094e-02 6.635706e-03 6.677326e-03
-1.839144e-02 6.756210e-03 6.648320e-03
-1.041364e-02 4.240393e-04 -2.025008e-02
-1.218740e-02 -1.473104e-02 7.422532e-03
-1.070357e-03 -1.940951e-02 7.262014e-03
-1.021106e-02 1.444528e-02 9.300028e-03
-1.829934e-02 -1.167986e-03 9.133838e-03
-1.768984e-02 -4.651052e-03 9.350851e-03
-9.319348e-05 2.347825e-04 1.936665e-02
-1.832190e-02 1.933466e-04 9.184385e-03
-3.240382e-03 1.280637e-02 -1.859432e-02
-2.706089e-03 1.298263e-02 -1.838780e-02
3.915284e-04 1.311795e-02 -1.839659e-02
-1.125556e-04 1.321295e-02 -1.855058e-02
-7.067552e-03 1.121811e-02 -1.857320e-02
-7.545812e-03 1.071899e-02 -1.827768e-02
1.440887e-02 -2.232352e-03 -1.724948e-02
-1.092081e-02 -1.370832e-02 1.017422e-02
-1.200553e-02 -1.166449e-02 -1.490495e-02
1.366078e-05 5.212891e-04 1.936103e-02
-1.741370e-02 -5.076226e-03 9.557915e-03
1.722734e-02 -5.165442e-03 9.673645e-03
-1.399957e-02 1.144601e-02 9.325421e-03
-4.913800e-04 7.532662e-03 -2.163733e-02
-1.373226e-02 1.243446e-02 8.275140e-03
-9.866942e-03 6.691079e-03 -1.944189e-02
-3.758172e-03 2.125291e-03 -2.261499e-02
2.182041e-03 1.836283e-02 8.620099e-03
-1.213837e-02 -7.065193e-03 -1.772228e-02
1.197698e-02 -6.973923e-03 -1.780559e-02
-2.134919e-04 2.693877e-04 1.946147e-02
1.540947e-03 -2.338354e-03 -2.290814e-02
5.868562e-03 -5.589861e-03 -2.136111e-02
-1.389053e-02 -2.162894e-03 -1.780192e-02
-1.597855e-02 -9.342828e-03 8.360462e-03
1.606205e-02 -9.291074e-03 8.391521e-03
1.626894e-02 -1.277374e-02 3.256439e-03
-1.928392e-02 9.706447e-04 7.197719e-03
-4.344667e-03 -1.881904e-02 7.171697e-03
-1.498079e-02 9.254304e-03 1.015459e-02
-4.379825e-03 -1.897591e-02 6.758596e-03
-1.870730e-04 -1.391478e-04 1.936527e-02
-6.641856e-03 -1.601289e-02 -1.401596e-02
6.651377e-03 -1.601746e-02 -1.402031e-02
1.820729e-02 1.905829e-03 9.047547e-03
-1.804578e-02 2.270317e-03 9.360117e-03
-1.059478e-03 -1.708004e-02 -1.447172e-02
9.882827e-03 -1.395282e-02 -1.454322e-02
1.376582e-02 -6.216561e-03 -1.704386e-02
-5.364021e-03 4.922792e-03 -2.190402e-02
-7.812439e-03 -1.038315e-02 -1.868920e-02
-8.899359e-03 1.648511e-02 8.260296e-03
-9.329723e-05 -1.493062e-04 1.944276e-02
1.149496e-04 -2.813914e-04 1.943683e-02
-5.821202e-03 1.763210e-02 8.723660e-03
-2.485331e-03 1.843838e-02 8.373666e-03
-1.036150e-02 -4.203844e-03 -1.951881e-02
-7.594920e-03 -8.214889e-03 -1.958300e-02
-9.278055e-03 -6.133897e-03 -1.945895e-02
-6.523905e-03 -9.019911e-03 -1.956282e-02
-1.238967e-03 -1.117195e-02 -1.943251e-02
-1.712628e-02 5.287013e-03 9.583410e-03
1.713752e-02 5.362662e-03 9.498802e-03
1.201456e-02 -2.879296e-03 -1.910636e-02
-2.080216e-05 1.635834e-04 1.932536e-02
-1.209092e-02 -2.971674e-03 -1.907150e-02
2.102688e-02 3.410470e-03 -3.445662e-03
-1.657408e-02 -1.231619e-02 3.026640e-03
4.854283e-03 -2.593103e-03 -2.247797e-02
-2.106576e-02 3.245210e-03 -3.403279e-03
-4.670787e-03 7.788722e-03 -2.119919e-02
5.790580e-03 4.482098e-03 -2.181807e-02
1.665663e-03 1.176819e-03 -2.294393e-02
1.276768e-02 1.207211e-02 9.873531e-03
4.515892e-03 5.833139e-03 -2.200587e-02
-1.160544e-04 3.209304e-04 1.952325e-02
5.067344e-03 -1.069758e-03 -2.246600e-02
-5.004662e-03 -9.948444e-04 -2.244582e-02
1.051128e-02 1.380088e-02 1.030187e-02
-1.192203e-02 1.629696e-02 -8.360931e-03
-7.914007e-03 -1.295849e-02 -1.675796e-02
-1.331034e-02 1.114669e-02 9.901468e-03
-1.836248e-03 1.881620e-02 7.568514e-03
-1.765543e-02 9.912732e-03 -8.201921e-03
1.652855e-02 8.657305e-03 8.658373e-03
-1.659556e-02 8.624177e-03 8.510178e-03
1.336944e-04 -2.213665e-04 1.954455e-02
-1.655170e-02 8.322827e-03 8.398232e-03
-1.971431e-03 -1.209169e-02 -1.915766e-02
-4.918092e-03 1.377791e-02 -1.705332e-02
-3.454679e-03 1.576843e-04 -2.273036e-02
-1.451580e-02 1.038070e-02 9.604703e-03
1.656608e-02 -5.234365e-03 9.923844e-03
-1.640027e-02 -5.355678e-03 9.859085e-03
1.066624e-02 -1.452019e-02 9.144204e-03
9.428004e-03 -1.106027e-02 -1.731533e-02
-9.454155e-03 -1.067319e-02 -1.748831e-02
-1.544886e-04 4.143207e-04 1.949303e-02
-8.018814e-03 -1.573685e-02 9.547979e-03
-7.560175e-03 1.207643e-02 -1.747441e-02
1.335166e-02 -4.247099e-03 -1.767763e-02
1.361804e-02 -3.064831e-03 -1.769269e-02
5.870321e-03 1.307843e-02 -1.785161e-02
-1.318060e-02 -7.726381e-04 -1.855264e-02
1.306960e-02 -1.571027e-03 -1.848173e-02
-1.462024e-02 1.040080e-02 9.471626e-03
-1.429712e-02 1.076969e-02 9.386690e-03
-1.599306e-02 4.356452e-03 -1.499333e-02
-5.059976e-05 -2.466521e-04 1.965056e-02
-1.637552e-02 3.049505e-03 -1.498829e-02
-1.655546e-02 -1.278964e-03 1.105742e-02
-1.221756e-02 1.453346e-02 7.493429e-03
1.611301e-02 -6.452017e-03 1.027099e-02
-1.620134e-02 -6.408770e-03 1.027421e-02
4.173556e-04 -4.046255e-03 -2.259134e-02
1.806428e-02 -6.865647e-03 -1.096915e-02
-1.139672e-02 -1.369648e-02 9.226785e-03
-4.618091e-03 1.321718e-02 -1.794021e-02
4.650261e-03 1.318204e-02 -1.794225e-02
6.695881e-05 2.767102e-04 1.941890e-02
1.081898e-02 1.082048e-02 -1.677781e-02
5.095580e-03 1.432292e-02 -1.637246e-02
2.227648e-03 1.504407e-02 -1.656127e-02
1.389792e-02 6.244406e-03 -1.676386e-02
1.307076e-02 7.805964e-03 -1.653221e-02
8.376820e-03 1.269001e-02 -1.658133e-02
-1.637286e-02 6.005319e-03 -1.387318e-02
-1.851940e-02 -2.946129e-03 8.064465e-03
2.110102e-03 -1.869219e-02 7.986809e-03
2.677402e-03 9.859353e-03 -2.015376e-02
-9.707158e-05 -8.033198e-06 1.962829e-02
1.530021e-02 -8.597149e-03 9.842038e-03
6.213092e-03 -2.974102e-03 -2.201006e-02
-6.329659e-03 -2.998910e-03 -2.201795e-02
-1.441800e-02 8.844092e-03 1.036291e-02
-1.178093e-02 1.181071e-02 1.112981e-02
4.997370e-03 1.637262e-02 1.005025e-02
-1.168275e-02 5.013116e-03 -1.892060e-02
-5.164990e-03 1.822363e-03 -2.239454e-02
8.481462e-03 1.436441e-02 1.091679e-02
6.240960e-03 1.610996e-02 -1.388863e-02
-1.896830e-04 3.254186e-04 1.957945e-02
-6.238432e-03 1.610785e-02 -1.388670e-02
1.643460e-02 -4.107026e-03 -1.469129e-02
1.681800e-02 -2.854961e-03 -1.461368e-02
-8.515432e-03 1.462755e-02 1.102960e-02
-1.659923e-02 3.932846e-03 1.064739e-02
1.665873e-02 3.857387e-03 1.077032e-02
-5.942478e-03 1.342302e-02 -1.670039e-02
5.934715e-03 1.342036e-02 -1.668189e-02
1.636682e-02 5.580440e-03 1.064187e-02
-1.659673e-02 5.479396e-03 1.035901e-02
-3.710685e-05 2.793607e-05 1.958054e-02
1.362088e-02 -1.132120e-03 -1.774628e-02
-1.735605e-02 -2.151022e-03 9.609957e-03
1.807513e-02 1.044702e-03 -1.324689e-02
1.466674e-02 1.058092e-02 9.096298e-03
6.221377e-03 -1.197483e-02 -1.845399e-02
4.392323e-03 -1.278979e-02 -1.839892e-02
1.146726e-02 -3.162640e-04 -1.986105e-02
3.041314e-03 1.108477e-02 -1.932853e-02
1.133225e-02 3.185467e-03 -1.918952e-02
8.824077e-03 7.407778e-03 -1.980622e-02
-6.119254e-05 -1.196096e-04 1.942222e-02
-4.276653e-05 -6.341609e-05 1.953449e-02
1.138228e-02 2.095171e-03 -1.937188e-02
1.145290e-02 1.552246e-03 -1.998558e-02
1.134756e-02 5.035757e-04 -1.954287e-02
1.049430e-04 1.137257e-02 -1.946103e-02
-1.657797e-03 1.112869e-02 -1.951493e-02
-1.123919e-03 1.151742e-02 -1.934595e-02
-2.854148e-03 1.102404e-02 -1.939757e-02
1.151347e-02 1.233301e-02 1.064439e-02
-1.511978e-02 1.248714e-02 -1.020201e-02
-1.083206e-02 1.325822e-02 1.035141e-02
2.709388e-04 -2.824703e-04 1.955852e-02
-1.664798e-02 1.539671e-03 -1.480818e-02
-4.908564e-03 -9.739148e-03 -2.002511e-02
-1.087152e-03 1.633308e-02 1.145485e-02
-1.173166e-02 1.072972e-02 1.178999e-02
-2.862869e-03 5.930069e-03 -2.183795e-02
2.821007e-03 5.938192e-03 -2.184395e-02
1.407703e-02 -7.952937e-03 1.155163e-02
-1.423800e-02 -7.742848e-03 1.156550e-02
-1.673317e-02 9.229133e-04 1.113473e-02
1.688215e-02 1.306487e-03 1.097817e-02
6.997976e-05 2.513131e-04 1.949792e-02
1.241178e-03 -1.151883e-02 -1.939786e-02
1.337000e-02 5.567984e-03 -1.730362e-02
-1.351800e-02 5.657746e-03 -1.730056e-02
-1.234497e-02 8.449363e-03 -1.685462e-02
4.804697e-03 -4.837991e-03 -2.206368e-02
1.430821e-02 -8.181841e-03 -1.528923e-02
-4.308339e-03 -5.390624e-03 -2.205662e-02
1.126463e-02 1.176734e-02 1.115083e-02
1.513485e-02 -2.994292e-03 -1.598107e-02
1.537132e-02 9.780909e-03 9.189217e-03
-1.006442e-04 6.127142e-04 1.958105e-02
-1.490458e-02 5.706772e-03 1.235448e-02
-1.128847e-02 6.379319e-03 -1.864291e-02
-1.494961e-02 -3.358893e-03 -1.623672e-02
1.117856e-02 -8.485912e-03 -1.754153e-02
1.012747e-02 -1.504440e-02 -1.304855e-02
-1.085158e-02 9.144764e-03 -1.775338e-02
-2.372936e-03 -1.569383e-02 1.168595e-02
-9.432470e-03 -1.694369e-02 -1.054069e-02
9.434034e-03 -1.685006e-02 -1.049029e-02
9.802257e-04 1.330077e-02 -1.827946e-02
-2.440606e-04 -1.697976e-05 1.945040e-02
1.856616e-02 2.023458e-03 -1.219459e-02
1.179519e-02 9.790084e-03 1.229791e-02