# vtk DataFile Version 2.0
Electric current density generated by TTH
ASCII
DATASET UNSTRUCTURED_GRID
POINTS 2028 double
-1.489763e-06 -1.671111e-05 -5.104131e-22
3.723103e-06 1.519656e-05 1.853490e-06
-1.570722e-05 -1.122356e-06 -1.797840e-06
-1.243379e-05 -2.885378e-06 -7.877858e-07
-1.529232e-06 1.424378e-05 2.051199e-06
1.803950e-06 -1.447074e-05 2.080976e-06
1.295392e-05 2.147311e-06 1.378562e-06
1.298133e-05 -2.032070e-06 1.388400e-06
-3.246511e-07 -1.260663e-05 -7.238191e-08
-9.856227e-07 -1.660839e-05 7.503427e-07
-3.917510e-06 -1.614334e-05 8.139015e-07
-4.971698e-07 -1.677002e-05 -5.104131e-22
-2.050541e-06 -1.649252e-05 7.956823e-07
3.823133e-06 -1.212568e-05 6.518111e-07
1.221805e-05 6.035577e-06 -1.790653e-06
1.221808e-05 -6.035528e-06 -1.790660e-06
-1.222476e-05 1.126763e-05 -7.812241e-07
-1.301651e-06 1.570678e-05 1.789942e-06
-1.245823e-05 2.213730e-06 4.251553e-07
4.269564e-06 -1.455675e-05 2.028710e-06
-6.739700e-07 1.327712e-05 -1.544287e-06
9.301970e-06 -1.080462e-05 -2.037732e-06
4.971698e-07 -1.677002e-05 -5.104131e-22
5.410188e-06 1.188580e-05 1.293001e-06
6.246674e-06 1.211313e-05 1.791526e-06
-1.500701e-05 -4.479648e-06 -1.845518e-06
8.566756e-06 1.423764e-05 -8.035164e-07
-1.305630e-05 9.659145e-07 1.333397e-06
-7.784292e-06 1.377463e-05 1.751894e-06
-3.176929e-06 1.550494e-05 1.748622e-06
-1.514512e-05 -6.832005e-06 8.070193e-07
8.603193e-06 -1.424044e-05 -7.507355e-07
-1.628412e-05 -3.427681e-06 7.416251e-07
1.489763e-06 -1.671111e-05 -5.104131e-22
3.353970e-06 1.306804e-05 1.702409e-06
-1.352717e-05 3.045270e-06 -1.912471e-06
-1.027991e-05 8.494456e-06 1.580606e-06
-1.253814e-05 -4.024749e-06 -1.420038e-06
-1.381936e-06 1.254171e-05 -1.832431e-07
-1.404898e-05 -8.909262e-06 -7.551131e-07
-2.661681e-06 -1.347197e-05 1.849067e-06
1.128756e-05 -8.274407e-06 -1.963569e-06
1.121956e-05 8.334566e-06 -1.956713e-06
-5.697356e-06 -1.173922e-05 -1.279659e-06
2.477124e-06 -1.659351e-05 -5.104131e-22
-1.314711e-05 1.010655e-05 8.793025e-07
3.882174e-06 1.410261e-05 -2.082865e-06
-9.263596e-06 1.381599e-05 -7.592011e-07
-1.327488e-05 -6.869194e-06 2.068459e-06
2.822442e-06 1.516529e-05 1.951040e-06
-1.279090e-05 4.718937e-06 -1.794278e-06
-4.298569e-06 -1.260822e-05 -1.567999e-06
-4.065491e-06 -1.610831e-05 -8.102393e-07
1.030176e-05 1.301407e-05 8.459535e-07
8.034854e-06 1.035874e-05 1.354321e-06
3.455783e-06 -1.641762e-05 -5.104131e-22
7.744316e-06 1.083158e-05 -1.563143e-06
-9.866509e-06 -1.213596e-05 1.856229e-06
1.569929e-05 5.430425e-06 -8.137011e-07
1.569929e-05 -5.430425e-06 -8.137011e-07
-2.979304e-06 -1.404300e-05 -2.056342e-06
1.370477e-05 -3.307972e-06 1.997136e-06
1.370477e-05 3.307972e-06 1.997136e-06
7.462044e-06 1.375322e-05 1.852895e-06
-1.118896e-05 -8.000163e-06 1.860559e-06
6.041618e-06 1.326716e-05 2.080720e-06
4.422304e-06 -1.618406e-05 -5.104131e-22
-1.068493e-05 -8.577868e-06 1.833005e-06
1.671956e-06 -1.322480e-05 1.576026e-06
-4.844430e-06 1.315666e-05 -1.972167e-06
7.397794e-06 -1.368923e-05 -1.895088e-06
1.005164e-05 -1.325617e-05 -7.541363e-07
-1.275537e-05 9.401032e-06 1.736553e-06
-2.296355e-06 1.449212e-05 -2.083818e-06
1.369531e-05 4.312925e-06 2.056801e-06
1.369531e-05 -4.312925e-06 2.056801e-06
4.682674e-06 -1.292521e-05 1.856748e-06
5.373291e-06 -1.589366e-05 -5.104131e-22
-1.487835e-05 1.918082e-06 -2.061031e-06
-5.361755e-06 -1.298209e-05 1.980703e-06
-9.462230e-07 1.661305e-05 -7.442019e-07
-9.829224e-06 -1.026028e-05 -2.026750e-06
1.301788e-05 8.886078e-07 -1.278952e-06
1.302671e-05 -8.257143e-07 -1.284959e-06
-1.577068e-05 -5.331716e-06 -7.240132e-07
-2.786659e-06 -1.280261e-05 -1.345797e-06
-1.227031e-05 3.348005e-06 -6.661003e-07
4.868068e-06 1.313483e-05 1.967930e-06
6.305405e-06 -1.554743e-05 -5.104131e-22
-8.658291e-06 -9.854179e-06 -1.363559e-06
-5.126251e-06 -1.157396e-05 -4.485532e-07
-1.015678e-05 -7.621980e-06 6.027162e-07
-1.135777e-05 -9.834755e-06 2.057536e-06
-1.423570e-05 6.443737e-07 2.036247e-06
1.298212e-05 -8.360527e-06 -1.945112e-06
1.298212e-05 8.360527e-06 -1.945112e-06
2.567516e-06 1.421367e-05 2.068898e-06
-1.517933e-06 1.296439e-05 1.285078e-06
8.361168e-06 -1.437605e-05 7.680330e-07
7.215370e-06 -1.514659e-05 -5.104131e-22
-1.332249e-05 -2.617750e-07 -1.571680e-06
-1.264051e-05 6.748769e-06 2.051851e-06
-1.414474e-05 2.303775e-06 2.052175e-06
3.348579e-06 1.550453e-05 -1.725464e-06
-1.189956e-05 -8.113275e-06 -2.063472e-06
-1.271893e-05 -1.386659e-06 -8.578315e-07
-1.456008e-05 8.038533e-06 -7.654419e-07
-1.558485e-05 5.697363e-06 -8.557028e-07
-4.526308e-06 1.253102e-05 1.570264e-06
4.110323e-06 1.201735e-05 6.100666e-07
8.099992e-06 -1.469254e-05 -5.104131e-22
9.511267e-06 1.094935e-05 2.075246e-06
9.351964e-06 -1.092883e-05 2.060809e-06
1.217471e-05 4.733241e-06 -1.297094e-06
1.217472e-05 -4.733225e-06 -1.297092e-06
2.031042e-06 1.282319e-05 1.190443e-06
-1.208845e-05 -3.757518e-06 4.511771e-07
-1.007997e-05 -1.323091e-05 7.617169e-07
1.242756e-05 2.173229e-06 -1.656678e-07
1.243412e-05 -2.124297e-06 -1.403576e-07
7.592617e-06 -1.381217e-05 1.789439e-06
8.956161e-06 -1.418689e-05 -5.104131e-22
-2.623329e-06 1.639836e-05 8.255918e-07
6.974953e-07 -1.659546e-05 8.180350e-07
-1.161847e-05 4.924037e-06 1.965458e-07
-3.438901e-06 1.533826e-05 -1.814091e-06
1.659148e-05 -1.479098e-06 -6.972618e-07
1.659148e-05 1.479098e-06 -6.972618e-07
3.318223e-06 -1.408298e-05 -2.071754e-06
-2.164184e-06 1.248977e-05 -5.216049e-07
-4.504305e-06 1.499035e-05 1.850154e-06
3.718231e-06 1.327144e-05 -1.874247e-06
9.780872e-06 -1.363141e-05 -5.104131e-22
5.390379e-06 1.478402e-05 1.804366e-06
1.847770e-06 -1.592179e-05 1.600003e-06
-8.325024e-06 -1.439377e-05 7.750823e-07
1.500820e-05 -7.191053e-06 7.387914e-07
1.500820e-05 7.191053e-06 7.387914e-07
1.526747e-05 3.778403e-06 1.808956e-06
1.526747e-05 -3.778403e-06 1.808956e-06
-1.663419e-05 3.915032e-07 7.472825e-07
-1.190236e-05 7.973807e-06 2.051350e-06
1.172846e-05 -1.174755e-05 -8.412273e-07
1.057123e-05 -1.302804e-05 -5.104131e-22
1.444699e-05 8.238656e-06 -7.671981e-07
1.444699e-05 -8.238656e-06 -7.671981e-07
9.553726e-06 1.359756e-05 7.986218e-07
-4.895123e-06 -1.591738e-05 -7.089577e-07
-1.558377e-05 -2.383010e-06 1.787375e-06
-1.064337e-05 1.279896e-05 7.278050e-07
1.167993e-05 9.512982e-06 -2.050752e-06
1.170367e-05 -9.427954e-06 -2.056777e-06
-1.107312e-05 1.163588e-05 1.571035e-06
6.087117e-06 1.464167e-05 -1.729122e-06
1.132445e-05 -1.237891e-05 -5.104131e-22
7.778096e-06 1.261855e-05 2.079879e-06
4.722194e-06 1.535688e-05 -1.567627e-06
1.039947e-05 -1.294802e-05 8.247510e-07
-9.082467e-06 1.116347e-05 2.061920e-06
-1.164226e-05 8.962662e-06 -2.083919e-06
1.104006e-06 1.467616e-05 2.083780e-06
1.031821e-05 -7.378594e-06 5.556711e-07
-1.970903e-06 1.654703e-05 -6.780575e-07
1.031826e-05 7.377721e-06 5.539810e-07
-3.791779e-06 1.240664e-05 -1.176084e-06
1.203790e-05 -1.168631e-05 -5.104131e-22
7.574555e-06 1.213727e-05 -2.047750e-06
-1.567069e-05 1.471167e-06 -1.802317e-06
-1.218576e-05 3.304863e-06 2.610114e-07
-1.429401e-05 4.727687e-06 -2.052222e-06
-1.284183e-05 -2.969306e-07 9.627379e-07
4.754163e-06 -1.193739e-05 -9.703550e-07
9.673109e-06 -8.088991e-06 4.104650e-09
-6.361657e-06 -1.436174e-05 1.820480e-06
-3.676872e-06 -1.542746e-05 -1.727113e-06
-1.096885e-05 1.149035e-05 -1.709437e-06
1.270906e-05 -1.095265e-05 -5.104131e-22
1.660480e-05 8.103876e-07 7.833089e-07
1.660480e-05 -8.103876e-07 7.833089e-07
-1.261701e-05 1.079978e-05 8.230652e-07
-1.011288e-05 -1.324698e-05 -6.724179e-07
1.514434e-05 -6.847562e-06 -7.933282e-07
1.514434e-05 6.847562e-06 -7.933282e-07
1.971204e-06 -1.654955e-05 -6.706250e-07
-5.835471e-06 1.118604e-05 1.720582e-07
-2.295689e-06 1.300963e-05 -1.464211e-06
-1.174402e-05 -1.062093e-05 -1.743887e-06
1.333558e-05 -1.018052e-05 -5.104131e-22
4.611958e-06 -1.202867e-05 1.031094e-06
5.803222e-06 -1.562329e-05 6.713965e-07
-1.504736e-05 7.168102e-06 -6.678371e-07
-4.904908e-07 1.456467e-05 -2.080430e-06
-1.171908e-05 5.925692e-06 -1.380101e-06
-1.614763e-05 3.871994e-06 -8.290772e-07
6.557314e-06 1.091177e-05 6.995670e-07
3.514596e-06 1.623847e-05 8.077693e-07
-7.360544e-06 1.282702e-05 2.081736e-06
-7.858905e-06 9.907014e-06 3.859768e-07
1.391526e-05 -9.372633e-06 -5.104131e-22
5.851536e-06 -1.465287e-05 1.779436e-06
-1.205902e-05 1.039409e-05 -1.684494e-06
-4.393421e-06 -1.393826e-05 2.082415e-06
2.719138e-06 -1.556507e-05 -1.765376e-06
8.584993e-06 -9.525539e-06 -9.194219e-07
1.195199e-05 -1.033208e-05 1.766626e-06
1.195199e-05 1.033208e-05 1.766626e-06
-1.562109e-05 5.022371e-07 -1.862039e-06
-9.833719e-06 1.231111e-05 1.792431e-06
6.291380e-06 1.304442e-05 -2.073198e-06
1.444606e-05 -8.531823e-06 -5.104131e-22
-6.522208e-06 1.444880e-05 -1.731754e-06
9.667514e-06 8.095677e-06 4.610678e-09
-1.443314e-05 -8.251273e-06 7.816080e-07
4.909296e-06 -1.512227e-05 1.699690e-06
1.174522e-05 1.173850e-05 -8.287727e-07
-9.998175e-06 9.445158e-06 1.860177e-06
-8.689877e-06 9.235722e-06 -5.417113e-07
7.101920e-06 -1.445497e-05 -1.532716e-06
-6.758207e-06 -1.519624e-05 7.665720e-07
-6.092020e-06 1.508531e-05 1.364015e-06
1.492612e-05 -7.661045e-06 -5.104131e-22
-1.039489e-06 -1.454103e-05 2.080726e-06
4.830909e-06 -1.418299e-05 -2.063687e-06
-1.270454e-05 -5.496757e-06 -1.902333e-06
1.032827e-05 -9.552273e-06 -1.987959e-06
-6.668014e-06 1.525047e-05 7.322662e-07
-4.900103e-06 1.590516e-05 7.365809e-07
-9.279920e-06 -8.796480e-06 -8.403910e-07
-7.495182e-06 -1.486428e-05 -7.253874e-07
-1.189538e-05 1.062172e-05 1.664410e-06
1.038156e-06 1.505037e-05 -2.046591e-06
1.535375e-05 -6.763358e-06 -5.104131e-22
1.588323e-05 2.004635e-06 1.616007e-06
1.589018e-05 -2.013552e-06 1.609449e-06
-9.876301e-07 1.664222e-05 6.558262e-07
-3.734870e-06 1.206842e-05 3.126175e-07
1.292969e-05 4.705153e-06 1.862754e-06
1.292961e-05 -4.705348e-06 1.862751e-06
-4.899926e-06 -1.499265e-05 -1.782479e-06
-1.107867e-05 7.198132e-06 1.465334e-06
-4.682822e-06 -1.596542e-05 7.493131e-07
1.072893e-05 9.880477e-06 -2.081116e-06
1.572745e-05 -5.841914e-06 -5.104131e-22
[...]
POINT_DATA 2028
VECTORS 10.000GHz_fone_imag double
-3.858061e+10 3.480976e+09 -9.535445e+08
4.112698e+10 -7.753946e+09 -1.935206e+09
-4.983441e+09 3.745330e+10 7.325942e+08
-2.278665e+10 8.500562e+10 2.894731e+08
5.403812e+10 6.762792e+09 -7.926504e+08
-4.590625e+10 -4.742271e+09 2.663793e+08
1.002228e+10 -6.707794e+10 -2.702220e+09
-7.209130e+09 -7.127359e+10 6.095500e+09
-9.580702e+10 2.618523e+09 -1.242912e+09
-3.985938e+10 1.398271e+09 -2.397934e+09
-3.686672e+10 8.148564e+09 -1.376919e+09
-3.349756e+10 -1.552457e+08 -2.150245e+09
-2.904086e+10 4.099882e+09 1.217312e+08
-7.184736e+10 -2.177312e+10 4.108748e+09
2.463682e+10 -4.919845e+10 2.103145e+08
-2.534390e+10 -4.981729e+10 -1.934081e+09
1.814628e+10 2.066441e+10 6.098357e+08
3.865212e+10 4.793149e+09 -7.715853e+08
1.322205e+10 6.896822e+10 -1.997388e+09
-5.217938e+10 -1.563948e+10 -6.224927e+08
6.144183e+10 3.297256e+09 -2.136323e+09
-4.763688e+10 -3.829330e+10 -9.413570e+08
-2.471914e+10 -2.089764e+09 1.542849e+09
6.465647e+10 -3.941934e+10 -4.412815e+09
4.870205e+10 -2.508632e+10 -1.241718e+09
-1.171526e+10 3.354718e+10 -3.384257e+08
3.356717e+10 -1.994015e+10 -5.820808e+08
9.368543e+09 8.010962e+10 -3.144828e+09
3.964780e+10 2.335134e+10 2.332947e+08
3.979344e+10 9.758584e+09 1.109505e+09
-1.727196e+10 3.371535e+10 -1.593066e+09
-3.479984e+10 -2.017154e+10 -6.864417e+08
-9.113149e+09 3.884360e+10 6.336799e+06
-2.457300e+10 -1.511321e+08 -4.736222e+08
7.804467e+10 -1.631632e+10 3.123407e+09
1.311967e+10 6.123889e+10 -4.554821e+08
4.581197e+10 5.026491e+10 -4.140799e+09
-1.712012e+10 5.764545e+10 -9.832412e+08
7.712273e+10 9.416140e+09 -4.430087e+08
-2.138263e+10 3.395390e+10 -5.769007e+08
-6.166160e+10 1.045232e+10 1.586815e+09
-3.121270e+10 -4.193934e+10 -3.170252e+09
4.116790e+10 -5.788705e+10 1.665912e+09
-7.904167e+10 3.658888e+10 -1.410059e+09
-3.471857e+10 -4.178429e+09 -2.059611e+09
1.871020e+10 2.438209e+10 -4.601973e+07
4.040372e+10 -9.819796e+09 1.145131e+09
2.658220e+10 1.703522e+10 1.816301e+09
-2.339407e+10 4.781635e+10 3.320948e+09
5.011582e+10 -8.335568e+09 5.179372e+07
2.509760e+10 6.185900e+10 -1.133237e+09
-7.521860e+10 2.566132e+10 -1.065162e+09
-3.376242e+10 8.159251e+09 4.048065e+08
2.264461e+10 -1.699004e+10 6.852991e+07
5.648817e+10 -4.879174e+10 3.612314e+09
-3.745692e+10 -7.809197e+09 -9.289127e+07
5.517696e+10 -3.822447e+10 3.517943e+08
-2.960821e+10 2.735675e+10 1.430199e+07
1.454549e+10 -3.870536e+10 1.958973e+09
-1.434906e+10 -3.861455e+10 -1.528823e+09
-6.188660e+10 1.460362e+10 -1.496766e+09
-1.203058e+10 -6.559789e+10 -1.523304e+09
1.339207e+10 -6.285320e+10 1.379508e+09
3.079889e+10 -1.840755e+10 -1.783920e+09
-4.324757e+10 5.465691e+10 7.458292e+08
4.435410e+10 -1.826981e+10 1.162385e+09
-2.739170e+10 -7.738368e+09 3.540256e+08
-4.186114e+10 5.766980e+10 -2.379710e+09
-7.948750e+10 -1.188572e+10 1.192317e+09
5.949926e+10 2.541036e+10 -2.140778e+09
-4.047104e+10 -2.426148e+10 -2.207925e+09
-2.435565e+10 -1.928618e+10 1.842605e+08
2.213607e+10 2.965175e+10 -2.051755e+09
5.735463e+10 1.146324e+10 -6.169548e+08
1.500683e+10 -5.833165e+10 -8.460247e+08
-1.540545e+10 -5.911193e+10 8.016364e+08
-6.801126e+10 -2.580294e+10 8.274603e+08
-3.486056e+10 -1.189619e+10 1.199459e+09
5.823599e+09 5.369065e+10 5.054640e+08
-5.317952e+10 2.360490e+10 -3.391693e+09
3.544677e+10 1.933185e+09 -1.946582e+09
-3.391606e+10 3.407144e+10 1.740254e+09
7.545698e+09 -9.134532e+10 -1.325445e+08
-3.383080e+09 -7.649631e+10 -1.045933e+09
-8.696397e+09 3.058980e+10 -1.326478e+09
-5.994588e+10 1.193127e+10 7.271955e+08
2.703654e+10 9.049496e+10 2.693135e+09
5.541243e+10 -2.650172e+10 -1.703498e+09
-2.848147e+10 -1.174671e+10 -4.575313e+08
-4.477778e+10 3.957119e+10 -2.709291e+08
-6.499664e+10 3.253767e+10 8.228426e+08
-4.725275e+10 6.040589e+10 -1.223985e+08
-3.539787e+10 3.483964e+10 -1.564383e+08
1.495989e+09 5.496243e+10 1.150801e+09
-2.106753e+10 -3.268260e+10 2.898177e+09
2.218603e+10 -3.814337e+10 -4.718075e+09
5.927981e+10 -1.053115e+10 1.024747e+09
6.944231e+10 5.038373e+09 -2.217679e+09
-2.855366e+10 -1.659024e+10 5.466928e+08
-3.436825e+10 -1.601100e+10 -7.425438e+08
-4.076862e+09 6.750263e+10 1.179121e+09
2.356850e+10 4.100391e+10 -4.960247e+08
1.580025e+10 5.210297e+10 -1.643288e+09
4.018877e+10 -1.121859e+10 -1.263656e+09
-2.908122e+10 4.327359e+10 -3.158949e+09
-9.498333e+09 7.384573e+10 -2.314111e+09
1.459972e+10 2.822908e+10 3.475105e+08
1.323563e+10 3.729434e+10 1.268980e+09
5.493523e+10 1.774490e+10 5.251743e+08
7.296103e+10 -2.977249e+10 -6.421037e+09
-2.716619e+10 -1.561503e+10 2.721696e+08
3.315931e+10 -3.274594e+10 -1.385721e+08
-3.965620e+10 -3.298803e+10 7.418026e+07
2.116016e+10 -6.404276e+10 6.129145e+09
-2.045751e+10 -6.277333e+10 -5.519300e+09
7.761174e+10 -1.365703e+10 -5.630336e+09
-1.989329e+10 6.059113e+10 3.569055e+09
-2.796882e+10 2.206973e+10 4.838315e+08
1.806495e+10 -9.765174e+10 -6.163641e+09
-1.632017e+10 -9.871359e+10 -5.972422e+08
-3.406114e+10 -1.711781e+10 2.521482e+09
-2.724258e+10 -1.677729e+10 1.092367e+09
3.121760e+10 4.520095e+09 1.649848e+09
-2.904765e+10 -1.318927e+09 -1.414342e+09
2.651913e+10 6.789295e+10 -1.622110e+09
4.109812e+10 9.171709e+09 1.137961e+09
-4.289884e+09 -4.266886e+10 -1.237716e+09
4.021323e+09 -4.136357e+10 2.858357e+08
-4.628413e+10 -7.788771e+09 -1.718354e+09
6.676640e+10 9.287344e+09 3.120982e+09
4.516045e+10 1.252788e+10 1.166940e+09
5.820129e+10 -9.377265e+09 -2.378930e+09
-2.890888e+10 -2.071213e+10 -1.292641e+09
3.956106e+10 -1.055261e+10 1.828488e+08
-4.153157e+10 -7.398379e+09 -1.931089e+08
-3.052382e+10 1.751887e+10 -1.568961e+08
-1.293453e+10 -2.698101e+10 -5.744806e+07
1.467312e+10 -3.387781e+10 1.186087e+09
6.295216e+09 -4.202493e+10 5.905702e+09
-6.242509e+09 -4.151288e+10 -4.429881e+09
-1.272027e+09 3.488181e+10 -6.812734e+08
3.607207e+10 5.305220e+10 1.706766e+09
-1.954910e+10 -2.229640e+10 1.335675e+09
-2.767113e+10 -2.168000e+10 2.825781e+09
1.687792e+10 -3.099251e+10 -2.257058e+08
-1.697585e+10 -3.193901e+10 1.352699e+09
2.807675e+10 -2.108817e+10 8.877456e+08
-3.005439e+10 1.086045e+10 -3.758804e+09
-4.021976e+09 3.424324e+10 1.190082e+09
2.459262e+10 1.957802e+10 1.525939e+09
2.674843e+10 -4.312323e+10 -1.246015e+09
-3.752266e+10 -4.347727e+10 1.726964e+08
2.592853e+10 2.503741e+10 2.086243e+09
2.911897e+10 -1.156014e+10 -7.147913e+08
-2.328140e+10 -2.271534e+10 -2.941765e+09
3.603909e+10 -2.534857e+10 2.702857e+09
3.502278e+10 -1.354254e+10 -2.056792e+09
-2.524159e+10 -2.070754e+10 4.159010e+08
3.522286e+10 3.069232e+10 1.052669e+09
3.101922e+10 3.979676e+10 -1.116853e+09
4.111524e+10 -2.543034e+09 1.356205e+09
-3.917760e+10 -5.179000e+10 2.692504e+09
3.200743e+10 3.920910e+09 -1.631611e+09
4.573041e+10 -6.402972e+10 -8.131597e+08
7.028511e+10 2.522513e+10 -5.445733e+09
-2.018562e+10 -2.076879e+10 3.626371e+08
4.346242e+10 -3.337546e+10 6.782767e+08
4.594850e+09 3.561387e+10 6.982863e+08
1.690099e+10 6.354623e+10 -6.770642e+08
1.189333e+10 3.957181e+10 2.000882e+08
-2.308217e+09 6.284494e+10 1.686707e+09
-5.795112e+10 -2.417921e+10 -1.909869e+09
-4.323583e+10 -5.575457e+10 -8.288764e+08
-3.340704e+10 1.433162e+10 -2.255027e+08
-3.520032e+10 8.664794e+09 -4.741911e+07
3.008590e+10 3.004300e+10 -2.365458e+08
-2.184533e+10 -2.452701e+10 3.725012e+09
1.283959e+09 -3.575398e+10 4.886158e+07
-1.799863e+09 -3.328127e+10 1.485715e+09
2.190405e+10 2.647762e+10 1.997808e+07
-2.712937e+10 2.112020e+10 -3.719540e+08
-1.268822e+10 -3.144321e+10 4.211200e+09
1.180520e+10 -2.938628e+10 -4.042597e+09
-3.447534e+10 -3.758572e+09 -2.626413e+08
5.430848e+10 2.628154e+10 -3.765988e+09
5.250817e+10 9.119173e+09 1.612635e+09
-2.741805e+10 3.779750e+10 -3.701676e+09
-1.777306e+10 -2.441911e+10 -1.460866e+09
-6.028410e+10 -2.263402e+10 8.371492e+08
-2.792181e+10 -1.143884e+10 -2.715530e+09
1.159558e+10 2.438225e+10 -3.683215e+08
4.836823e+10 -1.389946e+09 -8.369579e+07
2.398940e+10 6.134922e+10 -7.106205e+09
8.124909e+09 3.043065e+10 -3.909475e+09
7.253086e+10 -3.916898e+10 -3.422744e+09
3.632324e+10 -7.511582e+09 5.444942e+08
5.204906e+10 3.130387e+10 6.375782e+08
5.973457e+10 4.968044e+10 1.082798e+10
-1.586870e+10 -2.306766e+10 1.491384e+09
-3.534527e+10 -1.584389e+10 -1.621386e+09
2.919778e+10 3.379580e+10 1.913662e+09
-4.515230e+10 1.307017e+10 2.192090e+09
-4.980321e+10 -9.687629e+09 3.956809e+08
-4.718214e+10 -3.974052e+10 8.538127e+08
-3.213363e+10 -3.513820e+10 -5.705658e+07
3.180416e+10 -3.515386e+10 1.184004e+08
-3.704326e+08 4.006559e+10 9.428632e+08
3.407025e+10 2.526039e+10 -1.716590e+09
4.665676e+10 -2.384313e+10 -2.030661e+08
-1.898850e+10 -3.129581e+10 2.712765e+09
3.124205e+10 1.321533e+10 -8.765531e+08
4.268537e+10 -5.229935e+10 2.701982e+09
-1.841864e+10 3.101991e+10 -2.080425e+09
-4.026554e+10 -8.990216e+09 2.279326e+09
1.936614e+10 -2.081823e+10 8.105691e+08
3.295909e+10 4.391250e+10 1.007028e+09
6.450365e+10 5.439558e+10 -1.077169e+09
-4.333474e+10 -2.157586e+10 4.943214e+08
-3.215140e+10 1.351678e+10 -2.923951e+09
3.728734e+10 1.660960e+10 -2.185294e+09
-1.770044e+10 -3.355727e+10 1.154362e+09
-4.694452e+10 2.825649e+09 -1.021062e+09
-4.701030e+10 -1.752999e+10 6.147717e+08
-2.788987e+10 5.122222e+10 -1.029061e+09
-3.581160e+10 -3.642170e+10 3.486451e+09
2.704829e+10 1.230558e+10 -6.885633e+08
3.866633e+10 1.244332e+10 -6.455456e+08
-4.338216e+10 4.820139e+10 4.596155e+08
-3.487477e+10 1.758338e+10 5.149407e+08
2.195916e+10 2.412134e+10 4.324865e+08
4.428483e+10 -7.881988e+09 -1.459925e+09
-1.332076e+10 -3.182445e+10 -8.635086e+08
4.092387e+09 -3.904337e+10 -1.931533e+07
-4.713896e+09 -3.668560e+10 2.054838e+09
2.799183e+10 1.427732e+09 2.298412e+09
7.478056e+10 2.444752e+10 6.110942e+09
1.871110e+10 -5.299004e+10 1.220852e+09
-1.865098e+10 -5.303193e+10 -1.516915e+09
-4.357210e+10 1.463142e+10 -1.700430e+08
3.697854e+10 5.373469e+10 -4.106399e+07
-2.931154e+10 9.443123e+09 2.560092e+09
2.689978e+10 -3.320747e+10 -3.567496e+08
-1.015799e+10 -2.743701e+10 2.123446e+09
2.560201e+10 -2.767213e+10 1.273122e+09
4.534994e+10 3.973505e+10 -1.534312e+09
-8.746494e+09 -4.663010e+10 9.476002e+08
1.199481e+10 -4.992786e+10 4.579945e+08
-7.796055e+10 -1.668652e+10 -1.367677e+08
1.602953e+10 3.871556e+10 5.404233e+08
-5.306512e+10 -8.295335e+09 -1.410631e+09
-2.010577e+10 3.177858e+10 6.476520e+08
-2.994537e+10 -2.615786e+10 -8.014936e+08
-5.817539e+10 -4.533824e+09 -2.475742e+09
-1.033475e+10 -3.139562e+10 -4.548306e+09
3.614331e+10 1.356107e+10 1.467060e+08
-7.249941e+09 -6.404728e+10 -2.829032e+09
9.829264e+09 -5.298109e+10 2.670176e+08
-7.198630e+10 4.832936e+10 -1.049504e+10
-5.168726e+10 -2.133609e+10 -4.147153e+08
3.872142e+10 8.856059e+09 1.444648e+09
3.068962e+10 1.429530e+10 4.314988e+09
-2.138344e+10 2.807075e+10 2.181739e+09
1.144689e+10 -3.373834e+10 -3.420412e+08
-1.149895e+10 -3.413354e+10 3.028689e+08
-8.399887e+09 -3.259478e+10 2.161471e+09
5.371977e+10 7.240865e+10 3.024400e+09
4.744988e+10 5.144341e+10 2.175955e+09
3.077773e+10 -2.590250e+10 1.926245e+09
3.360332e+10 4.981788e+10 1.369100e+09
-6.393736e+10 5.587730e+09 -1.355365e+09
-6.766533e+10 -9.835868e+09 2.035858e+09
-3.838725e+10 2.006588e+09 -1.543934e+09
-2.283901e+10 -4.346897e+10 8.729538e+08
2.266207e+10 -3.949049e+10 -5.100652e+07
-3.746249e+10 8.816252e+09 2.971700e+08
-4.499597e+09 -2.907764e+10 -1.703720e+09
-1.379667e+10 6.130830e+10 -1.435347e+09
-3.242379e+10 -2.982942e+10 -1.006509e+09
-2.790657e+10 -2.912437e+10 1.213676e+09
-4.943033e+10 4.154463e+10 -1.371618e+09
-4.409703e+10 2.067064e+10 3.351976e+09
-2.206830e+10 2.583764e+10 6.843055e+08
3.312094e+10 -4.667007e+09 -3.336244e+08
-4.946726e+09 3.107649e+10 2.510534e+09
-1.497809e+10 3.435915e+10 1.009537e+09
-2.472302e+10 2.538303e+10 -2.400554e+09
-4.796214e+09 -2.862302e+10 3.074583e+08
-3.629901e+10 4.989230e+09 -1.170619e+09
5.328163e+10 7.348356e+10 -6.783978e+08
-1.484931e+10 -4.292974e+10 1.937323e+09
1.351040e+10 -4.098361e+10 -2.531022e+09
-3.381616e+10 1.396042e+10 4.508281e+08
-1.068660e+10 4.152982e+10 1.581595e+09
5.462137e+10 -2.522116e+10 -1.722759e+08
-8.178381e+08 7.752354e+10 -7.100758e+08
4.804673e+10 4.106058e+10 1.147050e+09
-5.631730e+10 1.544217e+09 -1.958299e+09
-1.564327e+09 -3.185833e+10 -6.159563e+08
-3.981183e+09 3.846558e+10 -3.372163e+09
-6.941113e+10 -4.926892e+10 -4.194930e+09
-2.979479e+10 3.914681e+10 -2.046498e+08
6.313100e+09 5.154438e+10 -7.448288e+08
-1.106858e+10 -3.808126e+10 -4.068484e+09
1.265155e+10 -3.851474e+10 2.763112e+09
-3.365573e+10 2.322336e+09 6.272474e+07
-5.258351e+10 1.492023e+10 -1.699523e+08
4.984811e+10 3.098300e+10 -1.052160e+09
-3.824466e+10 4.529871e+10 -3.078129e+08
4.419516e+08 -3.300011e+10 -1.176979e+09
-1.611288e+10 4.130668e+10 5.603998e+08
-5.473593e+09 8.518919e+10 5.225892e+08
1.818299e+10 4.131097e+10 1.337634e+09
3.261231e+10 -1.609369e+10 -6.928052e+08
-4.432290e+10 6.798664e+10 -1.959161e+09
-6.651216e+10 -1.105347e+10 9.180162e+08
6.407948e+10 -1.586223e+10 -2.922325e+09
-6.350799e+10 -3.565535e+10 -2.845937e+08
-5.348442e+10 7.921339e+09 2.444669e+09
2.833984e+10 2.167852e+10 3.753889e+08
1.600754e+09 -4.235191e+10 -5.491999e+08
-1.350804e+10 8.063995e+10 2.517803e+09
-6.738542e+10 -7.077447e+09 2.580449e+09
-4.148157e+10 -2.199583e+10 9.886355e+07
3.226879e+10 -1.399807e+10 1.756355e+09
-4.656740e+10 1.396413e+10 -1.281871e+08
5.300080e+10 -5.060730e+10 -6.513187e+09
-2.565996e+10 7.224732e+10 4.404296e+08
-3.896981e+09 5.902398e+10 5.105103e+08
-3.034976e+10 2.744479e+10 -3.603507e+08
-1.668632e+10 2.832960e+10 -1.185855e+09
7.390402e+07 -3.870876e+10 -7.111922e+08
-3.044256e+10 -9.966500e+09 3.742713e+09
1.488379e+10 6.503752e+10 -3.671846e+09
-8.654936e+10 6.918707e+09 -4.528083e+09
-3.429161e+10 -2.899413e+10 -2.133314e+07
1.406334e+09 3.684477e+10 2.662700e+09
1.229892e+10 2.339682e+10 -8.541226e+08
5.726135e+10 3.810695e+09 3.858949e+09
-8.982229e+09 -3.224964e+10 -4.231099e+08
9.459578e+09 -3.282247e+10 -4.004348e+08
-3.280208e+10 1.513562e+10 -5.271860e+09
-4.085803e+09 -6.742149e+10 -1.426534e+09
-2.363140e+10 7.114379e+10 4.019534e+09
3.220383e+10 3.362843e+09 1.017150e+09
-4.421225e+10 -4.075809e+10 2.234573e+08
-3.527936e+10 1.511099e+10 2.870631e+09
1.112182e+10 -7.821735e+10 -7.722905e+09
-1.473292e+10 -7.626076e+10 2.781168e+09
2.900435e+10 8.561772e+09 -3.956156e+08
-5.530387e+10 -1.854144e+10 5.910557e+07
3.371129e+10 3.625581e+09 -3.158274e+08
-4.015794e+09 3.948560e+10 -2.079201e+09
2.893629e+09 -6.411548e+10 4.447973e+09
-3.702219e+10 8.455456e+10 8.335166e+08
-8.444560e+10 4.259559e+10 1.026299e+09
-6.383924e+09 3.844186e+10 -3.111702e+09
-6.024842e+09 3.546466e+10 5.408979e+08
-1.996332e+10 2.365181e+10 -1.267033e+09
-5.816561e+09 4.882778e+10 -1.435938e+08
-3.327770e+09 -7.476204e+10 -3.369581e+08
8.761522e+09 -7.561443e+10 -3.249593e+09
-4.635902e+10 -6.597561e+10 -1.743828e+09
-3.443000e+10 1.884890e+10 1.577115e+09
-1.251161e+09 -6.965505e+10 3.360121e+09
7.072420e+10 -1.026716e+10 5.425092e+08
4.540847e+10 -6.443123e+10 -7.713759e+09
7.815679e+10 -3.219741e+10 -5.310572e+09
1.893025e+10 -5.440605e+10 1.184571e+09
-1.940318e+10 -5.425311e+10 -1.838100e+09
-3.332178e+10 -2.210112e+10 2.223117e+08
2.731167e+10 -3.145022e+10 -2.102692e+08
-2.272444e+10 -3.520495e+10 -1.168149e+09
2.868102e+10 -2.694811e+10 2.044231e+09
-2.775307e+10 -2.069162e+10 1.872891e+08
-2.071747e+09 -6.642486e+10 2.029561e+09
2.843713e+10 1.749509e+10 1.637968e+09
-4.985238e+10 3.077653e+10 -4.914483e+09
-4.578844e+10 2.294000e+10 -1.317287e+08
4.427061e+10 6.804121e+10 -7.359167e+09
-2.964697e+10 -1.662165e+10 -2.105292e+09
2.529358e+10 4.111075e+10 -1.003060e+09
3.434593e+10 -1.490778e+10 1.077356e+06
7.382885e+10 -5.523901e+09 2.625203e+09
-4.290859e+09 -5.898492e+10 1.007623e+09
3.707706e+09 -5.336672e+10 -5.551249e+08
3.165435e+08 -8.490650e+10 2.316046e+09
4.372867e+10 2.274551e+10 7.185499e+08
6.404362e+09 -3.878680e+10 1.477751e+09
-7.897972e+09 -3.508622e+10 -1.373924e+09
-5.641630e+10 6.424451e+10 -1.818531e+09
8.091163e+10 -4.190612e+10 -9.184735e+08
-4.002640e+10 2.559361e+10 2.823605e+08
-1.373535e+10 3.807838e+10 2.706003e+08
7.631443e+10 2.685872e+10 -4.270309e+07
2.729649e+10 -1.141544e+10 4.518227e+09
-6.576199e+10 -1.133672e+08 -1.181902e+09
1.185114e+09 -7.610864e+10 -2.220481e+08
5.913077e+10 5.022279e+10 1.421282e+09
-4.142128e+10 1.819198e+10 7.875001e+07
7.900091e+10 -1.277278e+10 -2.136978e+09
3.014611e+10 -1.615216e+10 1.014512e+09
-2.936319e+10 3.902625e+10 1.910475e+09
-6.242674e+10 1.877451e+10 4.423105e+08
-2.858810e+10 -5.487121e+10 2.461595e+08
2.636741e+10 -4.457441e+10 -8.126472e+08
-4.218010e+10 3.156967e+10 6.096500e+08
3.664079e+10 -5.019925e+09 2.651152e+09
4.678243e+08 -5.101948e+10 -8.883183e+08
-3.338401e+10 -1.525308e+10 3.054517e+09
1.742476e+10 3.587891e+10 1.238782e+09
8.029298e+09 3.557446e+10 1.710483e+09
-2.890804e+10 1.922978e+10 -8.800236e+08
4.016216e+10 4.647253e+10 -4.363398e+08
5.640150e+10 1.903911e+10 -2.607766e+09
4.160912e+09 6.404869e+10 1.244542e+09
8.494882e+08 2.733043e+10 8.211959e+08
2.973762e+10 -2.555786e+10 -1.273803e+09
-2.500174e+10 -7.158597e+10 1.390561e+09
2.255219e+09 -5.106489e+10 -1.258637e+09
2.497380e+10 -7.331519e+10 -2.355488e+09
-2.500504e+10 -3.088569e+10 1.563108e+09
1.960038e+10 -2.459017e+10 -1.599530e+09
-1.315146e+09 -3.986458e+10 -8.793598e+08
1.342258e+09 -4.290217e+10 -1.019981e+09
1.774551e+10 2.284305e+10 7.719359e+06
-9.900785e+09 3.760010e+10 2.451214e+09
1.660442e+10 -2.544166e+10 2.982861e+09
-2.140744e+10 -2.874098e+10 2.644083e+09
-2.080135e+10 3.058783e+10 -4.464057e+08
-4.899270e+08 -3.289089e+10 -7.544434e+08
5.691255e+10 -5.002820e+10 5.408778e+09
4.451497e+10 8.878861e+09 -2.677317e+09
-4.806312e+10 -1.584703e+10 -1.088239e+09
3.982184e+10 -2.537777e+10 -1.414671e+09
-1.482698e+10 3.598848e+10 -2.199881e+09
5.302088e+08 3.269089e+10 1.900819e+09
3.375644e+10 -2.592781e+10 -3.180581e+08
-2.213438e+10 6.845340e+10 -6.109054e+09
-3.943185e+10 -4.437164e+09 2.610170e+09
-2.694813e+10 2.704412e+10 -1.484392e+09
-1.312614e+08 -4.068233e+10 1.046361e+09
-6.899058e+09 -3.938655e+10 -2.161721e+09
7.625658e+09 -4.550585e+10 1.524670e+09
1.713280e+10 7.354335e+10 -1.934727e+09
2.261406e+10 1.993965e+10 8.183777e+08
4.278609e+10 2.015232e+10 -2.172612e+09
-2.487246e+10 3.178377e+10 1.164283e+09
8.506229e+09 4.488439e+10 -3.262652e+09
1.946380e+10 4.593402e+10 -1.880050e+09
-1.478226e+10 -2.282965e+10 -4.099772e+08
2.164415e+10 -3.061457e+10 -9.985584e+08
-5.503942e+10 -2.912264e+10 1.129480e+08
7.291133e+10 -2.522554e+10 1.066750e+10
-1.558368e+10 -3.195160e+10 -1.057464e+09
1.857634e+10 -3.570853e+10 3.376271e+09
7.603325e+09 8.289804e+10 2.656534e+09
3.681312e+10 -3.138926e+10 7.714637e+08
-3.194762e+10 -4.162703e+10 2.209843e+09
-2.980322e+10 2.389815e+10 9.877841e+08
4.254799e+10 5.234310e+10 1.917529e+08
-2.574982e+10 -2.824201e+10 4.344313e+08
2.775330e+10 -2.791426e+10 -9.728183e+08
4.680384e+10 -3.202100e+10 1.728594e+09
-3.734946e+09 -4.645859e+10 -5.181085e+08
1.717206e+09 -3.676570e+10 2.101217e+09
-2.982159e+10 -1.423911e+10 -2.337199e+08
3.198821e+10 7.221119e+09 -2.084780e+09
3.588754e+10 2.003465e+10 -1.058086e+09
8.737698e+09 -6.808385e+10 2.894823e+09
-1.162530e+10 -6.227993e+10 2.278179e+08
-3.590023e+10 5.869673e+10 -2.083847e+08
-4.258571e+10 -7.194787e+09 -2.407401e+09
4.949281e+10 -6.036095e+09 -8.172638e+08
2.451322e+10 -3.682452e+10 -3.333168e+08
3.448949e+10 -1.554755e+10 7.783865e+08
-4.347794e+10 -5.096429e+09 5.970826e+08
5.323510e+09 3.289417e+10 -4.967426e+08
2.787846e+10 3.500918e+10 -1.480653e+09
-3.595224e+10 -5.399739e+09 -8.297528e+08
-1.834390e+10 4.198473e+10 -6.479824e+08
3.868845e+10 -9.172701e+08 -2.766730e+09
3.329167e+10 1.533285e+10 2.030347e+09
1.776687e+10 -2.855320e+10 -4.736142e+09
-1.935526e+10 -2.802968e+10 3.009585e+07
-2.308299e+10 -4.435568e+10 2.585511e+09
6.757931e+09 7.013927e+10 6.918294e+08
-7.482331e+10 2.193713e+08 1.278155e+09
7.186106e+10 2.637736e+10 4.336586e+09
4.853265e+10 -2.649654e+10 4.470598e+08
4.183293e+10 5.277019e+10 -1.892773e+09
-3.168058e+10 1.175093e+10 -1.220020e+09