# vtk DataFile Version 2.0
Electric current density generated by TTH
ASCII
DATASET UNSTRUCTURED_GRID
POINTS 2810 double
-1.840950e-05 2.147520e-05 -3.235775e-22
-1.828962e-05 -1.944483e-05 1.293214e-06
-1.451540e-05 -2.240347e-05 1.293216e-06
2.767718e-05 3.316217e-06 9.574118e-07
2.769888e-05 -3.397304e-06 -9.266492e-07
-5.024875e-06 2.742836e-05 -9.480940e-07
-1.683710e-05 1.952525e-05 5.888988e-07
4.351202e-06 2.615309e-05 -1.241287e-06
2.000350e-05 -1.605215e-05 1.042722e-07
2.000350e-05 1.605215e-05 -1.042722e-07
-9.984749e-06 -2.464013e-05 1.265715e-06
-1.902914e-05 2.092811e-05 -3.235775e-22
-2.154339e-05 -1.557928e-05 1.265719e-06
1.169576e-05 -2.286790e-05 3.286214e-07
-1.592813e-05 2.037048e-05 -7.220491e-07
-2.140716e-05 1.609175e-05 1.308225e-06
-2.212223e-05 1.698217e-05 -9.442048e-07
2.364064e-05 -1.295439e-05 1.321084e-06
2.364064e-05 1.295439e-05 -1.321084e-06
2.610728e-05 -7.609990e-06 -1.301114e-06
2.610728e-05 7.609990e-06 1.301114e-06
1.796195e-05 1.988435e-05 -1.310258e-06
-1.963253e-05 2.036314e-05 -3.235775e-22
1.796195e-05 -1.988435e-05 1.310258e-06
-1.119746e-05 2.555258e-05 9.348049e-07
-1.931658e-05 2.013361e-05 9.316580e-07
-1.624316e-05 2.270976e-05 9.117816e-07
-1.267860e-05 2.488427e-05 9.042058e-07
-1.474437e-08 -2.566719e-05 2.479378e-07
4.999540e-07 2.789286e-05 -9.358031e-07
2.599786e-05 4.277732e-06 1.167974e-06
2.599786e-05 -4.277732e-06 -1.167974e-06
1.125606e-05 2.559604e-05 8.669351e-07
-2.021916e-05 1.978078e-05 -3.235775e-22
-2.792064e-05 -9.722205e-07 -8.939229e-07
1.963647e-05 1.985384e-05 9.081563e-07
1.963647e-05 -1.985384e-05 -9.081563e-07
-1.744794e-05 2.166213e-05 -1.011133e-06
1.046043e-05 2.595341e-05 -8.428520e-07
-2.651858e-05 -9.087158e-07 -1.248934e-06
-2.257444e-05 1.251216e-05 -6.417573e-07
6.462873e-06 -2.497189e-05 -6.132043e-07
-1.318080e-06 2.564075e-05 -2.839865e-07
2.274306e-05 1.194663e-05 -3.461007e-07
-2.078852e-05 1.918153e-05 -3.235775e-22
2.274306e-05 -1.194663e-05 3.461007e-07
-2.478798e-05 1.042719e-05 -1.319087e-06
3.377034e-06 2.777517e-05 -8.457605e-07
-2.707629e-05 6.782985e-06 -9.199621e-07
2.621071e-05 -2.803694e-06 1.174648e-06
2.621071e-05 2.803694e-06 -1.174648e-06
2.730495e-05 -5.751013e-06 9.291023e-07
2.730495e-05 5.751013e-06 -9.291023e-07
-2.788977e-05 -1.224740e-06 9.161639e-07
-2.758263e-05 4.440215e-06 8.937357e-07
-2.134013e-05 1.856590e-05 -3.235775e-22
-2.234740e-05 1.681996e-05 8.573574e-07
-2.452915e-05 1.027698e-05 1.268295e-06
1.813396e-05 -2.127322e-05 8.764165e-07
1.826399e-05 2.121223e-05 -8.312380e-07
-1.164161e-05 2.554619e-05 -7.180744e-07
1.614773e-05 -2.279160e-05 8.997547e-07
1.617054e-05 2.282558e-05 -8.536570e-07
1.895120e-05 1.858237e-05 -1.251454e-06
1.895120e-05 -1.858237e-05 1.251454e-06
1.199688e-05 2.526403e-05 -8.598923e-07
-2.187351e-05 1.793442e-05 -3.235775e-22
2.414481e-05 9.154013e-06 6.625119e-07
2.414481e-05 -9.154013e-06 -6.625119e-07
-7.893812e-06 2.536861e-05 1.260217e-06
-2.614123e-05 9.914320e-06 8.709971e-07
-2.790086e-05 1.782470e-06 8.714618e-07
-2.461737e-05 1.333802e-05 8.226557e-07
-2.703022e-05 -7.190962e-06 8.568345e-07
-2.594445e-05 -1.045174e-05 8.566062e-07
1.320563e-05 -2.284530e-05 1.188249e-06
1.298905e-05 -2.375174e-05 1.316800e-06
-2.238821e-05 1.728762e-05 -3.235775e-22
-2.562581e-05 -1.199993e-06 1.636510e-07
-5.856186e-06 2.733088e-05 -8.788011e-07
-2.552287e-05 7.437571e-06 -1.265169e-06
-1.874018e-06 -2.560194e-05 2.643278e-07
-1.240606e-05 2.277486e-05 -8.270516e-07
6.631526e-06 -2.721129e-05 -8.110055e-07
-3.131832e-06 2.585127e-05 9.436896e-07
2.529394e-05 1.176546e-05 -9.367360e-07
2.529394e-05 -1.176546e-05 9.367360e-07
-2.011934e-05 1.644883e-05 -8.889411e-07
-2.288380e-05 1.662605e-05 -3.235775e-22
-1.277270e-06 -2.661198e-05 1.281210e-06
2.107211e-05 1.463302e-05 1.693326e-07
2.107211e-05 -1.463302e-05 -1.693326e-07
1.220320e-06 2.561523e-05 -3.868009e-08
3.012205e-06 -2.778104e-05 8.870121e-07
9.337228e-06 -2.634157e-05 8.830002e-07
1.293809e-05 2.372662e-05 -1.319738e-06
2.762166e-05 4.100356e-06 -9.080937e-07
2.762166e-05 -4.100356e-06 9.080937e-07
-2.441356e-05 8.096187e-06 -4.452411e-07
-2.335984e-05 1.595029e-05 -3.235775e-22
-1.993816e-05 1.612976e-05 7.142825e-08
2.644314e-05 4.222164e-06 -1.307842e-06
2.644314e-05 -4.222164e-06 1.307842e-06
1.506884e-05 2.207988e-05 -1.300399e-06
1.506884e-05 -2.207988e-05 1.300399e-06
-5.472110e-06 2.505366e-05 3.893861e-08
-1.788956e-05 -2.152906e-05 8.311363e-07
-1.663491e-05 -2.251257e-05 8.311457e-07
3.984220e-06 2.634370e-05 1.281379e-06
-1.217883e-05 2.279086e-05 6.941889e-07
-2.381593e-05 1.526091e-05 -3.235775e-22
1.406338e-05 2.266503e-05 1.288613e-06
-2.711611e-05 1.378640e-06 1.307902e-06
1.248923e-05 2.386705e-05 1.320818e-06
-9.460958e-06 2.464924e-05 1.195478e-06
-1.583695e-05 -2.020267e-05 2.629618e-07
2.558832e-05 -1.115449e-05 -9.190260e-07
2.559041e-05 1.112952e-05 9.272728e-07
7.834314e-06 2.568965e-05 1.316753e-06
8.629423e-06 2.657458e-05 8.906463e-07
-7.891063e-07 -2.653040e-05 -1.251660e-06
-2.425169e-05 1.455849e-05 -3.235775e-22
-2.231812e-05 -1.689119e-05 8.339117e-07
-1.107373e-05 -2.570571e-05 8.339090e-07
-2.748273e-05 5.133346e-06 -8.711195e-07
7.242799e-06 2.482070e-05 -7.179936e-07
-2.564508e-05 -2.134650e-09 -5.987292e-08
7.227851e-07 -2.784152e-05 -9.798956e-07
1.469822e-05 -2.379074e-05 8.632064e-07
1.469822e-05 2.379074e-05 -8.632064e-07
-2.435947e-05 -8.165504e-06 3.525020e-07
4.920620e-06 -2.636807e-05 -1.313500e-06
-2.466673e-05 1.384364e-05 -3.235775e-22
1.344422e-05 -2.454074e-05 -8.429518e-07
-2.641403e-06 2.552743e-05 -2.290570e-07
-1.954009e-05 1.846389e-05 1.318609e-06
2.699160e-05 2.277865e-06 -1.315393e-06
2.699160e-05 -2.277865e-06 1.315393e-06
2.128668e-05 -1.807608e-05 -9.062354e-07
2.125088e-05 1.810153e-05 9.175349e-07
-3.424268e-06 2.774927e-05 -8.691607e-07
1.765871e-05 -1.959418e-05 -1.183274e-06
1.765871e-05 1.959418e-05 1.183274e-06
-2.506071e-05 1.311697e-05 -3.235775e-22
-2.689836e-05 7.685208e-06 -8.517402e-07
-2.558431e-05 1.827896e-06 1.236988e-07
-2.567673e-05 7.080414e-06 1.279288e-06
2.158597e-06 -2.747726e-05 -1.178474e-06
-1.886640e-05 2.062318e-05 -8.791144e-07
-7.515495e-06 2.693140e-05 -8.684360e-07
-1.692835e-05 -2.034041e-05 1.222172e-06
-1.571033e-05 -2.129395e-05 1.221746e-06
-1.447163e-05 -2.397465e-05 8.160147e-07
-1.982583e-05 -1.977748e-05 8.160061e-07
-2.543328e-05 1.237909e-05 -3.235775e-22
-2.657776e-05 -7.533247e-07 1.266354e-06
2.520812e-05 4.759759e-06 -1.608624e-07
2.520812e-05 -4.759759e-06 1.608624e-07
2.627386e-05 9.612246e-06 8.490446e-07
2.627386e-05 -9.612246e-06 -8.490446e-07
-2.732465e-05 6.009431e-06 8.482228e-07
1.667984e-05 -2.055823e-05 -1.226430e-06
1.667984e-05 2.055823e-05 1.226430e-06
6.681206e-06 -2.634600e-05 -1.303470e-06
-2.743356e-05 3.387158e-06 -1.134428e-06
-2.578414e-05 1.163065e-05 -3.235775e-22
2.732923e-06 -2.560133e-05 -5.115576e-07
-1.332559e-05 2.308077e-05 1.283371e-06
1.438452e-05 -2.273310e-05 -1.319603e-06
-1.993565e-05 1.964457e-05 8.354815e-07
-2.786091e-05 2.675915e-06 8.343452e-07
2.488984e-07 -2.700554e-05 1.320442e-06
2.588768e-05 -9.037048e-07 -7.866424e-07
2.588768e-05 9.037048e-07 7.866424e-07
-2.343878e-05 1.165248e-05 -1.059379e-06
1.932878e-08 2.668857e-05 1.291901e-06
-2.611298e-05 1.087227e-05 -3.235775e-22
-2.155210e-05 1.784085e-05 -8.473780e-07
-2.090105e-05 1.485766e-05 -1.335796e-08
2.057645e-05 1.576507e-05 8.105143e-07
2.057645e-05 -1.576507e-05 -8.105143e-07
8.682673e-06 2.412912e-05 1.221956e-08
2.113711e-05 1.848768e-05 -7.059099e-07
2.116053e-05 -1.840966e-05 7.565111e-07
-2.541820e-05 1.168811e-05 8.493452e-07
8.260079e-06 -2.441450e-05 5.719679e-07
-2.605064e-05 1.044177e-05 -7.307945e-07
-2.641951e-05 1.010461e-05 -3.235775e-22
2.536202e-05 8.432305e-06 -1.299535e-06
2.536202e-05 -8.432305e-06 1.299535e-06
-2.643268e-05 -5.452060e-06 1.320883e-06
2.673683e-05 -8.471869e-06 7.578566e-07
2.674673e-05 8.481477e-06 -7.399245e-07
1.433145e-05 2.276851e-05 -1.319679e-06
1.433145e-05 -2.276851e-05 1.319679e-06
2.619434e-05 -3.340983e-06 -1.197347e-06
2.619434e-05 3.340983e-06 1.197347e-06
-4.082120e-06 -2.769171e-05 8.320762e-07
-2.670349e-05 9.328316e-06 -3.235775e-22
-5.312682e-06 -2.646987e-05 1.320695e-06
-2.443538e-05 -1.147890e-05 1.320707e-06
1.014279e-05 -2.481044e-05 1.311233e-06
-2.107888e-05 1.496060e-05 -7.063046e-07
-2.120988e-05 -1.441439e-05 4.147699e-08
-8.934131e-06 -2.403778e-05 4.132532e-08
2.517534e-05 5.976750e-06 7.468259e-07
2.517534e-05 -5.976750e-06 -7.468259e-07
2.448370e-05 -7.628708e-06 5.005203e-08
2.448370e-05 7.628708e-06 -5.005203e-08
-2.696466e-05 8.544058e-06 -3.235775e-22
2.771221e-05 9.471272e-07 -1.078091e-06
2.771757e-05 -8.976910e-07 1.075452e-06
-1.107591e-05 -2.430747e-05 -1.296681e-06
-8.499302e-06 2.459172e-05 9.224012e-07
2.511969e-05 -6.238133e-06 7.578106e-07
2.511969e-05 6.238133e-06 -7.578106e-07
2.765712e-05 -4.276882e-06 -8.383375e-07
2.764297e-05 4.223336e-06 8.645786e-07
-2.391458e-05 -1.109896e-05 -1.176898e-06
-1.857956e-05 -1.864928e-05 -1.155725e-06
-2.720280e-05 7.752504e-06 -3.235775e-22
-5.125588e-06 -2.584915e-05 -1.170594e-06
-1.370629e-05 -2.247443e-05 -1.155377e-06
2.316967e-05 -1.582044e-05 7.452449e-07
2.316967e-05 1.582044e-05 -7.452449e-07
-1.622260e-05 2.004487e-05 5.983811e-07
-2.545430e-05 -5.407277e-06 -9.257255e-07
1.313768e-05 -2.210372e-05 -4.230408e-07
2.554989e-05 2.255851e-06 1.211727e-07
2.554989e-05 -2.255851e-06 -1.211727e-07
-1.876846e-05 -1.831066e-05 1.091737e-06
-2.741772e-05 6.954329e-06 -3.235775e-22
-1.329968e-05 -2.259768e-05 1.091753e-06
2.329526e-05 -1.328347e-05 -1.312742e-06
2.329526e-05 1.328347e-05 1.312742e-06
-1.101521e-05 -2.579617e-05 -7.541092e-07
-2.337654e-05 -1.555676e-05 -7.086142e-07
-2.058155e-05 1.697951e-05 1.290374e-06
2.236601e-05 1.473338e-05 1.308486e-06
2.236601e-05 -1.473338e-05 -1.308486e-06
7.108913e-06 2.700128e-05 9.111750e-07
-2.289501e-05 -1.428337e-05 -1.320950e-06
-2.760921e-05 6.150215e-06 -3.235775e-22
-2.071935e-05 -1.583278e-05 9.775863e-07
[...]
POINT_DATA 2810
VECTORS 10.000GHz_fone_imag double
1.694822e+10 1.523700e+10 -6.518969e+08
-2.023111e+10 1.906309e+10 1.312809e+07
-2.614885e+10 1.684979e+10 8.432421e+07
2.035470e+09 -2.317125e+10 3.826142e+08
-2.498932e+09 -2.391631e+10 3.071389e+08
2.552982e+10 4.490840e+09 4.370075e+08
2.571916e+10 2.221736e+10 -1.052995e+09
2.880892e+10 -2.362293e+09 1.576782e+09
-1.970817e+10 -2.328785e+10 -5.886084e+08
2.022937e+10 -2.411986e+10 -2.260542e+08
-2.556241e+10 1.032723e+10 -8.881352e+08
1.613503e+10 1.464918e+10 -4.729637e+07
-1.606865e+10 2.217595e+10 7.216116e+08
-3.049689e+10 -1.142936e+10 6.313177e+08
2.423491e+10 2.059663e+10 -1.251823e+09
1.625849e+10 2.249514e+10 -6.625800e+07
1.431245e+10 2.024631e+10 1.249520e+09
-1.375949e+10 -2.530353e+10 9.783392e+07
1.388522e+10 -2.530459e+10 1.178956e+08
-7.446466e+09 -2.400819e+10 -7.273379e+08
6.655161e+09 -2.426557e+10 -5.632079e+08
2.203179e+10 -2.060810e+10 2.035166e+08
1.591806e+10 1.541674e+10 1.733908e+07
-2.221995e+10 -2.093610e+10 2.232950e+08
1.999693e+10 9.168724e+09 9.184615e+08
1.835476e+10 1.630027e+10 6.479320e+08
1.839466e+10 1.282173e+10 -1.527815e+08
2.041705e+10 1.086461e+10 -5.484214e+08
-3.952417e+10 -1.708087e+07 3.744008e+09
2.471856e+10 -5.889831e+08 -4.590365e+08
4.139455e+09 -2.727695e+10 3.159494e+08
-3.773380e+09 -2.870290e+10 6.215584e+07
2.078476e+10 -8.629550e+09 6.749853e+07
1.463239e+10 1.573701e+10 -1.864659e+08
-1.233288e+09 2.364155e+10 1.127919e+08
1.775873e+10 -1.809086e+10 1.395149e+07
-1.768006e+10 -1.771637e+10 -2.537363e+08
1.897997e+10 1.475770e+10 3.636010e+08
2.031292e+10 -8.813715e+09 -5.510891e+07
-1.499648e+09 2.910704e+10 3.917856e+07
1.527583e+10 2.678815e+10 1.203905e+09
-2.978302e+10 -6.480237e+09 1.928545e+08
3.147012e+10 1.902948e+09 1.150055e+09
1.422609e+10 -2.861942e+10 9.218917e+08
1.452094e+10 1.498986e+10 -1.927027e+08
-1.417930e+10 -2.859945e+10 8.594091e+08
1.028784e+10 2.365004e+10 3.846297e+08
2.286094e+10 -3.597420e+09 -4.553881e+08
6.271450e+09 2.240566e+10 1.266154e+09
-3.332176e+09 -2.756294e+10 -2.211956e+08
3.189196e+09 -2.708874e+10 7.013775e+07
-4.598892e+09 -2.436403e+10 -5.550425e+08
5.198578e+09 -2.302720e+10 -9.311337e+08
-4.342452e+08 2.300872e+10 -1.366080e+09
4.104083e+09 2.176516e+10 -2.087122e+09
1.501867e+10 1.678439e+10 6.575048e+07
1.436964e+10 1.856041e+10 -7.251188e+08
1.020097e+10 2.594076e+10 -6.932867e+08
-1.689817e+10 -1.472452e+10 -3.300488e+08
1.626729e+10 -1.499544e+10 -4.799276e+08
2.090038e+10 9.711757e+09 1.028435e+08
-1.909389e+10 -1.309659e+10 1.508496e+09
1.872534e+10 -1.260515e+10 -4.952728e+08
1.811640e+10 -1.842740e+10 -2.749847e+08
-1.732825e+10 -1.916160e+10 4.231070e+07
1.999413e+10 -9.054954e+09 -6.269742e+08
1.313451e+10 1.713826e+10 8.383002e+08
1.134975e+10 -2.941137e+10 -4.875554e+08
-1.098941e+10 -2.875400e+10 -5.901118e+08
2.690721e+10 7.980658e+09 1.526810e+09
8.270266e+09 2.115011e+10 -1.829435e+08
1.642714e+09 2.289605e+10 -3.808937e+08
1.101572e+10 1.905070e+10 -1.284678e+09
-6.012482e+09 2.283190e+10 -1.431432e+08
-8.992144e+09 2.028329e+10 -7.545802e+08
-2.671057e+10 -1.459170e+10 -9.340358e+08
-2.263600e+10 -1.307139e+10 4.268615e+08
1.359929e+10 1.685245e+10 8.201370e+08
-2.222673e+09 3.104792e+10 -3.470847e+08
2.308679e+10 6.058270e+09 7.218058e+08
6.944684e+09 2.602533e+10 -3.622566e+08
-3.048729e+10 9.214328e+08 -2.043731e+08
2.808659e+10 1.300834e+10 2.670404e+08
-2.147584e+10 -4.669951e+09 2.457662e+08
3.081735e+10 3.398602e+09 1.029932e+08
9.572400e+09 -2.087999e+10 -9.402486e+08
-8.775301e+09 -2.059955e+10 -9.678973e+08
2.006208e+10 2.240129e+10 -4.843582e+08
1.355990e+10 1.845021e+10 5.900205e+08
-2.802781e+10 1.570568e+09 -8.903475e+08
1.568036e+10 -2.557764e+10 -1.453752e+05
-1.726852e+10 -2.538911e+10 -2.170512e+07
3.185414e+10 -3.109057e+08 -1.151255e+08
-2.215259e+10 -1.805666e+09 -1.108539e+09
-2.076122e+10 -8.838918e+09 -2.351827e+07
2.278725e+10 -1.262348e+10 -7.549636e+07
2.637798e+09 -2.286063e+10 1.079358e+09
-2.169265e+09 -2.236502e+10 7.791947e+08
1.076541e+10 2.843448e+10 -1.083293e+08
1.236533e+10 1.747766e+10 1.219679e+09
2.012200e+10 2.307866e+10 -2.644026e+08
3.149278e+09 -2.696804e+10 -1.411492e+09
-3.751876e+09 -2.578417e+10 -1.327340e+09
2.535557e+10 -1.748126e+10 -7.050793e+08
-2.451671e+10 -1.593324e+10 -1.142034e+09
2.981459e+10 6.422244e+09 2.765947e+08
-1.628693e+10 1.409872e+10 -1.540126e+08
-1.805302e+10 1.334587e+10 -1.177312e+08
2.591413e+10 -3.718752e+09 -1.041910e+08
2.606215e+10 1.375439e+10 -7.416544e+08
1.175541e+10 1.813096e+10 -1.746032e+08
2.556209e+10 -1.592203e+10 1.064300e+08
1.278021e+09 2.463934e+10 -6.891628e+08
2.511411e+10 -1.447117e+10 3.945138e+08
2.547134e+10 1.056848e+10 -1.754548e+08
-2.362096e+10 2.154050e+10 4.525119e+08
-1.015270e+10 -2.332555e+10 3.243016e+08
9.427210e+09 -2.211386e+10 1.580494e+08
2.470578e+10 -7.934143e+09 1.003899e+09
2.313447e+10 -7.148298e+09 -6.765255e+08
-2.771906e+10 2.247887e+09 7.700944e+08
1.248625e+10 1.999103e+10 1.064062e+09
-1.278810e+10 1.885590e+10 -1.023704e+09
-2.078241e+10 7.912443e+09 1.211805e+09
3.569701e+09 2.253076e+10 2.039511e+08
3.166503e+10 -9.311921e+09 -5.033631e+08
1.794190e+08 3.184006e+10 -1.638660e+08
-2.301837e+10 -8.035878e+08 -8.472266e+08
-2.108528e+10 -1.119508e+10 1.238973e+09
1.876309e+10 -1.158989e+10 4.907238e+08
-1.078485e+10 3.127414e+10 5.269448e+08
-2.802528e+10 -4.823486e+09 -9.211887e+06
9.372765e+09 1.909245e+10 1.522783e+09
-2.044458e+10 -1.119627e+10 3.286485e+08
3.525301e+10 2.738558e+09 2.878921e+08
2.062863e+10 1.905790e+10 -5.206741e+08
2.459189e+09 -2.686670e+10 2.056647e+08
-2.453972e+09 -2.579098e+10 -2.814577e+08
-1.638842e+10 -1.926661e+10 -6.496227e+07
1.636538e+10 -1.846056e+10 1.461792e+07
2.540643e+10 3.321906e+09 -6.319075e+07
-2.028704e+10 -1.798114e+10 2.369664e+09
2.033736e+10 -1.774041e+10 1.294324e+09
9.744008e+09 1.873683e+10 -8.298151e+08
6.347029e+09 2.234527e+10 2.507933e+08
2.803246e+09 3.307241e+10 6.993520e+07
7.263284e+09 2.650403e+10 4.436083e+08
-2.440546e+10 -1.982036e+09 1.468196e+08
1.661030e+10 1.496241e+10 -2.204109e+08
1.979628e+10 6.557457e+09 -1.691982e+08
-2.257405e+10 1.736120e+10 -6.427270e+08
-2.265886e+10 1.655003e+10 6.178624e+08
-1.879304e+10 1.223187e+10 8.389161e+07
-1.633791e+10 1.597701e+10 -4.064218e+08
9.311171e+09 1.962477e+10 7.467640e+08
-8.152930e+08 2.791373e+10 -1.375486e+09
6.441884e+09 -3.147570e+10 -7.445893e+08
-6.552127e+09 -3.006805e+10 2.922121e+08
8.611030e+09 -2.059334e+10 7.741557e+08
-8.140250e+09 -2.055546e+10 1.198324e+09
3.665410e+09 2.177028e+10 5.872916e+08
-2.274127e+10 -1.769266e+10 -4.346312e+08
2.180599e+10 -1.898346e+10 -1.344926e+09
-2.475583e+10 -5.687431e+09 4.326877e+08
2.220241e+09 2.277628e+10 -1.049954e+09
9.169466e+09 1.949600e+10 4.236130e+08
-3.057095e+10 -3.912844e+09 -7.043831e+07
2.415995e+10 1.420190e+10 -9.464490e+08
-2.274136e+10 -1.169471e+10 8.146651e+08
1.555290e+10 1.644697e+10 1.865460e+08
1.762576e+09 2.248777e+10 -1.596639e+08
-2.531419e+10 7.006340e+08 1.172260e+08
-1.417917e+08 -2.915870e+10 -3.022323e+08
1.524221e+09 -3.087072e+10 7.001287e+07
1.450870e+10 2.535355e+10 -1.980097e+09
2.706135e+10 -5.558235e+08 -1.274751e+09
7.936967e+09 1.955352e+10 -1.955709e+08
1.428886e+10 1.729692e+10 -5.874001e+06
1.933940e+10 2.708386e+10 -1.168155e+09
1.945112e+10 -2.407326e+10 -4.289135e+08
-1.910506e+10 -2.406228e+10 -9.300589e+08
2.892899e+10 -9.289546e+09 -2.320541e+08
1.485960e+10 -1.705517e+10 4.848178e+08
-1.660446e+10 -1.821548e+10 1.441943e+09
9.944601e+09 2.058378e+10 5.026618e+08
-2.891288e+10 -1.211149e+10 -2.362992e+08
7.223125e+09 2.026117e+10 -7.525013e+08
7.860124e+09 2.027706e+10 -5.763829e+08
9.759504e+09 -2.555467e+10 3.982331e+08
-9.027987e+09 -2.592663e+10 6.413209e+08
-5.193100e+09 2.546626e+10 8.120642e+08
-6.090300e+09 -2.127704e+10 -2.300022e+08
6.187246e+09 -2.128360e+10 -1.098034e+08
2.201867e+10 -1.389604e+10 5.820809e+08
-2.114246e+10 -1.513257e+10 -1.124008e+09
-4.275821e+09 -2.886056e+10 6.328862e+08
3.916453e+09 -2.831013e+10 1.743321e+09
-2.181367e+10 2.477398e+09 -4.819001e+08
7.035822e+09 2.039979e+10 -4.225326e+07
-2.607798e+10 5.284757e+09 -4.902530e+08
-1.002451e+10 2.436515e+10 7.715922e+08
-2.582780e+10 -8.773382e+09 1.024265e+09
1.686529e+10 2.551218e+10 2.578400e+09
-1.816611e+10 2.711798e+10 -4.941223e+08
-3.119955e+10 1.154684e+10 7.086863e+08
9.041113e+09 -2.851253e+10 -5.359407e+06
-7.517119e+09 -2.887768e+10 -1.368680e+08
-9.127132e+09 -2.925784e+10 -8.773305e+07
8.838671e+09 -3.052693e+10 6.006968e+07
6.385538e+09 2.104057e+10 -3.547507e+08
6.657248e+08 -2.390302e+10 3.784931e+07
-4.334134e+08 -2.344131e+10 -3.167504e+08
-2.472855e+10 1.200105e+10 8.759093e+08
2.867595e+10 1.006272e+10 5.959207e+08
-7.376552e+09 -2.968691e+10 -6.231897e+08
8.747872e+09 -2.991102e+10 1.867926e+08
-3.556776e+09 -2.331201e+10 -4.851616e+08
3.647476e+09 -2.295834e+10 -5.350241e+08
-1.111146e+10 2.716806e+10 1.006398e+09
-1.937567e+10 2.003952e+10 -3.079795e+07
7.132238e+09 2.100605e+10 2.013301e+08
-2.824809e+10 5.459756e+09 2.828397e+08
-2.404937e+10 1.419797e+10 1.029721e+09
-1.305841e+10 -1.833776e+10 -3.540880e+08
1.268948e+10 -1.894521e+10 2.852066e+08
2.161515e+10 1.945852e+10 5.878977e+07
-6.563143e+09 3.128723e+10 -9.432040e+08
-2.651448e+10 -1.613822e+10 1.125138e+09
4.123765e+09 -3.015232e+10 -1.910962e+09
-3.809508e+09 -3.078798e+10 -3.697332e+08
-1.998454e+10 2.097349e+10 -1.151848e+09
5.998060e+09 2.255856e+10 -1.875949e+09
-2.347761e+10 1.560231e+10 7.918519e+08
-1.167169e+10 -2.368374e+10 -4.342994e+08
1.293944e+10 -2.326794e+10 -1.771836e+08
-2.416780e+10 9.919087e+09 8.030540e+06
-1.194180e+10 1.847657e+10 -8.466266e+08
1.724490e+10 2.092454e+10 -8.983409e+07
1.678908e+10 -2.172559e+10 2.247356e+08
-1.540344e+10 -2.208063e+10 -3.248999e+08
2.065237e+10 -5.451547e+09 9.568413e+08
-1.351266e+10 2.188490e+10 4.987149e+08
3.316880e+09 2.090964e+10 -7.278017e+08
-1.578983e+10 2.451232e+10 7.983226e+08
-2.782279e+10 9.774273e+09 -8.856311e+08
2.737541e+10 -8.943154e+09 -6.590148e+08
-2.248077e+10 1.347778e+09 9.697251e+08
-1.818924e+10 1.328062e+10 2.015581e+08
4.595731e+09 3.010886e+10 3.112658e+08
-1.535087e+10 -2.142303e+10 -1.086639e+09
1.730336e+10 -2.010254e+10 -3.746260e+08
-2.338372e+10 2.043296e+09 -2.501412e+08
-7.825051e+09 2.194059e+10 1.618072e+09
4.495259e+09 2.045244e+10 4.944255e+08
1.600752e+10 -1.682019e+10 -9.983345e+08
-1.600942e+10 -1.580431e+10 1.864174e+08
3.350746e+10 8.857961e+07 1.817723e+07
-3.165725e+09 2.568040e+10 7.011746e+08
2.942005e+10 5.584632e+09 2.445864e+08
1.363897e+10 2.264522e+10 1.167764e+09
-1.969230e+10 1.415522e+10 -5.679011e+08
-1.696498e+10 1.454465e+10 9.969755e+08
2.862692e+10 5.278237e+09 -2.027578e+08
-2.804055e+10 -8.094308e+09 -3.186268e+08
4.986414e+09 2.094517e+10 -1.805874e+08
-2.334314e+10 1.589846e+10 -4.945067e+08
2.273409e+10 1.840709e+10 1.696216e+09
-1.683263e+10 2.162364e+10 -6.431368e+08
2.380478e+10 5.094030e+09 -4.009292e+08
-1.113057e+10 2.958420e+10 -7.427182e+07
5.549345e+09 -2.603694e+10 1.498673e+09
-6.174277e+09 -2.592373e+10 6.107324e+08
2.653040e+10 -1.457900e+10 1.527245e+09
-1.055475e+10 -1.905569e+10 1.481285e+08
1.051637e+10 -1.907876e+10 2.556662e+08
3.047558e+09 2.303085e+10 1.786389e+09
-2.473690e+10 -1.319515e+10 8.790153e+08
2.363220e+10 -2.142115e+10 2.999252e+08
-2.384242e+10 -2.126899e+10 -8.233402e+08
2.017512e+10 -1.117430e+10 2.091151e+09
-8.959206e+08 2.171012e+10 -1.146058e+09
-5.762081e+09 2.192737e+10 4.438830e+08
7.238471e+09 -2.233562e+10 -2.282077e+08
-7.481621e+09 -2.239852e+10 -7.926720e+08
-2.341062e+10 2.321146e+09 1.101287e+08
-1.868067e+10 1.611308e+10 -1.352421e+09
2.261170e+09 2.164605e+10 1.242213e+09
-3.015814e+09 2.704151e+10 3.610806e+08
1.854111e+10 1.173419e+10 -1.521075e+08
2.450128e+10 -1.223926e+09 2.558150e+08
-2.293038e+10 6.627180e+09 6.964205e+08
-1.170590e+10 2.079413e+10 -5.119756e+08
-2.971444e+09 2.224099e+10 1.636691e+09
-2.470812e+10 8.175897e+09 -1.560100e+08
-1.307534e+10 2.262804e+10 1.803670e+08
2.157271e+10 1.620878e+10 7.486545e+07
2.430302e+10 1.077505e+10 -1.801949e+08
1.501916e+09 2.268045e+10 -2.894910e+07
8.641926e+09 -2.149657e+10 -5.364582e+08
-9.332923e+09 -2.020656e+10 -2.197034e+09
1.276531e+09 3.016186e+10 -4.427982e+08
-2.191150e+10 -2.373126e+10 1.182663e+09
1.973682e+10 -2.340945e+10 1.870810e+08
1.159157e+10 -1.891459e+10 5.773506e+08
-1.168726e+10 -1.943368e+10 1.221379e+09
3.284512e+10 6.278381e+08 1.051479e+09
-2.697139e+10 1.499034e+10 1.969801e+08
-2.002594e+10 2.288666e+10 -6.037442e+08
1.524440e+09 2.154422e+10 -4.697871e+08
-2.808058e+10 7.786643e+08 -3.153737e+08
4.218817e+09 2.669616e+10 -6.594363e+08
1.173550e+10 1.896931e+10 -1.416961e+09
2.897172e+10 6.998994e+09 -2.846846e+09
-2.288224e+10 -2.981301e+08 2.476764e+09
-2.473758e+10 7.566141e+09 -4.968644e+08
-3.084652e+10 -5.148260e+09 -1.500459e+09
-3.015022e+10 1.246642e+10 -2.610293e+08
-1.932660e+10 2.591331e+10 8.004611e+07
3.132339e+10 9.918047e+09 -1.267592e+09
-4.594416e+07 2.159545e+10 -3.102329e+08
2.258206e+10 -1.013989e+10 1.057408e+08
-2.082766e+10 -7.186996e+09 1.291099e+08
-9.491900e+09 -2.415330e+10 5.229869e+08
9.968236e+09 -2.374189e+10 7.983565e+06
-1.626144e+10 2.074900e+10 7.308234e+08
-2.091755e+10 7.181193e+09 8.421685e+08
-4.670208e+08 -2.568384e+10 -8.767200e+08
1.131283e+09 -2.491345e+10 1.531529e+08
1.403322e+10 2.553834e+10 -2.223110e+08
7.326048e+09 2.387343e+10 5.988029e+08
-6.868001e+08 2.124243e+10 4.490771e+08
-2.168063e+10 -7.166858e+09 1.128656e+08
-2.081766e+10 -7.131491e+09 -8.937434e+08
1.332643e+10 2.883970e+10 -2.307112e+08
1.898730e+10 -2.557658e+10 4.895838e+08
-1.915435e+10 -2.273702e+10 1.564510e+09
-9.617661e+09 1.931186e+10 -8.902223e+08
-2.113989e+10 3.735714e+09 1.417848e+09
-3.818804e+09 2.249615e+10 -5.624916e+07
-2.781684e+10 -3.412416e+09 4.452572e+08
-1.982347e+10 7.810743e+09 -4.751301e+08
-4.242208e+08 2.147785e+10 -2.748000e+08
-1.230514e+10 1.727031e+10 7.383451e+08
2.318770e+10 -7.147657e+09 -6.927352e+08
1.427936e+09 2.755703e+10 -2.213545e+08
-2.106790e+10 2.421129e+10 -3.519011e+08
-2.953728e+10 1.566018e+10 3.737567e+08
2.223333e+10 -5.071841e+09 -2.191496e+08
-6.209166e+09 -2.144946e+10 6.347708e+07
5.950702e+09 -2.170584e+10 2.174262e+08
-2.567114e+10 3.305195e+09 9.689954e+06
-2.045556e+10 1.634298e+10 4.287373e+08
-1.153014e+09 2.228929e+10 5.601841e+08
1.930436e+10 1.601281e+10 3.609097e+08
2.711864e+10 7.547748e+09 -7.271144e+08
-7.740714e+09 2.833325e+10 1.623302e+08
1.604501e+09 2.963628e+10 -1.079178e+09
4.572666e+09 2.958936e+10 -1.716216e+09
1.943383e+10 -2.031366e+10 -4.060479e+08
-1.984086e+10 -2.118381e+10 -4.815728e+08
-2.160464e+10 -4.923539e+09 4.314371e+08
2.788637e+10 -7.853001e+09 -6.976098e+08
2.326781e+10 -1.015878e+10 2.940750e+08
-2.932498e+09 2.132720e+10 6.686240e+08
-1.516385e+10 -2.447868e+10 1.849297e+09
1.591771e+10 -2.467416e+10 4.897755e+08
2.087784e+09 -2.885440e+10 -4.296326e+08
-2.366138e+09 -2.854928e+10 4.194889e+08
-2.065438e+10 -1.305672e+10 -1.265370e+09
-2.223884e+10 -1.901824e+10 9.050835e+08
2.493815e+10 -2.025958e+10 -2.203607e+08
-1.431762e+10 -2.095098e+10 -1.463388e+08
1.524370e+10 -2.095178e+10 1.847645e+08
1.663801e+10 -2.344098e+10 3.863415e+08
-3.245981e+09 2.161719e+10 6.580565e+08
-1.739621e+10 -2.382324e+10 -8.791105e+07
2.656644e+10 -3.824206e+09 5.526294e+08
-3.926135e+09 3.245646e+10 8.742799e+08
-2.643463e+10 -5.939349e+09 -1.201698e+09
-2.156135e+10 -4.785548e+09 -7.638656e+08
2.300397e+10 1.963393e+09 -7.878343e+08
-8.102358e+09 2.387681e+10 2.998778e+08
1.262655e+10 2.124687e+10 5.434330e+08
-2.951608e+10 1.045732e+10 1.690416e+08
-3.258009e+10 -1.235311e+08 1.773375e+09
-3.487317e+09 2.068595e+10 -9.190355e+08
2.540700e+10 -1.274827e+10 4.392271e+08
-2.898200e+10 -9.524002e+09 -1.429665e+07
1.967212e+10 1.614392e+10 7.863502e+08
-2.917070e+10 7.571959e+09 8.623318e+08
-1.491549e+10 2.710483e+10 -4.559312e+08
1.372465e+10 -1.814413e+10 -3.921290e+08
-1.463355e+10 -1.687533e+10 4.754589e+08
2.218393e+10 1.780484e+10 -3.707668e+05
-2.250093e+10 -8.920714e+09 -1.462192e+09
1.800514e+10 -1.345861e+10 -7.956274e+08
-4.077818e+09 2.103432e+10 2.583868e+08
4.052629e+09 -3.098979e+10 -3.448769e+08
-3.862048e+09 -2.863719e+10 -8.312530e+06
1.565047e+10 2.243095e+10 3.051202e+08
2.293052e+10 9.524670e+09 -6.845910e+07
1.990106e+10 -2.074714e+10 -3.640752e+07
-2.050899e+10 -2.188871e+10 -2.008511e+08
2.646321e+10 1.876324e+09 -4.098298e+08
-2.862659e+10 6.183150e+08 -4.480449e+08
2.033319e+10 -6.387389e+09 -3.963350e+08
-5.521299e+09 2.462408e+10 9.490807e+08
-4.064544e+09 2.220777e+10 -9.232773e+08
2.590385e+10 3.141210e+09 -1.459215e+09
2.843691e+10 4.856558e+09 -3.730041e+08
1.205603e+10 3.055098e+10 -1.578269e+09
-2.492269e+10 4.472272e+09 -3.748979e+08
-1.802180e+10 1.710249e+10 -6.371582e+08
-1.906953e+08 2.149152e+10 7.528771e+08
-2.898147e+10 1.089971e+10 4.633660e+08
-1.715403e+10 2.544803e+10 -2.781855e+08
-2.546430e+10 -6.169284e+09 5.283785e+08
3.393729e+10 -1.307103e+10 1.920571e+09
-5.906260e+09 2.039074e+10 -5.347051e+08
-4.041522e+09 2.289803e+10 -9.655007e+08
6.192699e+09 2.189077e+10 -7.486191e+08
-1.690968e+10 2.585024e+10 4.744690e+08
2.145499e+10 1.464583e+10 1.272033e+09
-1.148072e+10 2.121118e+10 -5.624687e+08
-2.595223e+10 -1.515013e+10 -2.121099e+08
-1.810810e+09 3.080416e+10 -1.344054e+09
-1.578408e+10 1.775437e+10 -1.165014e+08
-2.357738e+10 5.585046e+09 4.321230e+08
-2.170640e+10 1.136413e+10 -1.214676e+08
-5.397413e+09 2.068066e+10 -2.540324e+08
-4.372771e+09 -3.213174e+10 5.321155e+08
2.872988e+09 -3.092558e+10 1.194782e+09
1.504970e+10 -2.523190e+10 1.172119e+09
-1.480191e+10 -2.439181e+10 6.371153e+08
6.050814e+09 2.510950e+10 3.337854e+08
4.990688e+09 -2.478758e+10 1.970827e+08
-5.426491e+09 -2.469519e+10 7.630084e+08
2.197407e+10 -4.720005e+09 -7.877327e+08
-3.012016e+10 4.314748e+09 6.101052e+08
1.908517e+10 1.341088e+10 -4.656635e+08
-5.481574e+09 2.014732e+10 -2.625356e+08
-9.397870e+09 2.767423e+10 -4.036571e+08
-2.842076e+10 4.912777e+09 -3.466336e+08
-6.105733e+09 2.598852e+10 -4.679774e+08
3.049468e+10 1.158498e+09 8.894425e+08
2.234474e+10 -2.927933e+09 -4.471192e+08
2.000427e+10 -9.131418e+09 -6.368880e+07
-2.919437e+10 -2.705797e+09 4.583668e+08
-1.594501e+10 1.619837e+10 7.030130e+08
-1.959159e+10 1.077947e+10 -2.955831e+08
1.325280e+10 -2.886199e+10 -1.157190e+09
-5.896471e+09 2.112948e+10 7.624031e+08
-1.343019e+10 -2.941032e+10 -1.089468e+09
1.876880e+10 -1.722649e+10 1.284847e+09
-1.871025e+10 -1.744963e+10 1.248649e+09
-5.889966e+09 -2.923496e+10 1.053162e+09
5.453134e+09 -2.902064e+10 1.212784e+09
-2.205459e+10 -5.181875e+08 1.117590e+08
7.608963e+09 2.464034e+10 7.983282e+08
2.557123e+10 -1.763220e+10 9.041518e+08
-2.757343e+10 -1.689191e+10 9.609499e+08
-2.894010e+10 1.305764e+09 1.760703e+08
-8.969717e+09 2.274132e+10 1.675859e+09
2.613829e+10 1.789155e+10 -1.406853e+09
2.347776e+10 -1.585672e+10 -1.220917e+09
-7.990982e+09 -2.765111e+10 -2.876335e+08
7.938567e+09 -2.780056e+10 -7.618135e+08
1.363719e+10 2.637476e+10 -4.892032e+08
2.981516e+10 8.896979e+09 4.745723e+08
-1.386023e+09 2.560781e+10 -8.201271e+08
-2.379064e+10 -8.477407e+09 -8.515889e+08
1.699157e+10 1.314519e+10 -1.715800e+09
2.857216e+10 -1.437594e+10 3.134863e+08
-9.078858e+09 1.988786e+10 -3.318982e+08
-2.430984e+09 3.052538e+10 1.106639e+09
1.627656e+10 2.460152e+10 -1.149911e+07
1.219109e+10 1.861558e+10 1.513142e+09
2.921960e+10 -4.221191e+09 6.202293e+08
2.150650e+10 6.486195e+09 2.140528e+08
-5.001160e+09 2.102233e+10 -5.786542e+08
1.272836e+10 2.646203e+10 -9.873145e+06
1.582447e+10 1.565359e+10 5.957982e+07
-8.298968e+09 1.966790e+10 6.218926e+08
2.934113e+10 -9.591321e+09 1.664948e+09
-8.402121e+09 1.965583e+10 1.159930e+09
4.669921e+08 2.522958e+10 2.535051e+08
3.347450e+09 3.049106e+10 6.815469e+08
1.439893e+10 1.918561e+10 2.449524e+08
-1.060776e+10 -2.532385e+10 2.302240e+08
1.063849e+10 -2.513079e+10 2.339120e+08
-3.288248e+10 5.483403e+09 -2.863416e+07
-2.491433e+10 -9.968583e+09 -3.079684e+08
-7.176658e+09 3.010644e+10 -5.689688e+08