# vtk DataFile Version 2.0
Electric current density generated by TTH
ASCII
DATASET UNSTRUCTURED_GRID
POINTS 2658 double
2.828593e-05 -6.928055e-21 -3.235775e-22
2.731318e-05 7.354201e-06 -3.235775e-22
-2.741772e-05 6.954329e-06 -3.235775e-22
-1.119746e-05 2.555258e-05 9.348049e-07
-1.931658e-05 2.013361e-05 9.316580e-07
-1.624316e-05 2.270976e-05 9.117816e-07
-1.267860e-05 2.488427e-05 9.042058e-07
-1.474437e-08 -2.566719e-05 2.479378e-07
4.999540e-07 2.789286e-05 -9.358031e-07
2.599786e-05 4.277732e-06 1.167974e-06
2.599786e-05 -4.277732e-06 -1.167974e-06
1.125606e-05 2.559604e-05 8.669351e-07
-2.792064e-05 -9.722205e-07 -8.939229e-07
-2.760921e-05 6.150215e-06 -3.235775e-22
1.963647e-05 1.985384e-05 9.081563e-07
1.963647e-05 -1.985384e-05 -9.081563e-07
-1.744794e-05 2.166213e-05 -1.011133e-06
1.046043e-05 2.595341e-05 -8.428520e-07
-2.651858e-05 -9.087158e-07 -1.248934e-06
-2.257444e-05 1.251216e-05 -6.417573e-07
6.462873e-06 -2.497189e-05 -6.132043e-07
-1.318080e-06 2.564075e-05 -2.839865e-07
2.274306e-05 1.194663e-05 -3.461007e-07
2.274306e-05 -1.194663e-05 3.461007e-07
-2.777713e-05 5.340848e-06 -3.235775e-22
-2.478798e-05 1.042719e-05 -1.319087e-06
3.377034e-06 2.777517e-05 -8.457605e-07
-2.707629e-05 6.782985e-06 -9.199621e-07
2.621071e-05 -2.803694e-06 1.174648e-06
2.621071e-05 2.803694e-06 -1.174648e-06
2.730495e-05 -5.751013e-06 9.291023e-07
2.730495e-05 5.751013e-06 -9.291023e-07
-2.788977e-05 -1.224740e-06 9.161639e-07
-2.758263e-05 4.440215e-06 8.937357e-07
-2.234740e-05 1.681996e-05 8.573574e-07
-2.792133e-05 4.526921e-06 -3.235775e-22
-2.452915e-05 1.027698e-05 1.268295e-06
1.813396e-05 -2.127322e-05 8.764165e-07
1.826399e-05 2.121223e-05 -8.312380e-07
-1.164161e-05 2.554619e-05 -7.180744e-07
1.614773e-05 -2.279160e-05 8.997547e-07
1.617054e-05 2.282558e-05 -8.536570e-07
1.895120e-05 1.858237e-05 -1.251454e-06
1.895120e-05 -1.858237e-05 1.251454e-06
1.199688e-05 2.526403e-05 -8.598923e-07
2.414481e-05 9.154013e-06 6.625119e-07
-2.804169e-05 3.709128e-06 -3.235775e-22
2.414481e-05 -9.154013e-06 -6.625119e-07
-7.893812e-06 2.536861e-05 1.260217e-06
-2.614123e-05 9.914320e-06 8.709971e-07
-2.790086e-05 1.782470e-06 8.714618e-07
-2.461737e-05 1.333802e-05 8.226557e-07
-2.703022e-05 -7.190962e-06 8.568345e-07
-2.594445e-05 -1.045174e-05 8.566062e-07
1.320563e-05 -2.284530e-05 1.188249e-06
1.298905e-05 -2.375174e-05 1.316800e-06
-2.562581e-05 -1.199993e-06 1.636510e-07
-2.813809e-05 2.888167e-06 -3.235775e-22
-5.856186e-06 2.733088e-05 -8.788011e-07
-2.552287e-05 7.437571e-06 -1.265169e-06
-1.874018e-06 -2.560194e-05 2.643278e-07
-1.240606e-05 2.277486e-05 -8.270516e-07
6.631526e-06 -2.721129e-05 -8.110055e-07
-3.131832e-06 2.585127e-05 9.436896e-07
2.529394e-05 1.176546e-05 -9.367360e-07
2.529394e-05 -1.176546e-05 9.367360e-07
-2.011934e-05 1.644883e-05 -8.889411e-07
-1.277270e-06 -2.661198e-05 1.281210e-06
-2.821047e-05 2.064740e-06 -3.235775e-22
2.107211e-05 1.463302e-05 1.693326e-07
2.107211e-05 -1.463302e-05 -1.693326e-07
1.220320e-06 2.561523e-05 -3.868009e-08
3.012205e-06 -2.778104e-05 8.870121e-07
9.337228e-06 -2.634157e-05 8.830002e-07
1.293809e-05 2.372662e-05 -1.319738e-06
2.762166e-05 4.100356e-06 -9.080937e-07
2.762166e-05 -4.100356e-06 9.080937e-07
-2.441356e-05 8.096187e-06 -4.452411e-07
-1.993816e-05 1.612976e-05 7.142825e-08
-2.825876e-05 1.239550e-06 -3.235775e-22
2.644314e-05 4.222164e-06 -1.307842e-06
2.644314e-05 -4.222164e-06 1.307842e-06
1.506884e-05 2.207988e-05 -1.300399e-06
1.506884e-05 -2.207988e-05 1.300399e-06
-5.472110e-06 2.505366e-05 3.893861e-08
-1.788956e-05 -2.152906e-05 8.311363e-07
-1.663491e-05 -2.251257e-05 8.311457e-07
3.984220e-06 2.634370e-05 1.281379e-06
-1.217883e-05 2.279086e-05 6.941889e-07
1.406338e-05 2.266503e-05 1.288613e-06
-2.828291e-05 4.133010e-07 -3.235775e-22
-2.711611e-05 1.378640e-06 1.307902e-06
1.248923e-05 2.386705e-05 1.320818e-06
-9.460958e-06 2.464924e-05 1.195478e-06
-1.583695e-05 -2.020267e-05 2.629618e-07
2.558832e-05 -1.115449e-05 -9.190260e-07
2.559041e-05 1.112952e-05 9.272728e-07
7.834314e-06 2.568965e-05 1.316753e-06
8.629423e-06 2.657458e-05 8.906463e-07
-7.891063e-07 -2.653040e-05 -1.251660e-06
-2.231812e-05 -1.689119e-05 8.339117e-07
-2.828291e-05 -4.133010e-07 -3.235775e-22
-1.107373e-05 -2.570571e-05 8.339090e-07
-2.748273e-05 5.133346e-06 -8.711195e-07
7.242799e-06 2.482070e-05 -7.179936e-07
-2.564508e-05 -2.134650e-09 -5.987292e-08
7.227851e-07 -2.784152e-05 -9.798956e-07
1.469822e-05 -2.379074e-05 8.632064e-07
1.469822e-05 2.379074e-05 -8.632064e-07
-2.435947e-05 -8.165504e-06 3.525020e-07
4.920620e-06 -2.636807e-05 -1.313500e-06
1.344422e-05 -2.454074e-05 -8.429518e-07
2.708662e-05 8.149151e-06 -3.235775e-22
-2.825876e-05 -1.239550e-06 -3.235775e-22
-2.641403e-06 2.552743e-05 -2.290570e-07
-1.954009e-05 1.846389e-05 1.318609e-06
2.699160e-05 2.277865e-06 -1.315393e-06
2.699160e-05 -2.277865e-06 1.315393e-06
2.128668e-05 -1.807608e-05 -9.062354e-07
2.125088e-05 1.810153e-05 9.175349e-07
-3.424268e-06 2.774927e-05 -8.691607e-07
1.765871e-05 -1.959418e-05 -1.183274e-06
1.765871e-05 1.959418e-05 1.183274e-06
-2.689836e-05 7.685208e-06 -8.517402e-07
-2.821047e-05 -2.064740e-06 -3.235775e-22
-2.558431e-05 1.827896e-06 1.236988e-07
-2.567673e-05 7.080414e-06 1.279288e-06
2.158597e-06 -2.747726e-05 -1.178474e-06
-1.886640e-05 2.062318e-05 -8.791144e-07
-7.515495e-06 2.693140e-05 -8.684360e-07
-1.692835e-05 -2.034041e-05 1.222172e-06
-1.571033e-05 -2.129395e-05 1.221746e-06
-1.447163e-05 -2.397465e-05 8.160147e-07
-1.982583e-05 -1.977748e-05 8.160061e-07
-2.657776e-05 -7.533247e-07 1.266354e-06
-2.813809e-05 -2.888167e-06 -3.235775e-22
2.520812e-05 4.759759e-06 -1.608624e-07
2.520812e-05 -4.759759e-06 1.608624e-07
2.627386e-05 9.612246e-06 8.490446e-07
2.627386e-05 -9.612246e-06 -8.490446e-07
-2.732465e-05 6.009431e-06 8.482228e-07
1.667984e-05 -2.055823e-05 -1.226430e-06
1.667984e-05 2.055823e-05 1.226430e-06
6.681206e-06 -2.634600e-05 -1.303470e-06
-2.743356e-05 3.387158e-06 -1.134428e-06
2.732923e-06 -2.560133e-05 -5.115576e-07
-2.804169e-05 -3.709128e-06 -3.235775e-22
-1.332559e-05 2.308077e-05 1.283371e-06
1.438452e-05 -2.273310e-05 -1.319603e-06
-1.993565e-05 1.964457e-05 8.354815e-07
-2.786091e-05 2.675915e-06 8.343452e-07
2.488984e-07 -2.700554e-05 1.320442e-06
2.588768e-05 -9.037048e-07 -7.866424e-07
2.588768e-05 9.037048e-07 7.866424e-07
-2.343878e-05 1.165248e-05 -1.059379e-06
1.932878e-08 2.668857e-05 1.291901e-06
-2.155210e-05 1.784085e-05 -8.473780e-07
-2.792133e-05 -4.526921e-06 -3.235775e-22
-2.090105e-05 1.485766e-05 -1.335796e-08
2.057645e-05 1.576507e-05 8.105143e-07
2.057645e-05 -1.576507e-05 -8.105143e-07
8.682673e-06 2.412912e-05 1.221956e-08
2.113711e-05 1.848768e-05 -7.059099e-07
2.116053e-05 -1.840966e-05 7.565111e-07
-2.541820e-05 1.168811e-05 8.493452e-07
8.260079e-06 -2.441450e-05 5.719679e-07
-2.605064e-05 1.044177e-05 -7.307945e-07
2.536202e-05 8.432305e-06 -1.299535e-06
-2.777713e-05 -5.340848e-06 -3.235775e-22
2.536202e-05 -8.432305e-06 1.299535e-06
-2.643268e-05 -5.452060e-06 1.320883e-06
2.673683e-05 -8.471869e-06 7.578566e-07
2.674673e-05 8.481477e-06 -7.399245e-07
1.433145e-05 2.276851e-05 -1.319679e-06
1.433145e-05 -2.276851e-05 1.319679e-06
2.619434e-05 -3.340983e-06 -1.197347e-06
2.619434e-05 3.340983e-06 1.197347e-06
-4.082120e-06 -2.769171e-05 8.320762e-07
-5.312682e-06 -2.646987e-05 1.320695e-06
-2.760921e-05 -6.150215e-06 -3.235775e-22
-2.443538e-05 -1.147890e-05 1.320707e-06
1.014279e-05 -2.481044e-05 1.311233e-06
-2.107888e-05 1.496060e-05 -7.063046e-07
-2.120988e-05 -1.441439e-05 4.147699e-08
-8.934131e-06 -2.403778e-05 4.132532e-08
2.517534e-05 5.976750e-06 7.468259e-07
2.517534e-05 -5.976750e-06 -7.468259e-07
2.448370e-05 -7.628708e-06 5.005203e-08
2.448370e-05 7.628708e-06 -5.005203e-08
2.771221e-05 9.471272e-07 -1.078091e-06
-2.741772e-05 -6.954329e-06 -3.235775e-22
2.771757e-05 -8.976910e-07 1.075452e-06
-1.107591e-05 -2.430747e-05 -1.296681e-06
-8.499302e-06 2.459172e-05 9.224012e-07
2.511969e-05 -6.238133e-06 7.578106e-07
2.511969e-05 6.238133e-06 -7.578106e-07
2.765712e-05 -4.276882e-06 -8.383375e-07
2.764297e-05 4.223336e-06 8.645786e-07
-2.391458e-05 -1.109896e-05 -1.176898e-06
-1.857956e-05 -1.864928e-05 -1.155725e-06
-5.125588e-06 -2.584915e-05 -1.170594e-06
-2.720280e-05 -7.752504e-06 -3.235775e-22
-1.370629e-05 -2.247443e-05 -1.155377e-06
2.316967e-05 -1.582044e-05 7.452449e-07
2.316967e-05 1.582044e-05 -7.452449e-07
-1.622260e-05 2.004487e-05 5.983811e-07
-2.545430e-05 -5.407277e-06 -9.257255e-07
1.313768e-05 -2.210372e-05 -4.230408e-07
2.554989e-05 2.255851e-06 1.211727e-07
2.554989e-05 -2.255851e-06 -1.211727e-07
-1.876846e-05 -1.831066e-05 1.091737e-06
-1.329968e-05 -2.259768e-05 1.091753e-06
-2.696466e-05 -8.544058e-06 -3.235775e-22
2.329526e-05 -1.328347e-05 -1.312742e-06
2.329526e-05 1.328347e-05 1.312742e-06
-1.101521e-05 -2.579617e-05 -7.541092e-07
-2.337654e-05 -1.555676e-05 -7.086142e-07
-2.058155e-05 1.697951e-05 1.290374e-06
2.236601e-05 1.473338e-05 1.308486e-06
2.236601e-05 -1.473338e-05 -1.308486e-06
7.108913e-06 2.700128e-05 9.111750e-07
-2.289501e-05 -1.428337e-05 -1.320950e-06
-2.071935e-05 -1.583278e-05 9.775863e-07
2.683694e-05 8.937141e-06 -3.235775e-22
-2.670349e-05 -9.328316e-06 -3.235775e-22
-1.042769e-05 -2.390046e-05 9.775888e-07
8.657676e-06 2.444853e-05 -8.290001e-07
-1.434407e-06 -2.802297e-05 -7.393701e-07
-1.665847e-05 -2.257964e-05 -7.393499e-07
-2.512189e-05 5.149309e-06 -3.542801e-08
2.041733e-05 -1.738967e-05 1.313052e-06
2.041733e-05 1.738967e-05 -1.313052e-06
-2.587858e-06 -2.786181e-05 8.433389e-07
-2.635307e-05 -9.640215e-06 -7.374188e-07
1.947258e-05 2.019723e-05 -7.455225e-07
-2.641951e-05 -1.010461e-05 -3.235775e-22
1.947258e-05 -2.019723e-05 7.455225e-07
3.602121e-07 2.566299e-05 2.390162e-07
-2.682605e-05 -2.295482e-06 -1.320477e-06
-4.365983e-06 2.528475e-05 1.998369e-07
-2.275643e-05 1.393741e-05 -1.291202e-06
-1.588639e-05 -2.307313e-05 8.037133e-07
-1.861259e-05 -2.093605e-05 8.037137e-07
[...]
POINT_DATA 2658
VECTORS 10.000GHz_fone_imag double
6.726651e-05 9.680015e-05 1.760313e-02
3.464960e-04 -1.418284e-04 1.767113e-02
1.779103e-04 2.705157e-05 1.753046e-02
5.380872e-03 -1.215829e-02 1.269390e-02
9.643086e-03 -1.012636e-02 1.220660e-02
7.599418e-03 -1.070930e-02 1.298707e-02
6.041742e-03 -1.159650e-02 1.275532e-02
-1.947381e-04 3.745458e-03 -2.564635e-02
6.473597e-05 1.324556e-02 1.311994e-02
-1.951969e-02 -2.844069e-03 -1.164558e-02
1.961997e-02 -2.810920e-03 -1.184228e-02
-4.723215e-03 -1.108897e-02 1.365238e-02
-1.224578e-02 -1.997164e-04 1.364421e-02
3.692612e-04 -3.222734e-04 1.739459e-02
-9.397285e-03 -9.533874e-03 1.290243e-02
9.228998e-03 -9.336718e-03 1.299509e-02
-9.496949e-03 1.172163e-02 1.123215e-02
4.829488e-03 1.087505e-02 1.348134e-02
-2.111363e-02 -8.462788e-04 -7.361928e-03
-9.817489e-03 5.619560e-03 -2.169456e-02
2.762801e-03 -1.155101e-02 -2.164209e-02
-1.558541e-04 5.002424e-03 -2.452339e-02
5.394150e-03 2.360082e-03 -2.424206e-02
-5.390006e-03 2.356012e-03 -2.421638e-02
-1.397544e-04 -1.521220e-04 1.743002e-02
-1.951523e-02 7.899149e-03 -2.323405e-03
1.409220e-03 1.191066e-02 1.392433e-02
-1.350913e-02 3.395171e-03 1.220732e-02
-1.983091e-02 1.984161e-03 -1.111765e-02
1.986928e-02 2.552322e-03 -1.109643e-02
-1.322715e-02 2.968182e-03 1.283714e-02
1.324491e-02 3.175588e-03 1.256608e-02
1.288558e-02 8.200420e-04 1.306687e-02
1.226576e-02 -2.115402e-03 1.330843e-02
9.423388e-03 -7.099806e-03 1.399347e-02
8.768110e-04 2.533369e-04 1.735237e-02
1.909972e-02 -8.496465e-03 -7.564381e-03
-7.638222e-03 8.780660e-03 1.403079e-02
7.239272e-03 8.406991e-03 1.436153e-02
-4.010019e-03 8.906085e-03 1.517535e-02
-7.115834e-03 1.013109e-02 1.358132e-02
6.711435e-03 9.607828e-03 1.389918e-02
1.477015e-02 1.436559e-02 -8.208885e-03
-1.483150e-02 1.433342e-02 -7.968972e-03
5.383634e-03 1.081643e-02 1.343202e-02
-1.146827e-02 -4.342016e-03 -2.118522e-02
-1.670496e-04 8.591234e-05 1.747118e-02
1.143906e-02 -4.298136e-03 -2.109173e-02
6.894165e-03 -1.970046e-02 -7.600650e-03
1.163388e-02 -4.458059e-03 1.352098e-02
1.240544e-02 -8.944190e-04 1.345474e-02
1.023761e-02 -5.378045e-03 1.403992e-02
1.161369e-02 3.161247e-03 1.368143e-02
1.116615e-02 4.855733e-03 1.324109e-02
-9.998378e-03 1.783531e-02 -1.059178e-02
-1.023921e-02 1.809879e-02 9.135965e-04
3.710675e-03 -6.615674e-04 -2.472360e-02
2.243294e-04 -2.575145e-04 1.750384e-02
-2.698120e-03 1.250158e-02 1.320719e-02
-2.023880e-02 5.549927e-03 -7.147867e-03
6.101603e-05 4.325351e-03 -2.464770e-02
-6.578436e-03 1.264284e-02 -1.980198e-02
2.797165e-03 -1.127630e-02 1.396072e-02
1.582271e-03 -1.607766e-02 -1.743020e-02
1.257656e-02 5.929375e-03 1.217868e-02
-1.256607e-02 5.887890e-03 1.210785e-02
-1.159778e-02 9.788809e-03 -1.869949e-02
6.416920e-04 2.109797e-02 -6.211658e-03
5.385126e-04 -1.589392e-04 1.755233e-02
-2.585345e-03 -1.949458e-03 -2.444796e-02
2.656076e-03 -1.905207e-03 -2.456407e-02
-1.458845e-04 5.019570e-04 -2.545641e-02
-1.897706e-03 1.270632e-02 1.305004e-02
-4.650128e-03 1.161325e-02 1.335021e-02
1.026764e-02 1.814697e-02 6.923675e-04
1.272157e-02 1.788861e-03 1.330141e-02
-1.282617e-02 1.668397e-03 1.312475e-02
-7.900470e-03 2.623353e-03 -2.336494e-02
3.330590e-04 -8.206145e-04 -2.520538e-02
3.492706e-04 1.088184e-04 1.732691e-02
2.094372e-02 2.772108e-03 -4.329822e-03
-2.078992e-02 2.832226e-03 -4.360329e-03
1.212040e-02 1.791434e-02 -4.293841e-03
-1.180269e-02 1.792690e-02 -4.059593e-03
3.313324e-04 -1.358092e-03 -2.485349e-02
7.521441e-03 9.075815e-03 1.367956e-02
7.217603e-03 9.559049e-03 1.373427e-02
-2.823022e-03 -2.080264e-02 -5.584729e-03
5.620475e-03 -1.087018e-02 -2.092465e-02
-1.116245e-02 -1.814530e-02 -6.076923e-03
1.536997e-04 3.096225e-06 1.734724e-02
2.022432e-02 -1.217942e-03 2.236611e-03
-9.998634e-03 -1.906058e-02 -9.957732e-04
7.192536e-03 -1.861828e-02 -1.054726e-02
2.865413e-03 3.246284e-03 -2.475863e-02
1.213008e-02 -5.407435e-03 1.317555e-02
-1.236172e-02 -5.411158e-03 1.285959e-02
-5.771809e-03 -2.012266e-02 -2.488897e-03
-3.893271e-03 -1.150188e-02 1.373489e-02
-1.259509e-03 -2.038953e-02 -8.672007e-03
9.355669e-03 7.315476e-03 1.389546e-02
5.859706e-05 1.233923e-04 1.734809e-02
4.911947e-03 1.075208e-02 1.380277e-02
-1.185598e-02 2.371226e-03 1.370585e-02
3.748511e-03 1.199423e-02 -2.137710e-02
-6.136877e-04 6.879625e-04 -2.516734e-02
-2.336028e-05 -1.417465e-02 1.210415e-02
-6.449756e-03 1.031502e-02 1.362687e-02
6.142609e-03 1.048878e-02 1.326266e-02
5.677952e-03 1.914413e-03 -2.458689e-02
3.917343e-03 -2.096565e-02 -3.581032e-03
5.962097e-03 -1.054780e-02 1.393221e-02
1.273677e-04 -2.400837e-04 1.751386e-02
9.161761e-05 5.443839e-04 1.738979e-02
-7.004743e-04 5.303852e-03 -2.475395e-02
1.544510e-02 -1.451521e-02 -1.986458e-03
2.060956e-02 1.671182e-03 8.973582e-04
-2.048716e-02 1.792233e-03 7.135094e-04
9.980728e-03 -8.816359e-03 1.326679e-02
-9.985526e-03 -8.755394e-03 1.325664e-02
-1.455778e-03 1.308325e-02 1.306425e-02
1.282695e-02 -1.490971e-02 -1.102336e-02
-1.254481e-02 -1.532296e-02 -1.018950e-02
-1.181900e-02 3.775992e-03 1.363151e-02
-5.434773e-04 -7.349594e-05 1.735018e-02
2.860807e-03 -1.901613e-05 -2.518549e-02
2.032648e-02 -5.701281e-03 -6.631523e-03
1.642130e-03 -1.791964e-02 7.628892e-03
-8.418091e-03 9.247586e-03 1.341549e-02
-3.201920e-03 1.144386e-02 1.320619e-02
1.351442e-02 1.579887e-02 -8.868997e-03
1.249891e-02 1.636543e-02 -9.493520e-03
6.072317e-03 9.536476e-03 1.423120e-02
8.066561e-03 8.270470e-03 1.424316e-02
2.101176e-02 4.059440e-04 -6.801104e-03
3.026783e-04 -3.897763e-04 1.735233e-02
2.612263e-03 4.072721e-04 -2.508421e-02
-2.890322e-03 1.078564e-04 -2.491697e-02
-1.104758e-02 -4.216293e-03 1.386931e-02
1.112895e-02 -4.193080e-03 1.380851e-02
1.160439e-02 -2.348076e-03 1.380622e-02
1.296346e-02 -1.586390e-02 -8.990103e-03
-1.300219e-02 -1.579015e-02 -9.173282e-03
4.526885e-03 -1.964164e-02 2.942086e-03
-1.669663e-02 1.991309e-03 9.004575e-03
1.307484e-03 -8.984793e-03 -2.306856e-02
3.277336e-04 -7.260203e-05 1.739685e-02
1.043454e-02 -1.848350e-02 -6.293838e-03
1.107336e-02 -1.770566e-02 -2.040636e-03
8.895542e-03 -7.982163e-03 1.380191e-02
1.159767e-02 -1.487427e-03 1.382198e-02
-4.280226e-04 2.044458e-02 1.227152e-03
1.337844e-02 -2.756560e-04 -2.006305e-02
-1.372495e-02 -5.871719e-04 -2.005431e-02
-1.690980e-02 8.422041e-03 -1.407009e-02
-3.659850e-04 -2.114779e-02 -5.381712e-03
-9.442474e-03 7.738317e-03 1.357147e-02
1.411986e-04 3.103399e-04 1.727902e-02
-7.134691e-04 5.655876e-04 -2.517844e-02
-1.140902e-02 -9.246514e-03 -1.936574e-02
1.134911e-02 -9.058485e-03 -1.942254e-02
-2.495950e-04 -1.847156e-04 -2.534892e-02
7.598234e-03 6.397468e-03 1.512946e-02
-8.187453e-03 7.020053e-03 1.485163e-02
1.096870e-02 -5.183368e-03 1.386443e-02
-2.988958e-03 9.560004e-03 -2.282566e-02
-9.513730e-03 4.066971e-03 1.468141e-02
2.009051e-02 6.561678e-03 -4.939245e-03
3.165748e-04 -4.986937e-04 1.716811e-02
-2.012403e-02 6.542584e-03 -4.931764e-03
2.053515e-02 4.339963e-03 7.435817e-05
-1.042589e-02 3.268338e-03 1.451095e-02
1.025108e-02 3.208313e-03 1.455607e-02
1.151386e-02 1.775784e-02 -2.394796e-03
-1.157016e-02 1.769064e-02 -2.403642e-03
2.038253e-02 -2.737223e-03 -9.856113e-03
-2.031264e-02 -2.532815e-03 -9.825584e-03
1.836962e-03 1.160695e-02 1.386106e-02
4.437477e-03 2.063116e-02 1.460553e-04
2.534444e-04 3.961154e-05 1.743307e-02
1.907218e-02 9.023327e-03 5.521185e-05
-7.817251e-03 1.965146e-02 -3.583856e-03
-1.058120e-02 7.923679e-03 -2.049412e-02
8.515185e-04 5.318435e-04 -2.528411e-02
2.155336e-04 8.767418e-04 -2.531934e-02
-1.287839e-02 -3.212737e-03 -2.052840e-02
1.298109e-02 -3.103528e-03 -2.043271e-02
-6.930561e-04 -1.254202e-04 -2.496198e-02
8.376091e-04 4.175625e-04 -2.507465e-02
1.607513e-02 4.723001e-04 1.026934e-02
4.189419e-04 1.865850e-04 1.730090e-02
-1.611255e-02 3.916936e-05 9.991816e-03
-9.060138e-03 -1.911815e-02 -5.397257e-03
5.297277e-03 -1.519008e-02 -1.760058e-02
-1.282363e-02 3.101453e-03 -2.039904e-02
1.294987e-02 3.339569e-03 -2.039022e-02
1.197783e-02 -1.840547e-03 1.410075e-02
-1.238297e-02 -1.853794e-03 1.375645e-02
-1.849741e-02 -8.033086e-03 -1.098957e-02
-1.333100e-02 -1.408317e-02 -1.207793e-02
-3.518146e-03 -1.977750e-02 -1.104154e-02
6.544148e-05 -1.735133e-04 1.733846e-02
-1.044937e-02 -1.622576e-02 -1.220611e-02
-9.103962e-03 5.722693e-03 1.461747e-02
9.171194e-03 5.811832e-03 1.458164e-02
6.820784e-03 -8.286532e-03 -2.198665e-02
-1.602392e-02 -3.240207e-03 -1.780126e-02
3.479268e-03 -6.407176e-03 -2.370511e-02
-2.021622e-03 4.661754e-04 -2.474372e-02
2.605656e-03 -1.177196e-05 -2.489690e-02
1.336978e-02 1.305828e-02 -1.384325e-02
9.214795e-03 1.613440e-02 -1.386804e-02
5.599051e-04 4.251959e-05 1.731588e-02
1.841486e-02 -1.029760e-02 -3.487997e-03
-1.832769e-02 -1.052112e-02 -3.421354e-03
-4.142066e-03 -1.006068e-02 1.496202e-02
-8.470321e-03 -5.724866e-03 1.486662e-02
1.611375e-02 -1.366401e-02 -5.953392e-03
-1.767253e-02 -1.178900e-02 -3.954825e-03
1.770085e-02 -1.151242e-02 -4.413347e-03
-3.265199e-03 -1.270149e-02 1.258014e-02
-1.769941e-02 -1.113453e-02 -4.998208e-04
1.386547e-02 9.993590e-03 -1.648536e-02
1.897154e-04 1.527759e-04 1.751379e-02
2.604186e-04 8.694200e-05 1.742736e-02
6.453863e-03 1.591397e-02 -1.647218e-02
4.704280e-03 1.407420e-02 -1.916115e-02
-2.841850e-04 -1.083158e-02 1.464704e-02
-6.557854e-03 -8.378804e-03 1.472298e-02
-7.167440e-04 1.531785e-05 -2.493954e-02
-1.614930e-02 1.373649e-02 -3.052899e-03
1.606371e-02 1.379885e-02 -3.033247e-03
1.149245e-03 1.191142e-02 1.387430e-02
-9.831664e-03 -3.585851e-03 1.482653e-02
7.337301e-03 7.851355e-03 1.459398e-02
7.176876e-04 -1.298706e-05 1.751020e-02
-7.216908e-03 7.889541e-03 1.454236e-02
-5.009182e-05 -5.277944e-03 -2.458326e-02
-2.108501e-02 -1.799147e-03 -1.359188e-03
8.372658e-04 -3.625101e-03 -2.459660e-02
-1.798960e-02 1.112738e-02 -5.769586e-03
6.429454e-03 9.530339e-03 1.427724e-02
7.519925e-03 8.343457e-03 1.409064e-02
-1.461321e-03 1.036466e-02 -2.209522e-02
-3.929296e-03 1.382536e-02 -1.967735e-02
-1.245839e-02 -1.757887e-02 -3.746467e-03
4.343517e-04 7.955925e-04 1.719201e-02
8.798574e-03 -1.136630e-02 -1.917022e-02
-1.630307e-02 -1.335261e-02 -5.878490e-03
2.222727e-03 -1.160508e-02 1.419572e-02
-2.021320e-02 -7.866814e-03 -1.347761e-03
2.070437e-02 4.146463e-03 -5.126625e-03
-2.073308e-02 3.713389e-03 -5.017118e-03
-2.162870e-03 -4.792956e-03 -2.397104e-02
9.588427e-03 -4.461920e-03 1.444170e-02
-9.573969e-03 -4.442298e-03 1.441687e-02
8.728968e-03 -1.920707e-02 -5.233797e-03
4.726875e-04 1.851819e-04 1.740762e-02
1.516805e-03 2.522312e-03 -2.498324e-02
-1.428336e-03 2.585349e-03 -2.497305e-02
-6.230419e-03 -1.069786e-02 1.376695e-02
-1.136688e-02 -2.179756e-04 1.392870e-02
-1.134578e-02 -3.097817e-03 1.384981e-02
-1.770313e-02 -5.232058e-03 6.367429e-03
1.785587e-02 -5.114972e-03 6.213186e-03
-1.645675e-03 -1.194855e-02 1.374470e-02
-7.622529e-03 -9.033543e-03 1.400399e-02
2.115645e-02 1.886493e-03 -2.954846e-03
5.269541e-04 3.068803e-04 1.755135e-02
5.823201e-03 -8.993879e-03 1.452546e-02
-5.027841e-04 -1.145734e-02 1.424108e-02
3.627156e-03 1.108900e-02 1.387720e-02
9.879256e-03 6.099453e-03 1.395576e-02
1.161843e-02 1.190438e-03 1.379862e-02
6.730804e-03 1.985902e-02 -7.144197e-04
1.772347e-02 1.119689e-02 -6.595306e-04
1.203326e-02 -1.678843e-02 -6.059980e-03
8.970897e-03 -1.894319e-02 -5.358840e-03
1.057979e-02 4.485852e-03 1.417577e-02
1.694787e-04 6.722220e-04 1.733853e-02
-1.049429e-02 4.484617e-03 1.414428e-02
1.212843e-02 -3.826829e-04 -2.132989e-02
-5.123238e-04 5.634267e-04 -2.508903e-02
2.235967e-04 6.406477e-04 -2.495773e-02
8.701601e-03 5.412381e-03 1.485201e-02
-8.787794e-03 5.626770e-03 1.480415e-02
-1.794254e-03 2.158219e-02 -6.218567e-03
5.036701e-03 1.028663e-02 -2.175968e-02
8.361284e-03 7.709208e-03 -2.177478e-02
-9.380310e-04 2.132053e-02 -3.137668e-03
-5.080627e-06 3.390146e-04 1.750881e-02
-2.097419e-02 2.930438e-03 -1.628857e-03
-9.602145e-03 6.092549e-03 1.408225e-02
4.369637e-03 -2.066997e-02 -2.992993e-03
6.568074e-04 1.100720e-02 1.427123e-02
-6.705033e-03 -1.975166e-02 -1.023775e-05
-1.070638e-03 1.182362e-02 -2.132558e-02
-4.112503e-05 -5.276153e-04 -2.522160e-02
-4.929517e-04 -2.303947e-04 -2.523430e-02
2.888970e-03 -1.067471e-02 1.513542e-02
7.414341e-03 1.825400e-02 3.702663e-03
-1.914298e-05 -4.438847e-05 1.763037e-02
3.559204e-03 -9.983973e-03 1.464286e-02
-1.950367e-02 8.161041e-03 -2.396706e-03
1.969014e-02 7.647290e-03 -2.164115e-03
-9.120878e-03 -6.764777e-03 1.472377e-02
-3.480522e-03 -1.005058e-02 1.463776e-02
2.078031e-02 -3.479987e-04 2.549592e-04
-2.085633e-02 -6.015673e-04 -5.104049e-04
1.910958e-02 -9.427323e-03 -5.608974e-03
-1.065237e-02 3.507766e-03 1.458309e-02
2.862279e-03 -9.607561e-03 1.501199e-02
3.240225e-04 -1.564250e-04 1.737640e-02
-3.634340e-03 9.967398e-03 1.450416e-02
1.602562e-03 -5.362960e-04 -2.491678e-02
1.085590e-02 8.587825e-03 -2.018278e-02
-1.053855e-02 8.343733e-03 -2.022827e-02
8.885102e-03 4.908117e-03 1.455031e-02
2.437213e-03 9.683006e-03 1.469354e-02
9.463617e-03 1.544804e-03 1.487561e-02
-2.912095e-03 2.106370e-02 -3.295028e-03
3.926516e-03 1.036942e-02 1.414634e-02
9.192587e-03 6.286626e-03 1.413292e-02
3.260822e-04 -1.415424e-06 1.745159e-02
-5.079646e-03 -1.993227e-02 3.797750e-04
-2.131445e-02 1.628512e-03 -1.770250e-03
-1.463898e-03 -1.546251e-03 -2.517046e-02
-1.080850e-03 -1.882092e-03 -2.525573e-02
-2.085510e-03 -1.062437e-02 1.431002e-02
1.015179e-02 -2.732740e-03 1.477143e-02
-1.024190e-02 -2.888848e-03 1.463151e-02
-3.104104e-03 -2.071022e-02 2.571287e-04
-1.378104e-02 -1.578519e-02 5.351665e-06
-1.363816e-02 1.480050e-02 2.957738e-03
-4.452231e-04 1.215296e-04 1.742783e-02
4.403041e-04 1.621008e-04 1.736612e-02
-5.918864e-03 1.915706e-02 3.864478e-03
-2.064740e-02 -5.645418e-03 4.841239e-04
-1.686636e-02 7.006724e-04 -1.722890e-02
1.686428e-02 -2.809025e-03 -1.668323e-02
8.030119e-03 7.795155e-03 -2.153594e-02
-8.249627e-03 7.896016e-03 -2.148516e-02
-2.816132e-03 9.962363e-03 1.454228e-02
-4.680065e-03 -2.057183e-02 -5.434566e-03
-8.079325e-03 -1.874441e-02 2.365139e-03
-9.390304e-03 5.127405e-03 -2.183791e-02
1.028056e-05 7.252813e-04 1.731763e-02
9.446931e-03 5.381339e-03 -2.187744e-02
-1.429398e-02 -8.896533e-04 -1.946488e-02
1.419741e-02 -1.090619e-03 -1.923605e-02
6.228339e-03 -9.887659e-03 1.415870e-02
8.700299e-03 -1.169131e-02 -1.884928e-02
-8.804559e-03 -1.187740e-02 -1.894868e-02
-1.687495e-02 1.244416e-02 -8.059138e-04
1.680250e-02 1.259511e-02 -1.035426e-03
-1.182835e-02 -8.514762e-03 -1.907795e-02
1.187970e-02 -8.518850e-03 -1.897112e-02
-1.014817e-04 4.411457e-05 1.754687e-02
2.787235e-03 2.076742e-02 1.462903e-03
6.701105e-03 1.002760e-03 -2.442406e-02
-4.606056e-03 2.066938e-02 -4.259426e-03
2.289629e-03 -1.044407e-02 1.442977e-02
-3.534233e-04 9.841731e-03 1.497544e-02
1.897941e-02 6.251415e-03 3.068192e-03
9.128774e-03 -5.735098e-03 1.478433e-02
-3.186467e-03 -1.019730e-02 -2.241437e-02
1.735793e-04 5.666672e-03 -2.425159e-02
-8.679957e-03 -1.948588e-02 -4.152440e-03
9.156134e-05 7.964403e-06 1.745389e-02
-7.251163e-03 1.987508e-02 -7.924356e-03
1.392578e-02 -1.544030e-02 -4.855651e-04
1.981309e-03 6.166825e-03 -2.409656e-02
5.653578e-03 3.010314e-03 -2.428690e-02
-8.321990e-03 -7.066120e-03 1.451619e-02
7.998023e-03 -7.256941e-03 1.451395e-02
1.402835e-02 -1.569838e-02 -4.049419e-03
3.959130e-03 -1.001521e-02 1.465214e-02
-5.526189e-03 -8.962716e-03 1.479039e-02
1.652524e-02 2.285820e-03 -1.674780e-02
-2.497746e-04 -8.810779e-05 1.734946e-02
-1.650060e-02 2.356817e-03 -1.641078e-02
1.767631e-02 -1.196932e-02 -3.756601e-03
8.100830e-03 -1.832964e-02 2.663989e-03
-1.164750e-02 -1.095968e-02 -1.768733e-02
1.177961e-02 -1.110300e-02 -1.776093e-02
1.436634e-03 -2.126480e-02 -2.510666e-03
-6.094629e-04 -1.783910e-02 -1.439247e-02
3.323348e-03 1.014248e-02 1.438470e-02
-1.953974e-02 -4.384856e-03 3.464454e-03
-1.892315e-03 2.092987e-02 -9.074523e-04
-1.257075e-04 -1.328119e-04 1.751813e-02
2.365727e-03 -1.546309e-02 -1.796526e-02
-1.276013e-02 5.143977e-03 -2.043625e-02
-3.533787e-03 -1.979536e-02 3.257737e-03
-1.371024e-02 -1.470206e-02 3.107489e-03
1.012663e-02 -8.449426e-05 1.469108e-02
4.472301e-03 1.309306e-02 -2.020296e-02
1.161501e-02 7.432637e-03 -2.019456e-02
-4.955572e-03 2.018962e-02 6.714271e-04
2.447966e-04 -3.452432e-04 -2.555969e-02
-1.676815e-02 -2.770816e-03 8.865629e-03
-3.575649e-04 -2.451916e-04 1.742984e-02
1.084039e-02 -3.106956e-03 1.432166e-02
-8.433565e-03 -4.947086e-03 -2.282855e-02
1.262371e-02 -1.585688e-02 1.285424e-03
-1.512754e-02 -7.983339e-03 8.843354e-03
-2.182802e-03 4.562104e-03 -2.473879e-02
1.426724e-02 7.813322e-04 -1.953543e-02
-1.264070e-02 -1.155405e-02 8.691839e-03
-3.991359e-03 -1.656520e-02 9.045138e-03
-8.147047e-03 -1.513367e-02 8.741682e-03
5.114732e-03 -6.256155e-04 -2.450935e-02
3.058865e-04 -1.520545e-04 1.743004e-02
-4.926483e-03 -1.329144e-03 -2.422534e-02
-1.552960e-02 -9.440135e-03 -1.488314e-02
1.534292e-02 -9.453364e-03 -1.482539e-02
-2.049340e-02 4.983669e-03 -7.436944e-04
-2.006214e-02 -4.260812e-03 1.193413e-03
2.006066e-02 -4.280732e-03 1.221571e-03
2.631950e-03 9.769480e-03 1.479208e-02
-3.987228e-04 -2.161482e-03 -2.483980e-02
6.167825e-03 -7.983497e-03 1.507637e-02
1.955381e-02 8.178137e-03 -5.412520e-03
5.030892e-04 3.228133e-04 1.750409e-02
3.574860e-03 2.092318e-02 -6.596282e-03
2.052765e-02 4.578789e-03 -5.574093e-03
-6.345711e-04 1.611406e-02 -1.795897e-02
1.174221e-03 1.030407e-02 1.476152e-02
-4.254895e-03 -9.301021e-03 1.460932e-02
1.248827e-03 -1.329785e-02 -2.029898e-02
7.975688e-03 6.852808e-03 1.462672e-02
4.516094e-03 9.373941e-03 1.465796e-02
7.016618e-03 3.105005e-03 -2.365144e-02
-7.130578e-03 3.196010e-03 -2.360125e-02
1.925976e-04 3.685752e-04 1.735473e-02
1.370250e-02 1.554657e-02 -1.041601e-03
-1.376260e-02 1.549378e-02 -8.933693e-04
9.806609e-03 -2.467146e-03 -2.220510e-02
-9.703376e-03 -1.907642e-03 -2.223236e-02
-3.754512e-05 1.031757e-02 1.450395e-02
-1.930700e-02 6.989190e-03 1.281088e-03
3.229782e-03 4.066781e-03 -2.452521e-02
-3.088291e-03 4.148914e-03 -2.477705e-02
1.070727e-03 1.668143e-02 -1.699086e-02
1.101156e-05 -1.447944e-04 -2.520594e-02
5.512966e-05 7.507279e-05 1.740400e-02
1.787056e-04 3.205524e-04 1.742084e-02
-1.178964e-02 -1.739333e-02 -6.599422e-03
-1.954116e-02 6.179146e-03 -9.990731e-03
1.983527e-02 5.610174e-03 -9.760777e-03
-1.874657e-02 1.028628e-02 -1.934386e-03
-3.529103e-03 1.360350e-02 -2.009409e-02
1.983271e-02 7.131674e-04 3.623617e-03
-7.261613e-03 1.907102e-02 1.659376e-03
-6.258839e-03 9.188420e-03 1.407905e-02
-4.175428e-03 -7.743386e-03 -2.332390e-02
-9.726599e-03 -9.929781e-04 -2.277541e-02
1.327087e-04 3.058361e-04 1.758876e-02
1.841906e-02 -1.103558e-02 -2.578766e-03
-9.331789e-03 6.295047e-03 1.426049e-02
-2.373414e-03 -1.769915e-02 -1.493095e-02
-3.059752e-03 9.223720e-03 1.501826e-02
9.714359e-03 2.565403e-03 1.458975e-02
-1.500979e-02 6.810603e-03 -1.738503e-02
-6.875655e-03 6.797186e-03 1.513017e-02
8.902616e-03 3.906161e-03 1.465005e-02
-3.099804e-03 -1.156261e-02 -2.151096e-02
2.016328e-02 -4.190430e-04 1.763419e-03
-1.495612e-04 1.278088e-04 1.740257e-02
-1.574479e-02 1.727428e-03 -1.840672e-02
8.756730e-03 -6.706746e-03 1.458805e-02
-1.904265e-02 9.194814e-03 -5.782379e-05
1.902107e-02 9.224333e-03 -7.800384e-05
-2.179979e-03 -1.313335e-02 -2.091720e-02
7.027444e-03 -1.990867e-02 -3.590756e-03
-1.250838e-02 -2.748092e-03 -2.103815e-02
6.553269e-03 -2.023358e-02 -4.384629e-03
-7.197270e-03 -1.844143e-02 -1.073178e-02
1.221651e-02 1.726672e-02 -6.224105e-03
1.007946e-04 -3.459195e-05 1.747086e-02
1.371101e-02 1.607945e-02 -5.984187e-03
1.020645e-02 -3.151954e-03 1.468971e-02
-1.854520e-02 -8.285956e-03 2.394351e-03
-8.898266e-03 4.273394e-03 1.480934e-02
-2.974749e-03 -9.591576e-04 -2.501052e-02
2.342493e-03 -1.874907e-02 -1.318897e-02
2.257888e-03 1.001034e-02 -2.247788e-02
-1.102201e-02 -1.724614e-02 2.001134e-03
-1.210849e-02 -5.334784e-03 -2.078267e-02
2.892941e-03 -1.065376e-02 1.465276e-02
1.827086e-04 3.987421e-04 1.747895e-02
-8.512966e-03 1.884646e-02 1.618786e-05
1.146389e-02 2.656804e-03 -2.191449e-02