# vtk DataFile Version 2.0
Electric current density generated by TTH
ASCII
DATASET UNSTRUCTURED_GRID
POINTS 9203 double
3.019694e-05 2.564951e-05 -1.395728e-22
-3.884433e-05 -1.930270e-06 5.475105e-07
-3.877782e-05 -2.981443e-06 5.475105e-07
-3.868286e-05 -4.030429e-06 5.475105e-07
-3.855953e-05 -5.076459e-06 5.475105e-07
-3.840793e-05 -6.118766e-06 5.475105e-07
-3.822815e-05 -7.156585e-06 5.475105e-07
-3.802033e-05 -8.189155e-06 5.475105e-07
-3.778463e-05 -9.215719e-06 5.475105e-07
-3.752122e-05 -1.023552e-05 5.475105e-07
-3.723029e-05 -1.124782e-05 5.475105e-07
2.996416e-05 2.592107e-05 -1.395728e-22
-3.691205e-05 -1.225187e-05 5.475105e-07
-3.656674e-05 -1.324693e-05 5.475105e-07
-3.619462e-05 -1.423228e-05 5.475105e-07
-3.579594e-05 -1.520719e-05 5.475105e-07
-3.537101e-05 -1.617095e-05 5.475105e-07
-3.492014e-05 -1.712284e-05 5.475105e-07
-3.444366e-05 -1.806218e-05 5.475105e-07
-3.394192e-05 -1.898827e-05 5.475105e-07
-3.341528e-05 -1.990043e-05 5.475105e-07
-3.286414e-05 -2.079800e-05 5.475105e-07
2.972894e-05 2.619051e-05 -1.395728e-22
-3.228889e-05 -2.168031e-05 5.475105e-07
-3.168996e-05 -2.254672e-05 5.475105e-07
-3.106778e-05 -2.339660e-05 5.475105e-07
-3.042283e-05 -2.422932e-05 5.475105e-07
-2.975555e-05 -2.504426e-05 5.475105e-07
-2.906646e-05 -2.584084e-05 5.475105e-07
-2.835605e-05 -2.661847e-05 5.475105e-07
-2.762484e-05 -2.737657e-05 5.475105e-07
-2.687336e-05 -2.811459e-05 5.475105e-07
-2.610218e-05 -2.883200e-05 5.475105e-07
2.949129e-05 2.645782e-05 -1.395728e-22
-2.531186e-05 -2.952826e-05 5.475105e-07
-2.450297e-05 -3.020286e-05 5.475105e-07
-2.367611e-05 -3.085531e-05 5.475105e-07
-2.283188e-05 -3.148513e-05 5.475105e-07
-2.197091e-05 -3.209185e-05 5.475105e-07
-2.109383e-05 -3.267504e-05 5.475105e-07
-2.020127e-05 -3.323427e-05 5.475105e-07
-1.929390e-05 -3.376912e-05 5.475105e-07
-1.837238e-05 -3.427920e-05 5.475105e-07
-1.743738e-05 -3.476415e-05 5.475105e-07
2.925124e-05 2.672297e-05 -1.395728e-22
-1.648960e-05 -3.522359e-05 5.475105e-07
-1.552972e-05 -3.565720e-05 5.475105e-07
-1.455845e-05 -3.606466e-05 5.475105e-07
-3.737088e-06 -3.857949e-05 4.904328e-07
3.114236e-05 2.303194e-05 -4.739887e-07
3.150146e-05 2.210006e-05 1.397672e-08
3.114236e-05 -2.303194e-05 -4.739887e-07
3.150146e-05 -2.210006e-05 1.397672e-08
1.989320e-05 -3.340313e-05 -5.432319e-07
1.988946e-05 3.339686e-05 -5.408626e-07
2.900881e-05 2.698595e-05 -1.395728e-22
1.151506e-05 -3.707688e-05 5.229445e-07
-3.773409e-05 9.203393e-06 -5.297394e-07
-3.016246e-05 -2.447019e-05 -5.297394e-07
-2.733995e-05 -2.758788e-05 -5.297394e-07
-3.846062e-05 -5.417091e-06 -5.297394e-07
-1.896287e-05 -3.389652e-05 -5.297394e-07
-2.447019e-05 3.016246e-05 -5.297394e-07
-3.471765e-05 -1.741406e-05 -5.297394e-07
-1.550894e-05 3.560951e-05 -5.297394e-07
-2.902758e-05 2.580628e-05 -5.297394e-07
2.876401e-05 2.724672e-05 -1.395728e-22
-1.518696e-05 -3.576330e-05 -5.351029e-07
-3.487343e-05 1.709994e-05 -5.297394e-07
-3.560951e-05 -1.550894e-05 -5.297394e-07
-5.417091e-06 3.846062e-05 -5.297394e-07
-3.872595e-05 2.977455e-06 -5.297394e-07
-3.639692e-05 -1.355834e-05 -5.297394e-07
-3.718049e-05 1.123278e-05 -5.297394e-07
-2.106561e-05 3.263134e-05 -5.297394e-07
8.765076e-07 3.883035e-05 -5.297394e-07
-3.170071e-05 2.244233e-05 -5.298861e-07
2.851687e-05 2.750528e-05 -1.395728e-22
-2.077018e-05 -3.282018e-05 -5.297394e-07
-1.156796e-05 3.707757e-05 -5.297394e-07
-3.651783e-05 1.322922e-05 -5.297394e-07
5.069669e-06 3.850796e-05 -5.297394e-07
-2.251657e-05 -3.164757e-05 -5.297394e-07
-1.227011e-06 3.882085e-05 -5.297394e-07
-3.282018e-05 2.077018e-05 -5.297394e-07
-1.926809e-05 3.372395e-05 -5.297394e-07
-9.564669e-06 3.764541e-05 -5.302232e-07
-3.038213e-05 2.419691e-05 -5.297394e-07
2.826741e-05 2.776159e-05 -1.395728e-22
-1.357878e-05 3.639060e-05 -5.302232e-07
7.147012e-06 3.817702e-05 -5.297394e-07
-3.850796e-05 5.069669e-06 -5.297394e-07
-7.491362e-06 3.811094e-05 -5.297394e-07
2.977455e-06 3.872595e-05 -5.297394e-07
-3.575754e-05 1.516766e-05 -5.302232e-07
-3.348320e-06 3.869688e-05 -5.302232e-07
-2.760379e-05 2.732563e-05 -5.302232e-07
-1.743370e-05 3.470916e-05 -5.302232e-07
-3.707757e-05 -1.156796e-05 -5.297394e-07
2.801564e-05 2.801564e-05 -1.395728e-22
-3.372395e-05 -1.926809e-05 -5.297394e-07
-3.389652e-05 1.896287e-05 -5.297394e-07
-2.606727e-05 2.879343e-05 -5.297394e-07
-1.709994e-05 -3.487343e-05 -5.297394e-07
-2.281936e-05 3.143146e-05 -5.302232e-07
-3.869749e-05 -3.326930e-06 -5.297394e-07
-3.262077e-05 -2.108422e-05 -5.302232e-07
-3.764947e-05 -9.543660e-06 -5.297394e-07
-3.883035e-05 8.765076e-07 -5.297394e-07
-2.878000e-05 -2.608393e-05 -5.302232e-07
2.776159e-05 2.826741e-05 -1.395728e-22
-3.810802e-05 -7.512560e-06 -5.302232e-07
-3.882140e-05 -1.248403e-06 -5.302232e-07
-3.144301e-05 -2.280134e-05 -5.297394e-07
-3.818214e-05 7.126237e-06 -5.302232e-07
-2.579112e-05 -2.904269e-05 -5.302232e-07
-2.419691e-05 -3.038213e-05 -5.297394e-07
1.123278e-05 3.718049e-05 -5.297394e-07
9.203393e-06 3.773409e-05 -5.297394e-07
1.322922e-05 3.651784e-05 -5.297426e-07
2.710254e-05 -2.784667e-05 -5.366269e-07
2.750528e-05 2.851687e-05 -1.395728e-22
3.408871e-05 -1.882055e-05 5.589035e-07
3.408871e-05 1.882055e-05 5.589035e-07
1.397713e-05 -3.683216e-05 -4.537192e-07
3.859699e-05 3.841462e-06 5.057555e-07
3.859699e-05 -3.841462e-06 5.057555e-07
3.712886e-05 -1.137852e-05 -5.269237e-07
3.779379e-05 -7.778698e-06 -3.304431e-07
3.107026e-05 2.303572e-05 4.316605e-07
3.107026e-05 -2.303572e-05 4.316605e-07
3.560854e-05 -1.576267e-05 -5.593492e-07
2.724672e-05 2.876401e-05 -1.395728e-22
3.560854e-05 1.576267e-05 -5.593492e-07
2.638542e-05 2.836382e-05 4.772276e-07
7.643475e-06 -3.797819e-05 -4.778005e-07
2.400222e-05 -3.040493e-05 4.761222e-07
3.896385e-05 7.493434e-07 5.643188e-07
3.896385e-05 -7.493434e-07 5.643188e-07
3.625598e-05 1.428343e-05 -5.638962e-07
3.625598e-05 -1.428343e-05 -5.638962e-07
3.810729e-05 7.768808e-06 5.471820e-07
2.824548e-05 -2.682724e-05 5.618664e-07
2.698595e-05 2.900881e-05 -1.395728e-22
2.927485e-05 2.569523e-05 5.613225e-07
2.927167e-05 -2.569884e-05 5.613216e-07
3.696656e-05 1.130402e-05 -4.117137e-07
2.344950e-05 3.110757e-05 5.619800e-07
1.149872e-05 -3.721721e-05 -5.615009e-07
2.709100e-05 -2.798964e-05 5.615026e-07
3.829754e-05 -5.929822e-06 -4.867246e-07
3.815322e-05 -5.912470e-06 3.601294e-07
3.829444e-05 5.940143e-06 -4.858196e-07
3.815871e-05 5.908875e-06 3.660172e-07
2.672297e-05 2.925124e-05 -1.395728e-22
2.100967e-05 -3.238616e-05 3.544001e-07
2.194358e-05 -3.213866e-05 5.536810e-07
5.767735e-06 -3.843457e-05 5.388734e-07
3.737180e-05 -9.712438e-06 -3.657227e-07
2.231932e-05 -3.135762e-05 1.021901e-07
3.474903e-05 1.693452e-05 4.112891e-07
3.474903e-05 -1.693452e-05 4.112891e-07
3.896518e-05 -2.289072e-06 -5.695682e-07
3.896518e-05 2.289072e-06 -5.695682e-07
3.680608e-05 1.299651e-05 -5.695965e-07
2.645782e-05 2.949129e-05 -1.395728e-22
3.679746e-05 -1.303482e-05 -5.697159e-07
3.435385e-05 -1.827193e-05 -5.525231e-07
3.435385e-05 1.827193e-05 -5.525231e-07
3.310914e-05 1.960953e-05 1.046925e-08
3.310914e-05 -1.960953e-05 1.046926e-08
3.871566e-05 -5.153701e-06 -5.698072e-07
3.871566e-05 5.153701e-06 -5.698072e-07
2.717682e-05 2.805727e-05 5.697408e-07
2.356960e-05 -3.114345e-05 5.698106e-07
6.936938e-06 -3.843479e-05 -5.698224e-07
2.619051e-05 2.972894e-05 -1.395728e-22
8.468354e-06 -3.813143e-05 -5.697580e-07
2.480219e-05 -3.017566e-05 5.697579e-07
2.603061e-05 2.912242e-05 5.697605e-07
3.846664e-05 6.791453e-06 -5.697368e-07
3.849745e-05 -6.765456e-06 -5.686368e-07
-4.139386e-06 -3.877105e-05 -5.668021e-07
3.029182e-05 -2.457600e-05 5.682329e-07
3.029182e-05 2.457600e-05 5.682329e-07
3.882062e-05 -3.534290e-06 -5.656461e-07
3.882062e-05 3.534290e-06 -5.656461e-07
2.592107e-05 2.996416e-05 -1.395728e-22
2.128206e-05 3.262520e-05 5.614751e-07
-1.372399e-05 -3.650522e-05 5.676052e-07
3.858454e-05 9.358451e-07 -3.439216e-07
3.858454e-05 -9.358451e-07 -3.439216e-07
-1.787257e-06 -3.876773e-05 -5.162183e-07
-9.401809e-07 -3.904004e-05 -5.698482e-07
3.795552e-05 7.477204e-06 -4.374114e-07
-2.617698e-06 -3.899746e-05 -5.687752e-07
2.747976e-05 -2.722288e-05 4.340590e-07
-1.814437e-06 -3.872998e-05 4.975545e-07
2.564951e-05 3.019694e-05 -1.395728e-22
3.845408e-05 -4.232444e-06 -4.384817e-07
3.845408e-05 4.232444e-06 -4.384817e-07
5.945571e-06 -3.817440e-05 -3.898566e-07
-1.124751e-05 -3.680114e-05 -3.626446e-08
-1.111418e-05 -3.741973e-05 -5.696553e-07
3.373056e-05 1.937292e-05 5.491568e-07
3.373056e-05 -1.937292e-05 5.491568e-07
-3.263981e-06 -3.848321e-05 -3.752359e-07
3.022937e-05 2.452448e-05 -5.562279e-07
3.072197e-05 2.391221e-05 -5.572612e-07
2.537586e-05 3.042726e-05 -1.395728e-22
3.022937e-05 -2.452448e-05 -5.562279e-07
3.072197e-05 -2.391221e-05 -5.572612e-07
3.211196e-05 -2.189161e-05 5.385987e-07
3.211196e-05 2.189161e-05 5.385987e-07
-8.591133e-06 -3.761372e-05 -3.252930e-07
-7.470628e-06 -3.826185e-05 -5.660257e-07
3.285568e-05 -2.100723e-05 5.673956e-07
3.285568e-05 2.100723e-05 5.673956e-07
3.482676e-05 1.649912e-05 -2.482239e-07
3.482676e-05 -1.649912e-05 -2.482239e-07
2.510015e-05 3.065510e-05 -1.395728e-22
3.668531e-05 1.291645e-05 5.476523e-07
3.700649e-05 1.210404e-05 5.582153e-07
3.670447e-05 -1.292278e-05 5.530564e-07
2.233750e-05 3.167356e-05 4.891670e-07
-1.757782e-07 -3.894228e-05 5.596043e-07
7.293957e-07 -3.872351e-05 4.716010e-07
1.586555e-06 -3.903309e-05 5.696500e-07
4.130178e-06 -3.867331e-05 -5.477878e-07
1.895739e-05 -3.398798e-05 -5.541506e-07
1.895739e-05 3.398798e-05 -5.541506e-07
2.482239e-05 3.088044e-05 -1.395728e-22
4.481295e-06 -3.843340e-05 4.445807e-07
2.910286e-05 -2.577862e-05 -5.432527e-07
2.844901e-05 -2.644265e-05 -5.297175e-07
2.911172e-05 2.580780e-05 -5.508084e-07
3.919590e-05 -6.203140e-07 -5.496011e-07
3.919590e-05 6.203140e-07 -5.496011e-07
3.608536e-05 -1.441796e-05 5.368375e-07
3.571608e-05 -1.531742e-05 5.378856e-07
3.648040e-05 -1.370558e-05 5.641727e-07
3.608536e-05 1.441796e-05 5.368375e-07
2.454261e-05 3.110326e-05 -1.395728e-22
[...]
POINT_DATA 9203
VECTORS 10.000GHz_fone_imag double
4.244122e+10 -4.830177e+10 -1.122548e+09
-2.415606e+09 6.822696e+10 8.563433e+07
-6.019894e+09 6.777345e+10 2.890594e+08
-6.757973e+09 6.796859e+10 9.985817e+08
-9.701026e+09 6.743786e+10 2.951857e+08
-1.044054e+10 6.844440e+10 2.709093e+08
-1.351180e+10 6.655832e+10 2.658886e+08
-1.345948e+10 6.696828e+10 1.091756e+08
-1.693966e+10 6.591601e+10 2.998041e+08
-1.769032e+10 6.595147e+10 1.003400e+09
-2.034252e+10 6.519970e+10 8.557353e+07
4.165536e+10 -4.938257e+10 2.376597e+09
-2.100616e+10 6.513173e+10 9.610603e+08
-2.376074e+10 6.377111e+10 2.256268e+08
-2.468434e+10 6.370607e+10 9.911280e+08
-2.729774e+10 6.233635e+10 2.801583e+08
-2.813135e+10 6.250658e+10 1.846539e+08
-3.103480e+10 6.120328e+10 3.206629e+08
-3.154816e+10 6.035337e+10 4.953715e+08
-3.372931e+10 5.859033e+10 3.517120e+07
-3.462994e+10 5.962658e+10 2.615509e+08
-3.663406e+10 5.611665e+10 1.669867e+08
4.184315e+10 -4.876070e+10 1.329334e+09
-3.726050e+10 5.716992e+10 7.672152e+08
-4.008047e+10 5.502862e+10 2.697341e+08
-4.096417e+10 5.491136e+10 9.732320e+08
-4.436658e+10 5.348167e+10 4.241885e+08
-4.401946e+10 5.327019e+10 3.912958e+08
-4.536924e+10 4.938755e+10 2.164452e+08
-4.605367e+10 5.047550e+10 8.502013e+07
-4.871415e+10 4.766459e+10 3.751926e+08
-4.974971e+10 4.820398e+10 2.686645e+08
-5.107446e+10 4.480955e+10 2.744022e+08
4.431994e+10 -4.828624e+10 2.231827e+09
-5.132496e+10 4.513653e+10 1.201323e+08
-5.336218e+10 4.234784e+10 2.774755e+08
-5.402651e+10 4.189066e+10 9.867036e+08
-5.563944e+10 3.960641e+10 8.353645e+07
-5.613590e+10 3.910649e+10 9.624607e+08
-5.750002e+10 3.635443e+10 2.296388e+08
-5.818658e+10 3.588210e+10 9.699980e+08
-5.956602e+10 3.332873e+10 8.728130e+07
-6.003902e+10 3.282155e+10 9.556240e+08
-6.128205e+10 3.012285e+10 6.813927e+07
4.372881e+10 -4.836800e+10 1.359339e+09
-6.180833e+10 2.952916e+10 9.670772e+08
-6.344418e+10 2.697472e+10 1.064900e+07
-6.527878e+10 2.467610e+10 -2.506942e+08
-6.709316e+10 6.603094e+09 -2.193785e+08
4.237791e+10 -5.729601e+10 2.969770e+09
4.125051e+10 -5.664181e+10 -8.385975e+08
-4.237726e+10 -5.729520e+10 -2.969853e+09
-4.125115e+10 -5.664274e+10 8.390865e+08
-5.816605e+10 -3.516506e+10 1.833716e+09
5.769282e+10 -3.485690e+10 -1.550694e+09
4.527929e+10 -4.778274e+10 4.298177e+08
-6.740158e+10 -1.959003e+10 9.774410e+07
1.711448e+10 6.722380e+10 -2.406009e+08
-4.260788e+10 5.351783e+10 3.685778e+08
-4.869809e+10 4.929644e+10 -2.103830e+08
-8.917886e+09 6.886229e+10 -2.131531e+08
-5.963042e+10 3.413536e+10 1.022032e+08
5.367821e+10 4.261092e+10 3.959546e+08
-3.008765e+10 6.152258e+10 3.457138e+07
6.301137e+10 2.660333e+10 3.821012e+08
4.604026e+10 5.061030e+10 3.906812e+08
4.392664e+10 -4.608608e+10 -1.064866e+09
-6.212412e+10 2.777419e+10 -1.015538e+09
3.123685e+10 6.202470e+10 -2.265599e+08
-2.761635e+10 6.336775e+10 -4.588478e+07
6.881739e+10 8.932275e+09 -2.144465e+08
6.067499e+09 6.916753e+10 -2.235310e+08
-2.328814e+10 6.459257e+10 1.065656e+08
2.054996e+10 6.551882e+10 1.069252e+08
5.737832e+10 3.833991e+10 1.067610e+08
6.921630e+10 -1.543783e+09 -3.659214e+07
4.040940e+10 5.679599e+10 6.116900e+08
4.457813e+10 -4.478876e+10 1.612479e+08
-5.759690e+10 3.731855e+10 1.146204e+08
6.640328e+10 1.998246e+10 -2.287212e+08
2.402827e+10 6.429335e+10 1.074924e+08
6.801021e+10 -9.623331e+09 1.147372e+08
-5.551528e+10 4.037490e+10 1.202906e+08
6.845633e+10 1.504325e+09 4.485368e+07
3.737136e+10 5.774112e+10 -3.803869e+07
6.062039e+10 3.371842e+10 -2.010180e+08
6.686294e+10 1.644677e+10 -3.919820e+07
4.324800e+10 5.349544e+10 -3.408954e+08
4.594429e+10 -4.526692e+10 -5.892793e+08
6.458306e+10 2.318357e+10 1.246981e+08
6.736083e+10 -1.331759e+10 1.044930e+08
9.613785e+09 6.794995e+10 1.032952e+08
6.709318e+10 1.284406e+10 -1.254154e+08
6.846188e+10 -5.938605e+09 9.743278e+07
2.751843e+10 6.285655e+10 4.254479e+07
6.895397e+10 5.020000e+09 -4.725240e+07
4.929671e+10 4.854400e+10 -2.648769e+07
6.228194e+10 3.023117e+10 -4.622390e+07
-1.980322e+10 6.574767e+10 1.115959e+08
4.374258e+10 -4.702035e+10 -8.214602e+08
-3.517664e+10 5.957181e+10 1.278875e+08
3.413075e+10 5.962374e+10 1.025254e+08
5.033487e+10 4.706023e+10 8.713617e+07
-6.136329e+10 3.085508e+10 1.108259e+08
5.648563e+10 3.983869e+10 -5.685235e+07
-5.232471e+09 6.843894e+10 8.947271e+07
-3.683560e+10 5.858927e+10 -2.615162e+07
-1.606121e+10 6.663839e+10 1.293816e+08
5.112565e+08 6.908889e+10 1.225387e+08
-4.620547e+10 5.155910e+10 -1.887698e+08
4.674835e+10 -4.524808e+10 -1.675232e+09
-1.287844e+10 6.741940e+10 -1.619912e+07
-1.850195e+09 6.931238e+10 -1.898870e+08
-3.972733e+10 5.590333e+10 8.567876e+07
1.338983e+10 6.734125e+10 5.278607e+07
-5.106775e+10 4.588563e+10 -1.745689e+07
-5.327776e+10 4.328475e+10 9.801849e+07
6.553319e+10 -2.052146e+10 1.177507e+08
6.655997e+10 -1.689111e+10 9.769412e+07
6.449741e+10 -2.469194e+10 5.579874e+08
-4.710667e+10 -4.828483e+10 4.492851e+08
4.569823e+10 -4.495184e+10 7.228687e+08
-3.381738e+10 -5.977800e+10 -1.002363e+09
3.381675e+10 -5.977903e+10 1.001422e+09
-5.908266e+10 -2.121344e+10 1.793242e+08
6.466266e+09 -6.721919e+10 1.352086e+09
-6.481968e+09 -6.696786e+10 -1.443761e+09
-1.953521e+10 -6.595111e+10 1.263004e+09
-1.452450e+10 -6.780326e+10 -7.302679e+08
4.075452e+10 -5.568137e+10 -3.737807e+08
-4.075561e+10 -5.568298e+10 3.739670e+08
-2.736927e+10 -6.196111e+10 1.234053e+09
4.772989e+10 -4.324772e+10 5.464936e+08
2.737420e+10 -6.195461e+10 -1.236233e+09
5.239995e+10 -4.732248e+10 -8.574723e+08
-6.930852e+10 -1.397420e+10 -4.931387e+08
-5.417192e+10 -4.300534e+10 -6.275603e+08
1.136783e+09 -6.784730e+10 -1.006806e+08
-1.808520e+09 -6.813668e+10 4.661290e+07
2.449939e+10 -6.397612e+10 1.163953e+09
-2.464128e+10 -6.379846e+10 -1.194322e+09
1.450242e+10 -6.782454e+10 -5.451306e+08
-4.677592e+10 -5.112677e+10 5.908539e+08
4.758374e+10 -4.359034e+10 -1.222704e+09
4.495069e+10 -5.039062e+10 2.616145e+08
-4.481355e+10 -5.077365e+10 -3.959812e+08
2.145874e+10 -6.733073e+10 3.178550e+08
5.359242e+10 -4.109881e+10 -3.351822e+08
-6.303214e+10 -2.017174e+10 -2.800509e+09
-4.944423e+10 -4.749435e+10 -1.106298e+09
-1.088147e+10 -6.805158e+10 -4.034825e+08
-1.024942e+10 -6.852727e+10 -4.195111e+08
1.024378e+10 -6.733563e+10 1.147636e+09
1.077750e+10 -6.904899e+10 -3.045357e+08
4.825113e+10 -4.277564e+10 -1.649134e+09
-5.817501e+10 -3.765544e+10 -1.356327e+09
-5.630488e+10 -3.753188e+10 6.547692e+08
-6.712892e+10 -9.193450e+09 2.203225e+08
-1.842320e+10 -6.619989e+10 7.095292e+08
-5.628112e+10 -4.117777e+10 1.752104e+09
3.216622e+10 -6.086586e+10 1.537937e+09
-3.216893e+10 -6.086686e+10 -1.539343e+09
-4.460307e+09 -6.715979e+10 1.052720e+09
4.417702e+09 -6.715611e+10 -1.047037e+09
2.058401e+10 -6.334903e+10 -1.524192e+09
4.726134e+10 -4.349275e+10 2.456166e+08
-2.243492e+10 -6.445562e+10 6.823379e+08
-3.326268e+10 -5.942868e+10 -1.143339e+09
3.326036e+10 -5.942744e+10 1.143630e+09
3.477074e+10 -5.973343e+10 -4.293084e+08
-3.477146e+10 -5.973472e+10 4.297104e+08
-9.931670e+09 -6.535527e+10 4.502007e+06
9.597080e+09 -6.716528e+10 -6.463224e+08
4.761943e+10 -4.558329e+10 -1.885159e+08
-5.289032e+10 -4.036448e+10 1.339738e+09
-6.575954e+10 -1.163042e+10 -5.126412e+08
4.798592e+10 -4.327653e+10 1.771695e+09
-6.526806e+10 -1.411869e+10 -8.192123e+08
-5.367629e+10 -4.394901e+10 9.940301e+08
5.006272e+10 -4.538276e+10 1.429013e+09
1.234822e+10 -6.802561e+10 3.911699e+08
-1.067122e+10 -6.556986e+10 -9.604955e+07
-7.055310e+10 7.756899e+09 -5.301660e+08
-4.301388e+10 -5.336820e+10 -4.819463e+08
4.298006e+10 -5.336023e+10 4.802356e+08
-5.697163e+09 -6.830387e+10 -4.985807e+08
5.705110e+09 -6.824192e+10 4.924506e+08
4.981502e+10 -4.089381e+10 1.165881e+09
5.807407e+10 -3.811562e+10 5.487073e+08
-6.266719e+10 2.343289e+10 4.155173e+08
1.049495e+09 -6.931406e+10 5.843941e+08
-8.099522e+08 -6.949985e+10 -4.345236e+08
-6.968252e+10 3.296205e+09 1.966248e+08
-6.746933e+10 2.346617e+09 1.655796e+09
1.214525e+10 -6.843397e+10 -5.362852e+08
-6.623217e+10 3.900710e+09 -4.958705e+07
-5.001311e+10 -5.016547e+10 3.667716e+08
-6.982469e+10 4.289897e+09 -5.692989e+08
4.862928e+10 -4.193241e+10 4.402109e+08
-9.074640e+09 -6.986717e+10 -4.161451e+08
9.037197e+09 -6.961379e+10 4.156762e+08
-6.882581e+10 -8.973880e+09 4.800457e+08
-6.928693e+10 2.085632e+10 -9.649929e+08
-6.597069e+10 1.862385e+10 -1.144570e+09
3.222134e+10 -5.974228e+10 -1.622271e+09
-3.222012e+10 -5.974315e+10 1.623017e+09
-6.813949e+10 6.424766e+09 2.026678e+09
4.275057e+10 -5.369233e+10 7.703414e+08
4.152940e+10 -5.331476e+10 -2.460599e+08
4.873466e+10 -4.181989e+10 -5.239211e+08
-4.277543e+10 -5.367713e+10 -7.639424e+08
-4.152927e+10 -5.330961e+10 2.463976e+08
-3.581599e+10 -5.515291e+10 -8.762089e+08
3.581454e+10 -5.515161e+10 8.761150e+08
-6.937363e+10 1.487116e+10 1.304994e+09
-6.626388e+10 1.386988e+10 -4.847356e+08
-3.628110e+10 -5.675557e+10 1.122730e+09
3.628088e+10 -5.675229e+10 -1.122221e+09
3.087421e+10 -6.446880e+10 5.660711e+08
-3.087495e+10 -6.447225e+10 -5.673654e+08
4.999485e+10 -4.099930e+10 7.758045e+08
2.186089e+10 -6.305299e+10 -1.688493e+09
2.221238e+10 -6.601701e+10 -1.273214e+09
-2.254079e+10 -6.439936e+10 1.500377e+08
5.551735e+10 -4.046943e+10 -8.794332e+08
-6.719853e+10 2.529047e+08 6.867745e+08
-6.916209e+10 3.106395e+07 -7.126366e+08
-6.791123e+10 -2.979592e+09 -6.921234e+08
-6.705365e+10 -6.431865e+09 -3.321631e+08
-5.806961e+10 -3.350321e+10 1.719955e+08
5.819530e+10 -3.447191e+10 -1.168585e+09
5.114576e+10 -3.947895e+10 -3.965272e+08
-6.780665e+10 -9.010644e+09 -1.293565e+08
-4.559685e+10 -5.155858e+10 1.802973e+08
-4.596496e+10 -4.978106e+10 3.431005e+08
4.326917e+10 -5.055038e+10 6.538113e+07
-1.485141e+09 -6.856312e+10 3.757999e+08
1.886254e+09 -6.938889e+10 -5.491000e+08
-2.451036e+10 -6.362885e+10 -1.083537e+09
-2.760874e+10 -6.193073e+10 1.515549e+09
-2.334243e+10 -6.303456e+10 3.047567e+08
2.477667e+10 -6.345963e+10 1.161265e+09
5.026665e+10 -3.976692e+10 -7.646107e+08
2.762012e+10 -6.191255e+10 -1.509845e+09
2.388840e+10 -6.372720e+10 -1.213905e+09
-6.414399e+10 -2.308501e+10 1.917247e+08
-2.141387e+10 -6.375344e+10 6.629857e+08
-6.608932e+10 5.111144e+09 -1.579268e+08
-6.827225e+10 -8.602251e+09 -5.432225e+08
-6.739836e+10 -1.331776e+09 7.530783e+08
-5.976698e+10 -3.790681e+10 -3.350463e+08
5.881224e+10 -3.581556e+10 8.548585e+07
-6.678185e+10 1.776576e+10 -3.701420e+08
5.058034e+10 -3.967806e+10 -6.002665e+08
-6.703429e+10 1.634390e+10 -6.848503e+08
-6.572418e+10 1.873590e+10 8.803593e+08
-4.913335e+09 -6.964388e+10 -2.140390e+08
4.897675e+09 -6.965524e+10 2.108180e+08
5.553510e+10 -4.010173e+10 8.386458e+08
5.489690e+10 -3.722056e+10 -1.251392e+09
4.487980e+10 -4.973007e+10 -1.304064e+09
5.489143e+10 -4.154785e+10 -8.361673e+08
5.500251e+10 -4.182069e+10 9.026560e+07
-6.454409e+10 1.285960e+10 -9.929719e+08
5.140359e+10 -4.005134e+10 6.233413e+07
-6.839853e+10 1.453358e+10 2.339391e+09
-1.556424e+10 -6.601736e+10 -8.278443e+07
-1.528739e+10 -6.658715e+10 -4.113682e+08
5.812121e+10 -3.623145e+10 -2.844493e+08
6.216772e+10 -2.601078e+10 -3.861183e+07
5.384045e+10 -4.216584e+10 4.161819e+08
-6.248677e+10 -2.637674e+10 -6.915088e+08
6.114884e+10 -2.805758e+10 1.617235e+08
-6.087222e+10 -2.688495e+10 -2.063385e+08
-6.591726e+10 2.364759e+10 9.672515e+08
5.189821e+10 -3.790226e+10 -3.531287e+08
-6.032650e+10 -3.162865e+10 -9.544565e+08
6.027535e+10 -3.156380e+10 9.604783e+08
-1.262443e+10 -6.562802e+10 -1.809565e+09
-1.062848e+10 -6.528360e+10 4.512278e+08
-5.641096e+10 -3.744283e+10 -8.389554e+08
-3.714103e+10 -5.651289e+10 -3.472274e+08
-3.900896e+10 -5.765535e+10 -5.113894e+08
-4.013477e+10 -5.645652e+10 -2.413158e+08
3.392881e+10 -5.800818e+10 -8.526041e+08
3.714524e+10 -5.650812e+10 3.482255e+08
5.359890e+10 -3.773961e+10 -2.766281e+08
3.900833e+10 -5.765878e+10 5.121741e+08
4.013942e+10 -5.645987e+10 2.414428e+08
-3.392926e+10 -5.800499e+10 8.525464e+08
-1.831203e+10 -6.539604e+10 -1.115289e+09
-6.349774e+10 -2.690718e+10 1.105899e+09
5.958559e+09 -6.606897e+10 -2.331726e+08
-5.948303e+09 -6.603908e+10 2.266020e+08
-6.542472e+10 -3.425126e+10 1.501345e+09
6.543446e+10 -3.426703e+10 -1.480967e+09
-6.625082e+10 8.524685e+09 7.206730e+08
5.196053e+10 -3.935129e+10 -5.925498e+08
-6.672679e+10 9.450640e+09 4.135402e+08
-6.750533e+10 7.207025e+09 1.954698e+08
-4.425184e+10 -5.303396e+10 -1.715156e+08
4.524844e+10 -5.258897e+10 6.832713e+08
-4.443116e+10 -5.539886e+10 2.760621e+08
4.440389e+10 -5.537436e+10 -2.437700e+08
-1.929104e+10 -6.765132e+10 -8.798914e+08
6.448969e+10 -2.549688e+10 2.459998e+07
5.728103e+10 -3.348250e+10 -6.580109e+08
5.744879e+10 -3.587488e+10 2.540432e+08
5.402263e+10 -3.720708e+10 -1.153056e+09
-5.791299e+10 -3.268547e+10 8.452118e+08
-6.851481e+10 -1.937054e+10 2.808500e+08
1.822160e+10 -6.536234e+10 8.891308e+08
-6.527388e+10 2.221760e+10 -1.685893e+09
-6.351117e+10 -2.222162e+10 -7.077149e+08
-6.371290e+10 -1.837876e+10 1.611692e+09
-6.641568e+10 -1.710900e+10 2.482744e+08
-6.722822e+10 -1.618637e+10 -1.781425e+09
-6.651018e+10 -1.229680e+10 -2.527049e+09
-6.709526e+10 -1.279186e+10 1.142371e+08
5.253826e+10 -3.691532e+10 -1.571312e+08
1.785302e+10 -6.790887e+10 5.780338e+08
5.070651e+10 -4.635340e+10 -1.268658e+09
-2.521275e+10 -6.472592e+10 -2.051847e+08
2.523519e+10 -6.421618e+10 3.603621e+05
-2.167491e+10 -6.389616e+10 9.153131e+07
-5.420352e+10 -4.315495e+10 -1.396203e+08
-4.853753e+10 -4.600387e+10 -1.271830e+08
-5.052425e+10 -4.650637e+10 5.230809e+08
-5.151537e+10 -4.459071e+10 -1.336059e+09
-5.104502e+10 -4.143476e+10 1.390258e+09
5.385879e+10 -3.522486e+10 6.285093e+08
-6.556190e+10 -1.155151e+10 -4.628720e+08
3.281290e+09 -7.088723e+10 1.146365e+09
-3.469251e+09 -7.065055e+10 -1.034898e+09
-4.621271e+09 -7.058505e+10 2.036234e+08
4.617506e+09 -7.062134e+10 -1.867334e+08
-2.337142e+10 -6.683162e+10 -2.833007e+08
2.291395e+10 -6.563951e+10 -1.350829e+09
-6.198832e+10 2.368048e+10 -2.492390e+08
-4.533699e+10 -5.295583e+10 1.238323e+09
4.573742e+10 -5.305579e+10 -1.143230e+09
5.300799e+10 -3.655983e+10 -5.226032e+06
-6.578991e+10 -8.500671e+09 -3.835061e+08
-6.609252e+10 2.622507e+09 -1.111071e+09
-5.402310e+10 -3.992970e+10 -2.180021e+08
-6.771004e+10 -4.266966e+09 2.573408e+08
-6.561117e+10 -6.102666e+09 1.816995e+09
-6.988415e+10 -4.198792e+09 8.628533e+08
4.711160e+10 -4.876266e+10 -7.270427e+08
4.593337e+10 -5.034725e+10 -1.857795e+08
5.279610e+10 -4.432585e+10 -2.423297e+09
5.324563e+10 -4.232729e+10 5.121497e+08
5.468777e+10 -3.578118e+10 -9.557394e+08
-5.452810e+10 -3.804919e+10 -3.054032e+08
-6.532783e+10 1.465911e+10 3.099329e+09
-6.539228e+10 -4.773023e+09 -2.135005e+08
-5.002865e+10 -4.642956e+10 1.106571e+09
-6.468009e+10 -1.942421e+10 -7.496002e+08
4.929529e+10 -4.779477e+10 -7.896146e+08
-5.399498e+10 -4.079598e+10 -8.303086e+08
5.228949e+10 -4.203185e+10 3.194199e+08
-6.638451e+10 -1.310906e+10 1.726148e+09
4.576668e+10 -4.961617e+10 -1.804134e+09
5.472111e+10 -3.477470e+10 -1.618427e+07
4.798773e+10 -4.451764e+10 5.698892e+08
1.169798e+10 -6.584972e+10 8.294722e+08
-9.564795e+09 -6.610137e+10 -2.704967e+08
-7.764558e+09 -6.530454e+10 1.262744e+09
1.020481e+10 -6.602949e+10 5.188531e+08
8.620438e+09 -6.589729e+10 -1.392718e+09
1.980700e+10 -6.253146e+10 1.127929e+09
-6.702840e+10 2.362287e+10 -5.839404e+08
5.479075e+10 -3.888733e+10 5.279358e+08
-6.560968e+10 -2.278431e+10 -2.353994e+09
5.592327e+10 -3.566341e+10 -1.909992e+09
-6.856208e+10 8.273364e+09 -4.830379e+08
-6.620521e+10 3.858350e+09 1.250443e+09
-6.490116e+10 -1.843930e+09 6.281766e+08
-3.306513e+10 -5.968951e+10 -3.611527e+08
3.306076e+10 -5.968293e+10 3.586759e+08
-1.895072e+10 -6.277124e+10 7.782763e+08
5.653684e+10 -4.104992e+10 -3.014378e+08
-5.768036e+10 -3.364588e+10 1.004944e+09
-6.288650e+10 -2.157265e+10 4.826158e+08
-6.490556e+10 1.703214e+10 -1.429021e+09
5.604679e+10 -3.345604e+10 -1.008035e+09
-5.536951e+10 -3.539637e+10 -2.816373e+08
-6.174212e+10 2.385025e+10 -1.065478e+06
-4.075687e+10 -5.296309e+10 -9.066624e+08
4.075365e+10 -5.296206e+10 9.071994e+08
-2.534931e+10 -6.106621e+10 -9.498568e+08
2.544488e+10 -6.109731e+10 9.726165e+08
6.160463e+10 -2.349056e+10 -3.950827e+07
6.391821e+10 -3.114882e+10 3.678005e+08
-6.381407e+10 -3.139356e+10 -2.892997e+08
-6.794638e+10 -7.223587e+09 4.147851e+08
5.588447e+10 -3.404354e+10 -1.023612e+09
-2.850653e+10 -6.373600e+10 6.960364e+08
2.850266e+10 -6.371928e+10 -6.970878e+08
-1.478919e+10 -6.540371e+10 -2.752149e+08
-1.588557e+10 -6.672750e+10 -9.927304e+08
-1.635945e+10 -6.438888e+10 -8.224988e+07
-4.903991e+10 -5.191977e+10 -1.073713e+08
-6.717732e+10 -8.674214e+09 -6.896620e+07
1.814361e+10 -6.555067e+10 -3.397072e+07
-5.017258e+09 -6.787393e+10 -5.563525e+06
5.016855e+09 -6.786877e+10 5.163065e+06
5.574685e+10 -3.164851e+10 -4.109110e+08
4.461668e+10 -4.848979e+10 1.765526e+08
6.380680e+10 -2.492520e+10 4.811719e+08
6.750606e+10 -1.848843e+10 -5.470348e+07
6.642733e+10 -2.211955e+10 -3.740454e+06
-5.350808e+10 4.519837e+10 -4.213840e+08
-6.596854e+10 2.983957e+10 5.785108e+08
-5.583258e+10 4.213034e+10 -3.016855e+07
-6.194527e+10 3.256539e+10 -4.267987e+07
-2.255534e+10 6.634278e+10 -4.234489e+08
-1.277344e+10 6.903409e+10 1.582003e+09
5.410242e+10 -3.187077e+10 -1.034437e+09
-8.218395e+09 7.209483e+10 3.898218e+08
-1.896849e+10 6.741109e+10 -4.041613e+07
-3.947807e+10 5.788031e+10 -4.302192e+08
-4.651692e+10 5.261856e+10 1.357855e+09
1.115122e+10 6.924445e+10 -4.042172e+08
-3.990165e+09 6.993849e+10 -4.052489e+08
-5.196022e+10 4.723242e+10 1.604956e+09
5.619659e+10 3.941968e+10 6.879449e+07
6.187548e+10 2.984009e+10 1.095072e+08
3.589118e+10 6.012190e+10 -5.954562e+07
5.605008e+10 -3.141846e+10 1.155311e+09
-3.042834e+10 6.473191e+10 -2.619964e+08
2.219681e+10 6.649086e+10 -3.993170e+08
2.778162e+10 6.278661e+10 2.946097e+08
-3.611344e+10 5.790568e+10 4.492166e+08
5.795611e+10 3.709304e+10 1.409461e+08
6.811128e+10 1.643196e+10 1.460035e+09
5.123420e+10 4.602895e+10 1.755337e+08
4.415801e+10 5.395224e+10 6.802208e+08
1.815611e+09 6.878868e+10 1.782942e+08
-5.019031e+10 5.243083e+10 4.331859e+08
5.784734e+10 -3.257076e+10 -8.693290e+08
6.384075e+10 3.426409e+10 3.880923e+08
6.848164e+10 -1.488080e+10 -4.233852e+08
1.906143e+10 7.003404e+10 3.345467e+08
4.882488e+10 4.774367e+10 4.229784e+08
6.972688e+10 -7.383955e+09 -4.039098e+08
5.567889e+10 4.276040e+10 3.868190e+08
6.927987e+10 1.276489e+10 1.349604e+09
6.922486e+10 -1.110197e+10 -3.972303e+07
-5.807689e+10 3.914522e+10 -4.047680e+08
3.913210e+10 5.804771e+10 -4.867739e+08
5.884419e+10 -3.284111e+10 1.922858e+09
6.506315e+10 2.627648e+10 3.247712e+08
3.365988e+10 6.427478e+10 3.448165e+08
-3.385650e+10 5.986770e+10 5.630045e+07
1.364184e+10 6.726239e+10 2.493539e+08
6.852297e+10 4.822068e+09 1.187477e+08
-1.386274e+09 7.021267e+10 1.340725e+09
-1.520769e+10 6.822843e+10 -4.080824e+08
6.983680e+10 1.978754e+10 4.215954e+08
7.159447e+10 -3.432749e+09 9.336528e+08
7.207255e+10 8.217929e+09 3.988178e+08
5.805492e+10 -2.966757e+10 9.553062e+08
3.973501e+10 5.553610e+10 -8.622449e+07
6.437526e+10 2.288521e+10 6.420201e+08
2.575245e+10 6.516170e+10 -4.015811e+08
7.475744e+09 7.219327e+10 3.728134e+08
7.163007e+10 5.101345e+08 1.567084e+08
-4.270008e+10 5.556652e+10 3.323757e+08
4.803430e+10 5.118858e+10 3.441132e+08
-6.011475e+10 3.588700e+10 -5.955639e+07
-2.684509e+10 6.628248e+10 5.244569e+08
4.950414e+10 -4.873300e+10 4.312852e+08
5.796768e+10 -2.893356e+10 1.529211e+09
-6.477677e+10 -1.801608e+10 -6.836537e+07
5.160615e+10 -4.158657e+10 -5.380123e+08
-4.823214e+10 -4.395302e+10 1.351998e+08
-3.104905e+10 -6.296449e+10 -5.421155e+08
3.104923e+10 -6.296556e+10 5.421070e+08
5.231806e+10 -4.510746e+10 3.159909e+08
-6.699390e+10 -1.590501e+10 3.282801e+08
-5.302907e+10 -4.394069e+10 -1.200921e+08
-6.333312e+10 1.901598e+10 9.283712e+07
-6.832012e+10 7.091740e+08 3.140962e+08
5.689548e+10 -2.882404e+10 -1.300599e+08
5.529037e+10 -4.152366e+10 -8.817312e+08
-5.452866e+10 -4.078845e+10 -9.570243e+08
1.621041e+10 -6.482606e+10 1.536570e+09
1.577482e+10 -6.454105e+10 -1.660819e+09
5.951021e+10 -3.873341e+10 -8.562404e+08