# vtk DataFile Version 2.0
Electric current density generated by TTH
ASCII
DATASET UNSTRUCTURED_GRID
POINTS 2059 double
-1.963627e-05 -9.141321e-06 -4.311495e-22
-1.525509e-05 1.379931e-05 -1.627464e-06
2.108022e-05 -3.687552e-06 9.198793e-07
2.108022e-05 3.687552e-06 -9.198793e-07
-2.603685e-06 2.041818e-05 1.621968e-06
1.306185e-05 -1.321758e-05 1.168200e-06
-1.037700e-05 -1.598815e-05 1.547502e-06
-1.204815e-05 -1.665050e-05 -1.634780e-06
1.332945e-05 1.497630e-05 1.753939e-06
1.047903e-05 -1.674489e-05 1.754238e-06
-7.026697e-06 -1.802372e-05 1.670687e-06
-1.919653e-05 -1.003196e-05 -4.311495e-22
2.153748e-06 -1.918953e-05 -1.658664e-06
-1.695619e-05 7.855936e-06 -1.276743e-06
-9.802546e-06 -1.545758e-05 -7.431050e-07
-1.878911e-05 -1.031693e-05 -8.603089e-07
-1.099227e-05 1.511169e-05 -1.275858e-06
1.487974e-05 -1.211992e-05 -1.611478e-06
1.484764e-05 1.218182e-05 1.617700e-06
1.239397e-05 1.620222e-05 1.687921e-06
-1.728804e-05 -1.097500e-05 1.662711e-06
-2.629869e-06 1.921691e-05 -1.686765e-06
-1.871641e-05 -1.090151e-05 -4.311495e-22
1.717893e-05 -1.275058e-05 9.305129e-07
1.553889e-05 -1.477262e-05 -8.511810e-07
1.553889e-05 1.477262e-05 8.511810e-07
-1.864104e-05 -1.242953e-06 -1.271777e-06
-1.871173e-05 1.045618e-05 -8.607023e-07
-1.125590e-06 2.140616e-05 -8.594363e-07
-1.388046e-05 1.633454e-05 -8.597010e-07
6.643113e-06 1.896133e-05 -1.749814e-06
-9.065727e-06 -1.840363e-05 1.649044e-06
-1.918518e-05 -7.462453e-06 -1.621164e-06
-1.819693e-05 -1.174813e-05 -4.311495e-22
-7.635971e-06 -1.757326e-05 -1.597700e-06
5.291285e-06 -1.944410e-05 -1.742213e-06
-2.122272e-05 -3.025561e-06 -8.566284e-07
-1.742651e-05 8.129924e-06 1.627865e-06
1.331571e-05 -1.678954e-05 -8.715820e-07
-1.135246e-05 1.552173e-05 1.628118e-06
2.131255e-05 -2.367476e-06 -8.451586e-07
2.131255e-05 2.367476e-06 8.451586e-07
-1.918371e-05 -1.341203e-06 1.628236e-06
-3.589512e-07 1.998605e-05 1.758011e-06
-1.763919e-05 -1.257005e-05 -4.311495e-22
9.387448e-06 1.926760e-05 8.646766e-07
1.532841e-05 -1.110860e-05 1.469546e-06
2.105479e-05 -3.835917e-06 -9.181783e-07
2.105479e-05 3.835917e-06 9.181783e-07
7.689286e-06 -1.998416e-05 8.998479e-07
1.316573e-05 1.387540e-05 1.582011e-06
1.620803e-05 1.260777e-05 -1.641867e-06
4.550132e-06 1.797015e-05 -1.114890e-06
6.983528e-06 1.758483e-05 -1.463138e-06
-1.549240e-05 -1.328439e-05 -1.685235e-06
-1.704434e-05 -1.336552e-05 -4.311495e-22
-1.664342e-05 -1.352745e-05 8.380590e-07
-1.363004e-05 -1.569130e-05 -1.521661e-06
8.932957e-06 1.726286e-05 -1.698507e-06
5.461522e-06 -1.811180e-05 1.460827e-06
1.351682e-05 1.345663e-05 -1.554290e-06
1.189079e-05 -1.786710e-05 -8.104042e-07
1.523609e-05 1.314084e-05 1.746419e-06
1.522831e-05 -1.315084e-05 -1.746337e-06
-1.711778e-05 -7.785498e-06 1.378761e-06
1.328556e-05 -1.511896e-05 -1.745561e-06
-1.641366e-05 -1.413290e-05 -4.311495e-22
4.657203e-06 2.096415e-05 -7.847076e-07
4.135482e-06 2.015902e-05 1.623937e-06
-5.133552e-06 -2.082685e-05 -8.330503e-07
1.708474e-05 -1.102823e-05 1.705591e-06
1.851834e-05 -5.664852e-06 -1.677324e-06
1.851834e-05 5.664852e-06 1.677324e-06
1.708469e-05 1.102733e-05 -1.705727e-06
6.540945e-06 -2.044961e-05 -7.946607e-07
1.224192e-06 1.814694e-05 4.124016e-07
-2.005410e-05 -3.661221e-06 1.691862e-06
-1.574845e-05 -1.487054e-05 -4.311495e-22
-1.073377e-06 1.998694e-05 1.756459e-06
-2.035081e-05 1.316815e-06 -1.689600e-06
-1.946182e-05 6.077734e-06 -1.690942e-06
-1.382810e-05 1.495420e-05 1.696885e-06
-6.160365e-06 -2.057604e-05 7.781889e-07
-1.002231e-05 1.769780e-05 1.704655e-06
-9.726117e-06 1.792112e-05 -1.690497e-06
-5.231097e-06 1.971087e-05 -1.689649e-06
-2.023165e-05 7.033617e-06 8.879733e-07
-1.840689e-05 1.095337e-05 8.880424e-07
-1.505013e-05 -1.557692e-05 -4.311495e-22
1.300323e-05 -1.699912e-05 9.168108e-07
1.971175e-05 4.117165e-06 1.744187e-06
1.971175e-05 -4.117165e-06 -1.744187e-06
-2.030818e-05 9.461203e-07 1.706795e-06
8.374487e-06 -1.680425e-05 -1.354627e-06
-2.293094e-06 1.884149e-05 1.501378e-06
-1.431080e-05 -1.150684e-05 8.592964e-07
7.754550e-06 1.996909e-05 8.837260e-07
-1.557663e-05 -1.261055e-05 1.754573e-06
-1.600723e-05 -1.205915e-05 1.754579e-06
-1.432016e-05 -1.625054e-05 -4.311495e-22
1.624536e-05 -1.243719e-05 1.668813e-06
3.788418e-06 -1.884835e-05 1.626079e-06
6.809944e-06 2.031445e-05 -8.774849e-07
1.100357e-05 1.605123e-05 -1.704745e-06
-1.967055e-05 -8.614154e-06 -7.870741e-07
1.699652e-05 6.337558e-06 -3.909940e-08
1.699652e-05 -6.337558e-06 3.909940e-08
6.771853e-06 -1.721104e-05 1.061617e-06
1.748810e-05 1.246238e-05 -7.866032e-07
-1.777004e-05 1.205865e-05 -7.846879e-07
-1.356007e-05 -1.688998e-05 -4.311495e-22
7.385387e-07 2.146255e-05 -7.846342e-07
-1.527211e-05 1.509800e-05 -7.846154e-07
3.455040e-06 -2.116873e-05 8.355959e-07
1.250921e-05 1.521495e-05 -1.748625e-06
-2.088766e-05 -4.954291e-06 -8.006624e-07
-2.505171e-06 -1.943629e-05 1.734129e-06
-2.360274e-06 1.804940e-05 4.698853e-07
-1.305729e-05 -1.705030e-05 7.837507e-07
-1.160703e-05 -1.404552e-05 -5.299576e-07
-1.993129e-05 7.900647e-06 8.516413e-07
-1.277146e-05 -1.749390e-05 -4.311495e-22
6.077506e-06 -1.914705e-05 -1.750132e-06
1.851123e-05 4.443311e-06 1.534541e-06
1.851123e-05 -4.443311e-06 -1.534541e-06
8.011434e-07 1.993421e-05 -1.759568e-06
1.355771e-05 -1.267907e-05 -1.145153e-06
3.597607e-06 1.860760e-05 1.483670e-06
-1.658568e-05 1.247273e-05 -1.539991e-06
-8.482783e-06 1.894450e-05 -1.537335e-06
2.945996e-06 2.026728e-05 1.661736e-06
1.459367e-05 -1.384996e-05 -1.746491e-06
-1.195599e-05 -1.806104e-05 -4.311495e-22
1.468666e-05 1.379637e-05 1.742332e-06
-2.025103e-05 -4.684058e-07 1.723731e-06
-6.331559e-06 -1.713747e-05 -6.651246e-07
2.113171e-05 7.272490e-07 -1.244721e-06
2.113593e-05 -8.483376e-07 1.235925e-06
-1.767773e-05 -4.967670e-06 8.579976e-07
-1.936263e-05 -6.527695e-06 1.677394e-06
-1.119087e-05 1.689036e-05 1.722721e-06
-1.877108e-05 7.626560e-06 1.722731e-06
-2.006307e-05 3.789261e-06 1.682278e-06
-1.111539e-05 -1.859019e-05 -4.311495e-22
-1.584052e-05 1.289306e-05 1.680242e-06
-7.526228e-06 1.897293e-05 1.684293e-06
-3.613347e-06 -1.833333e-05 1.275193e-06
-2.023222e-05 4.656772e-06 -1.534956e-06
9.105358e-06 -1.569283e-05 -1.173010e-07
6.446841e-06 -1.793694e-05 1.547396e-06
1.877282e-06 2.064424e-05 -1.552383e-06
3.239118e-06 -2.009120e-05 -1.701510e-06
-1.761538e-05 -5.167903e-06 -8.496028e-07
-1.360975e-05 1.231780e-05 8.468669e-07
-1.025140e-05 -1.908024e-05 -4.311495e-22
-3.220694e-06 -2.123908e-05 -7.711814e-07
-1.674296e-05 -7.023487e-06 -2.457266e-07
-1.300056e-05 -1.436268e-05 1.679623e-06
1.539245e-05 9.694324e-06 -4.233349e-07
1.539251e-05 -9.694133e-06 4.231261e-07
-4.506630e-06 -1.758595e-05 2.294302e-07
1.130923e-05 -1.546964e-05 1.598679e-06
-1.756842e-05 4.606998e-06 -2.850243e-07
-9.645984e-06 -1.917980e-05 7.974440e-07
1.902494e-05 -7.080481e-06 1.714184e-06
-9.365858e-06 -1.953017e-05 -4.311495e-22
1.902494e-05 7.080481e-06 -1.714184e-06
1.769278e-05 7.612466e-06 -1.640400e-06
1.769278e-05 -7.612466e-06 1.640400e-06
-1.122586e-05 1.594492e-05 -1.714432e-06
-1.473198e-05 1.101322e-05 9.114603e-07
-2.009014e-05 -7.554929e-06 8.074137e-07
1.658765e-05 -1.181042e-05 -1.698288e-06
1.658879e-05 1.180990e-05 1.698118e-06
-7.886753e-06 1.656274e-05 8.252412e-07
-1.779645e-05 7.941732e-06 -1.711546e-06
-8.460618e-06 -1.993903e-05 -4.311495e-22
-4.591694e-06 -1.983907e-05 1.698044e-06
1.491848e-05 1.381325e-05 -1.706488e-06
-1.877035e-05 -2.769501e-06 -1.497099e-06
-1.820015e-05 2.220831e-06 8.071270e-07
7.274539e-06 -1.775530e-05 -1.609990e-06
1.229250e-05 -1.336216e-05 -2.451300e-07
-2.877244e-06 -1.791861e-05 -1.772144e-07
-2.146081e-05 -1.258556e-07 8.122799e-07
1.093074e-05 -1.542826e-05 -1.454505e-06
1.410415e-05 1.616487e-05 -8.278724e-07
-7.537585e-06 -2.030595e-05 -4.311495e-22
1.176667e-05 -1.792557e-05 8.472335e-07
-1.153960e-05 1.809605e-05 8.101791e-07
1.628706e-05 1.402389e-05 -7.484889e-07
1.246481e-05 -1.599861e-05 -1.718420e-06
-1.647108e-05 9.430992e-06 -1.501058e-06
-1.244272e-05 1.433285e-05 -1.501250e-06
1.189397e-06 2.051820e-05 1.634644e-06
2.056362e-05 2.172025e-06 1.578791e-06
2.056362e-05 -2.172025e-06 -1.578791e-06
-7.155911e-06 2.023828e-05 8.026802e-07
-6.598700e-06 -2.063017e-05 -4.311495e-22
1.965425e-05 2.877124e-06 -1.759938e-06
1.965425e-05 -2.877124e-06 1.759938e-06
-1.840509e-05 3.625197e-06 1.340628e-06
-1.946844e-05 -1.018751e-06 -1.713215e-06
-4.159587e-06 -2.107243e-05 7.769712e-07
9.678668e-06 1.652924e-05 1.594850e-06
-6.690029e-06 1.754051e-05 1.352660e-06
1.453332e-05 -1.576922e-05 8.427634e-07
-1.437462e-05 1.204989e-05 1.339265e-06
-1.231743e-06 -2.146222e-05 -7.382048e-07
-5.645939e-06 -2.091101e-05 -4.311495e-22
-1.687539e-05 -1.322205e-05 -8.548156e-07
-1.741065e-05 1.038475e-05 1.720332e-06
-1.913013e-05 6.670826e-06 1.723022e-06
1.540204e-05 1.296546e-05 -1.744785e-06
-3.252088e-06 1.803171e-05 -7.824021e-07
2.213514e-06 1.817583e-05 7.566664e-07
7.414299e-06 -1.661507e-05 -4.369591e-07
1.815736e-05 -2.460076e-06 7.836541e-07
1.815736e-05 2.460076e-06 -7.836541e-07
2.143935e-05 -8.589799e-07 -8.211340e-07
-4.681303e-06 -2.114787e-05 -4.311495e-22
2.143935e-05 8.589799e-07 8.211340e-07
-2.013705e-05 7.346990e-06 -8.599301e-07
-4.508465e-06 2.095612e-05 -8.596627e-07
-1.110939e-05 1.833216e-05 -8.596201e-07
1.802212e-05 -2.155905e-06 -2.001355e-07
1.802212e-05 2.155905e-06 2.001355e-07
2.049162e-05 -2.143752e-06 1.613418e-06
2.048373e-05 2.118537e-06 -1.617937e-06
-8.925955e-06 -1.663445e-05 1.433571e-06
1.408673e-05 1.146885e-05 -3.008192e-07
-3.706823e-06 -2.134025e-05 -4.311495e-22
-2.143322e-05 3.673385e-07 -8.583117e-07
6.525275e-06 1.925963e-05 1.705578e-06
5.781875e-06 1.894312e-05 -1.757809e-06
1.027955e-05 1.528147e-05 9.494232e-07
-1.267341e-05 1.599254e-05 1.686067e-06
-1.811251e-05 9.376411e-06 1.688951e-06
-2.053432e-05 -2.240407e-06 1.589368e-06
1.772521e-05 -1.206883e-05 8.447269e-07
-6.761121e-07 -2.035879e-05 -1.696252e-06
-1.011517e-05 -1.771437e-05 1.687971e-06
-2.724548e-06 -2.148776e-05 -4.311495e-22
[...]
POINT_DATA 2059
VECTORS 10.000GHz_fone_imag double
-1.052863e+10 2.148824e+10 -5.081108e+08
2.520068e+10 2.881462e+10 -3.072858e+08
-3.273662e+09 -2.398730e+10 -5.483783e+08
4.724133e+09 -3.176024e+10 -3.678745e+08
2.484875e+10 2.120515e+09 1.462580e+09
-3.268216e+10 -3.571394e+10 2.288842e+09
-2.466158e+10 1.580135e+10 -4.591730e+08
-2.321493e+10 1.764751e+10 -3.515942e+09
1.978032e+10 -1.551679e+10 -3.111723e+09
-3.335652e+10 -2.149324e+10 1.055596e+09
-3.932348e+10 1.722975e+10 5.184163e+08
-1.406564e+10 2.807883e+10 -1.042345e+09
-4.469464e+10 -3.431168e+09 1.284664e+09
2.090439e+10 4.750188e+10 -6.580152e+07
-4.696059e+10 2.734608e+10 -1.492060e+09
-1.257493e+10 2.290442e+10 -1.478383e+08
2.965787e+10 2.124125e+10 5.103805e+08
-2.391264e+10 -3.419459e+10 -1.647786e+09
2.937051e+10 -4.115354e+10 -1.347637e+09
1.923042e+10 -1.496164e+10 1.711947e+08
-1.238605e+10 2.070512e+10 -5.224101e+08
3.343304e+10 4.639363e+09 1.009241e+09
-1.498754e+10 2.548780e+10 -5.095947e+08
-1.695578e+10 -2.504530e+10 1.688121e+09
-1.764212e+10 -2.042555e+10 1.676300e+09
2.030918e+10 -2.230936e+10 5.868114e+08
-1.092361e+09 4.361139e+10 2.410534e+09
1.370229e+10 2.295985e+10 -1.581111e+09
2.196618e+10 2.618253e+08 -1.283544e+09
1.771735e+10 1.438277e+10 5.402710e+06
3.471832e+10 -1.307073e+10 -4.290365e+08
-2.500173e+10 1.572687e+10 -1.154332e+09
-1.285463e+10 3.304647e+10 7.618470e+08
-1.584122e+10 2.614180e+10 6.542763e+08
-3.573163e+10 1.089767e+10 -7.696282e+08
-2.466889e+10 -1.052761e+10 7.264375e+08
-4.228135e+09 2.422381e+10 -1.066385e+09
1.798219e+10 3.438880e+10 -1.080713e+09
-2.267338e+10 -1.878367e+10 5.609268e+07
3.844695e+10 2.398833e+10 8.704119e+08
-3.894958e+09 -2.584515e+10 -1.391437e+09
4.538792e+09 -3.263289e+10 -9.589105e+08
-3.973944e+09 4.311479e+10 2.037291e+09
2.545651e+10 -1.957482e+09 2.221182e+09
-1.998220e+10 2.683176e+10 2.761624e+09
2.315227e+10 -1.147909e+10 -8.920647e+08
-3.171599e+10 -4.360360e+10 4.888252e+08
-4.872016e+09 -2.375465e+10 5.683087e+08
4.242732e+09 -2.309078e+10 4.025469e+08
-2.145801e+10 -7.515713e+09 3.485678e+08
2.571192e+10 -2.482832e+10 4.279054e+09
2.070082e+10 -2.092527e+10 2.742008e+09
3.177049e+10 -8.075606e+09 8.060728e+07
3.707504e+10 -1.923928e+10 5.164808e+09
-1.892478e+10 1.886782e+10 8.829770e+08
-1.431634e+10 1.832431e+10 8.829051e+08
-2.406797e+10 2.746635e+10 -1.373747e+09
-2.531658e+10 2.515313e+10 -1.584356e+09
2.615117e+10 -1.492188e+10 -2.190127e+09
-3.623978e+10 -1.054054e+10 -3.445393e+09
3.136526e+10 -2.878075e+10 -1.378716e+09
-2.676992e+10 -1.663616e+10 -7.779423e+08
1.976828e+10 -2.499331e+10 -1.181614e+09
-2.184181e+10 -2.784811e+10 5.701219e+08
-1.578908e+10 2.989774e+10 1.413304e+08
-2.478986e+10 -2.188353e+10 -2.673339e+09
-1.558104e+10 1.786740e+10 2.845765e+08
1.904980e+10 -5.363933e+09 1.610605e+09
3.748229e+10 -7.147845e+09 -1.469261e+09
-2.660635e+10 6.031389e+09 1.234602e+09
-1.897293e+10 -2.585147e+10 8.847771e+08
-1.031192e+10 -4.228732e+10 9.039495e+08
1.230552e+10 -4.339802e+10 2.438050e+08
1.993133e+10 -2.630767e+10 9.178635e+08
-3.300963e+10 -1.154702e+10 1.952944e+09
5.337438e+10 -3.741044e+09 3.294810e+09
-4.520324e+09 2.894448e+10 2.816177e+08
-2.220595e+10 2.288510e+10 -8.190606e+08
2.768935e+10 9.976852e+08 -1.911063e+09
1.906156e+09 2.779732e+10 7.319965e+08
9.557601e+09 3.051488e+10 3.404026e+08
2.509721e+10 2.393068e+10 8.008737e+07
-1.915681e+10 5.303453e+09 4.411636e+08
3.422145e+10 1.973593e+10 2.654655e+07
3.117535e+10 1.381715e+10 -1.932444e+09
2.771513e+10 5.440985e+09 -9.037606e+08
1.025084e+10 2.308379e+10 1.890401e+09
1.559058e+10 2.603760e+10 2.146103e+08
-1.933308e+10 1.656622e+10 -2.843643e+09
-1.695430e+10 -1.256217e+10 1.968588e+08
2.836875e+09 -2.707595e+10 1.203613e+08
-9.482269e+09 -3.733603e+10 1.476280e+09
1.022395e+09 3.100064e+10 -4.542736e+08
-4.456676e+10 -2.367355e+10 1.087475e+09
5.147064e+10 5.486097e+09 -1.338643e+09
-2.131551e+10 2.939847e+10 -1.604602e+08
2.620062e+10 -9.893396e+09 8.870895e+08
-2.216428e+10 3.052042e+10 -7.003336e+08
-2.336698e+10 2.908820e+10 -1.326626e+08
-1.473651e+10 1.337149e+10 1.232253e+09
-2.008270e+10 -2.731205e+10 -8.069800e+08
-3.789943e+10 -1.049339e+10 7.655033e+08
2.517386e+10 -7.270925e+09 5.508090e+08
2.994116e+10 -1.799190e+10 -6.907593e+08
-1.404475e+10 2.953589e+10 2.015741e+09
1.256872e+10 -4.215225e+10 -8.965797e+08
-1.860733e+10 -4.897172e+10 -2.014464e+09
-4.031642e+10 -1.757687e+10 -3.410518e+09
1.662231e+10 -2.189193e+10 9.939676e+08
1.327857e+10 2.271419e+10 1.310544e+09
-2.474232e+10 2.047763e+10 -6.862939e+07
2.099517e+10 -4.717316e+08 1.173744e+09
1.505756e+10 1.661831e+10 6.502132e+08
-2.499302e+10 -5.931398e+09 -7.942388e+08
3.156122e+10 -2.654605e+10 2.603326e+08
-7.110332e+09 3.264330e+10 -9.104917e+08
-4.233933e+10 8.434820e+09 -5.610129e+08
4.378957e+10 6.996193e+09 2.731397e+09
-2.462685e+10 1.988869e+10 5.036294e+08
-3.141106e+10 3.047086e+10 5.017667e+09
8.947240e+09 1.917422e+10 -1.394055e+09
-2.319572e+10 1.485835e+10 2.554474e+07
-3.409193e+10 -1.173773e+10 7.958628e+08
6.893372e+09 -2.958898e+10 -1.298951e+09
-1.090062e+10 -4.420600e+10 -1.485083e+09
3.280584e+10 -2.095402e+09 5.885602e+08
-2.771267e+10 -2.736533e+10 -1.206439e+09
3.310093e+10 -6.312519e+09 9.329302e+08
1.492217e+10 1.873839e+10 1.624209e+09
2.712606e+10 1.285266e+10 1.458603e+09
4.287216e+10 -2.709274e+09 -1.274506e+08
-2.449195e+10 -2.828948e+10 -5.680807e+07
-1.714482e+10 1.343267e+10 -3.407559e+09
3.183743e+10 -3.315795e+10 -2.182861e+08
-2.235642e+09 3.701415e+10 1.733959e+08
-4.219879e+10 1.615342e+10 3.963747e+08
1.178788e+09 -3.047865e+10 -5.408723e+08
4.305363e+08 -2.134002e+10 8.613590e+08
-1.668046e+10 4.772026e+10 2.532434e+09
-1.339815e+10 3.248110e+10 -2.566186e+09
3.114782e+10 2.079212e+10 1.702650e+07
1.221077e+10 2.994643e+10 -1.540928e+09
5.479364e+09 2.969933e+10 -2.106913e+09
-1.985682e+10 1.153164e+10 1.963039e+08
1.952392e+10 2.579427e+10 -5.568140e+08
2.853748e+10 1.141801e+10 -6.004250e+08
-3.213827e+10 5.924444e+09 -2.282419e+08
1.070041e+10 3.527661e+10 -1.633914e+09
-3.078320e+10 -1.709276e+10 -1.334428e+09
-3.464175e+10 -1.530217e+10 1.330087e+09
2.695305e+10 -1.796373e+09 -7.698318e+08
-4.016953e+10 -7.637886e+09 4.614591e+08
-1.241245e+10 4.918484e+10 2.975824e+09
3.141932e+10 3.634383e+10 1.633435e+09
-1.983647e+10 1.166387e+10 5.854490e+08
-2.333515e+10 7.821153e+09 -1.906574e+09
-2.570708e+10 5.379789e+10 -2.345900e+09
-2.278071e+10 2.154438e+10 1.435099e+09
2.327516e+10 -4.287152e+10 5.306857e+06
-2.542800e+10 -4.433240e+10 4.843774e+09
-3.729130e+10 6.673804e+09 1.307953e+09
-3.052690e+10 -2.091597e+10 -1.209889e+09
1.554188e+10 5.880172e+10 1.555329e+09
-2.170163e+10 1.269446e+10 -1.305796e+09
-1.013570e+10 -3.090241e+10 1.377523e+07
-2.834788e+10 1.305333e+10 -1.584344e+09
1.208227e+10 -3.350987e+10 2.422494e+08
2.086493e+10 -3.682220e+10 -1.817804e+09
-1.939437e+10 -4.121429e+10 -1.209178e+09
2.711769e+10 1.698052e+10 1.047277e+09
2.373388e+10 3.010397e+10 4.816767e+08
-8.027919e+09 2.087942e+10 2.267307e+08
-2.247757e+10 -3.353621e+10 5.287040e+08
1.576384e+10 -2.486027e+10 -1.713747e+08
3.724831e+10 2.127218e+10 4.183841e+09
1.721110e+10 3.171748e+10 1.407869e+09
-2.334751e+10 7.182760e+09 9.503203e+08
-3.350402e+10 1.045967e+10 -2.435346e+08
1.641047e+10 -1.622870e+10 2.396300e+09
-4.928467e+09 4.016035e+10 -1.657661e+09
5.365493e+09 3.447097e+10 -9.911713e+08
-3.487209e+10 -1.306066e+10 3.070659e+08
-2.809050e+10 -2.579868e+10 1.938042e+09
-3.956052e+10 7.315923e+09 -2.271436e+09
-1.610443e+09 2.385359e+10 -6.195566e+08
-3.377026e+10 -2.899118e+10 -2.710012e+09
1.639212e+10 -1.755260e+10 -5.420626e+08
-2.083398e+10 1.002589e+10 -1.570965e+08
-2.729321e+10 -1.711290e+10 9.790103e+07
1.951903e+10 1.321527e+10 6.989303e+08
1.452768e+10 -1.785756e+10 1.183843e+09
-2.867052e+10 -2.506708e+10 3.319531e+08
1.449806e+10 2.937663e+10 -9.498533e+08
2.627047e+10 1.919882e+10 1.541220e+09
2.328958e+10 -1.557017e+09 2.209555e+09
6.979616e+08 -3.186138e+10 -6.177057e+08
-1.904424e+09 -2.636777e+10 9.490970e+08
2.381680e+10 8.496801e+09 -1.050507e+09
-3.101647e+10 9.671378e+09 -1.026097e+09
3.134334e+09 -3.719802e+10 4.388331e+07
-7.072660e+09 -4.025097e+10 1.320195e+09
9.895201e+09 3.946225e+10 3.751461e+09
-5.200579e+09 4.381653e+10 4.771300e+07
-2.852827e+10 5.760459e+09 -8.938012e+07
3.979851e+10 -2.129648e+10 1.437166e+09
4.897477e+10 1.745673e+10 -4.843492e+08
-2.048342e+10 -1.637103e+10 -1.142779e+09
2.690235e+10 2.752781e+10 -3.805585e+09
-2.431864e+10 2.376526e+08 1.565568e+09
-2.876831e+10 6.696578e+09 4.020982e+08
-1.816505e+10 2.285331e+10 1.373882e+09
1.936735e+10 3.382397e+10 -8.310951e+08
1.566307e+10 4.003722e+10 6.895750e+08
1.954090e+10 -2.501509e+10 -2.841844e+09
5.723885e+10 9.968973e+09 2.226233e+09
5.197028e+10 -6.534913e+09 -1.477217e+09
-3.260662e+10 -1.476312e+10 1.660461e+09
-1.000695e+10 -4.726216e+10 -1.748662e+09
9.131424e+09 -5.121564e+10 -6.137285e+08
-9.190807e+08 -3.376203e+10 4.888721e+07
-2.417943e+10 5.487906e+09 -2.541266e+09
7.451561e+08 -3.187471e+10 5.108701e+08
1.020691e+10 2.801438e+10 1.115220e+09
2.200931e+10 5.128088e+09 -2.496829e+08
2.257780e+10 1.321205e+10 -1.377896e+09
-9.411188e+09 -4.794476e+10 9.338656e+08
7.215870e+09 -4.626961e+10 3.556696e+09
-1.463220e+09 -3.352086e+10 -2.117973e+09
1.195298e+09 -2.514327e+10 1.609486e+09
-2.759578e+10 1.534690e+10 1.091454e+08
1.987367e+10 -2.801324e+10 -5.351291e+08
-2.147967e+10 3.572968e+09 1.327609e+09
2.209218e+09 2.607110e+10 1.278878e+09
2.599380e+10 -8.798188e+09 1.306385e+09
3.179105e+10 -1.053890e+10 -1.310169e+09
3.104879e+10 -1.808572e+10 -2.282509e+09
2.561797e+10 2.080241e+10 1.294826e+08
1.237338e+10 2.682234e+10 3.743156e+08
-4.906983e+09 3.482324e+10 -1.447273e+09
-1.579828e+10 -2.087020e+10 -1.352622e+09
-3.631415e+10 1.292744e+09 -7.368407e+08
-2.709483e+10 1.412623e+10 5.868099e+08
-3.027840e+10 3.661168e+09 -2.735847e+08
-3.792354e+10 2.070673e+10 -1.993519e+09
5.124944e+10 7.906207e+09 -1.697058e+08
-2.052839e+10 1.888755e+10 1.050217e+09
8.958320e+09 4.822043e+10 2.145258e+09
-2.486837e+10 1.508990e+10 -7.358402e+08
-2.105650e+10 -4.884333e+09 -1.349160e+09
-2.684396e+10 -2.547926e+09 7.598532e+08
3.553927e+10 -3.812340e+09 8.045038e+08
5.034055e+10 4.814669e+09 -2.367382e+09
-2.536459e+10 6.468378e+08 -1.172110e+09
-2.280771e+10 2.144395e+09 8.060919e+08
5.209611e+10 1.975548e+10 1.156442e+09
-3.348532e+10 -2.691547e+10 2.032102e+09
-2.940941e+10 -9.135681e+09 -3.547040e+09
-2.771582e+10 -1.544433e+07 -1.118849e+09
-4.043815e+10 3.718168e+10 9.572644e+08
3.007132e+10 -1.142656e+10 -8.864394e+08
-6.598792e+09 -2.516785e+10 1.061324e+09
7.693341e+09 -2.971600e+10 -6.261813e+07
-1.534837e+10 1.485451e+10 -2.240790e+09
-2.217311e+10 4.504508e+10 -6.586257e+08
-3.001842e+10 3.141034e+07 1.654154e+09
-1.473353e+10 1.581203e+10 2.563295e+08
-5.037876e+10 9.083238e+09 1.615382e+09
4.841722e+09 -5.120257e+10 -3.298402e+08
-4.763839e+09 -3.587443e+10 -4.455263e+08
-1.434792e+10 3.172516e+10 -2.988915e+08
-8.057966e+09 -3.250085e+10 -4.316460e+08
6.598688e+09 -2.064980e+10 -5.870246e+08
1.677359e+09 3.843543e+10 -7.029657e+08
1.554857e+10 -1.900152e+10 -5.902395e+08
3.149979e+10 -1.415280e+10 -1.536466e+09
-2.215800e+10 -1.501143e+09 -3.220545e+07
-1.579364e+10 -3.357935e+10 1.344497e+09
1.879787e+10 -4.841155e+10 1.995241e+08
3.803403e+10 2.096558e+10 -2.647204e+08
-2.023745e+10 -2.647988e+10 -4.046804e+09
1.303513e+10 -2.174121e+10 -6.744662e+08
-3.346572e+10 -2.688605e+10 -4.230788e+08
-4.254416e+10 -1.156928e+10 -3.580779e+09
1.407584e+09 -5.110632e+10 3.329332e+08
-9.654129e+08 -3.868199e+10 -5.119310e+09
-1.490014e+10 1.147084e+10 2.026276e+09
-2.493104e+10 5.821667e+08 -9.465622e+08
4.527996e+10 -3.751770e+10 6.455754e+08
1.760184e+10 -3.571134e+10 -6.076351e+08
-2.204413e+10 -4.848405e+10 -4.515523e+09
1.866031e+10 -2.512414e+10 -1.697418e+08
3.037331e+10 -1.859652e+10 1.504578e+09
-1.641991e+09 -3.853364e+10 4.586937e+09
-1.842656e+09 -3.476117e+10 -5.478784e+08
6.107571e+10 -1.137644e+10 8.468861e+08
-3.426531e+10 1.960310e+10 9.318506e+08
-2.763041e+10 -6.908232e+09 3.769816e+08
-2.893330e+10 -1.855239e+09 -2.792352e+08
4.681099e+10 2.868601e+10 4.419745e+09
-7.168438e+08 5.378064e+10 3.967941e+09
1.737634e+10 4.743026e+10 8.630365e+08
2.636180e+10 -4.407486e+10 5.293444e+08
-2.444674e+10 -3.986003e+10 3.468431e+09
-1.952445e+10 -1.863466e+10 -2.739832e+09
1.377715e+10 -2.159132e+10 -1.160453e+09
-1.706704e+10 -3.334684e+10 -1.219569e+09
1.002626e+10 3.476531e+10 2.769068e+09
4.503026e+10 1.374668e+10 -3.393490e+08
-3.289206e+10 -4.699098e+09 1.080943e+09
2.427152e+10 3.146372e+10 1.939124e+08
2.281160e+10 -1.154363e+10 -2.148122e+08
-2.073878e+10 -7.618150e+09 -1.041418e+09
4.950679e+10 2.743867e+09 -5.872661e+08
-3.226887e+10 -3.572925e+09 9.738387e+08
4.920353e+09 -2.914411e+10 1.124831e+09
-6.936492e+09 -3.377244e+10 -5.723967e+08
7.909124e+09 -5.153213e+10 -2.555154e+09
-2.301866e+09 -3.519558e+10 -9.746563e+08
4.391112e+10 1.748806e+10 -2.533379e+08
-2.796283e+10 -6.866492e+09 -3.563892e+08
5.291442e+10 -1.308224e+10 -7.853242e+08
-2.369992e+10 2.155673e+10 -3.057775e+08
9.139324e+09 -3.610442e+10 2.349343e+09
-6.868385e+09 -3.331477e+10 1.548207e+09
-1.826946e+10 4.004887e+10 1.623599e+08
-5.085614e+09 3.068327e+10 -2.523453e+09
1.878414e+10 1.486086e+10 6.103688e+08
-2.840750e+10 -2.018912e+10 -8.361880e+08
-2.454832e+10 -3.975686e+09 2.168336e+09
-3.314592e+10 3.560774e+10 -5.910374e+08
-2.060023e+10 -7.094549e+09 -1.070585e+09
-1.838508e+10 2.797367e+10 -5.765297e+08
3.700103e+10 -2.078515e+10 -4.924125e+08
-3.465041e+10 -8.272974e+09 -1.755731e+09
1.117756e+10 -2.381409e+10 -6.548532e+08
-1.024332e+10 -2.620697e+10 1.118049e+09
1.435103e+10 3.443000e+10 -9.551476e+07
-3.016209e+10 5.313333e+09 -4.006755e+08
3.257839e+10 -7.202924e+09 -5.297340e+08
-3.274247e+10 3.209933e+10 -1.893030e+09
1.625778e+10 -1.926318e+10 1.381807e+09
-2.408610e+10 -4.261137e+09 1.190859e+09
-1.261437e+10 -1.615197e+10 -3.364544e+08
-8.164676e+09 2.780288e+10 -1.668645e+09
4.940999e+10 7.851439e+09 -1.790660e+09
1.101517e+10 4.884145e+10 1.403820e+08
-3.030621e+10 1.744777e+10 6.277566e+08
1.691336e+10 1.787635e+10 -2.180548e+09
2.357169e+10 9.471236e+09 -1.919894e+09
1.867749e+10 2.697850e+10 6.527358e+08
3.433435e+09 2.285548e+10 1.632273e+09
7.357915e+09 -2.699077e+10 -4.590723e+08
-3.084909e+10 -1.027460e+10 1.336032e+09
-1.060435e+10 -3.595744e+10 -2.294133e+09
4.952380e+10 -2.038129e+10 -3.249293e+09
-3.147570e+10 2.324870e+10 -1.358199e+09
-3.679890e+10 -5.125761e+09 1.313675e+08
1.224589e+10 -5.001358e+10 -1.809530e+09
-6.977711e+09 -3.755918e+10 3.615241e+08
1.383241e+10 2.225062e+10 -3.188647e+09
9.873904e+09 3.253614e+10 2.366602e+09
-1.853447e+10 -4.843912e+10 2.500399e+08
1.359004e+10 -3.917741e+10 3.952737e+09
-3.026618e+10 -1.254946e+10 -2.094108e+09
-1.216015e+10 -5.923996e+10 6.205107e+09
1.039179e+10 -5.490055e+10 3.987628e+09
-5.050658e+10 9.755977e+09 1.290335e+09
2.602743e+10 -2.760399e+10 -1.911144e+09
-3.207535e+10 -1.518707e+10 -1.941347e+09
-5.101497e+10 -1.254638e+10 3.967717e+09
-7.493699e+09 2.021037e+10 1.542038e+08
-2.943923e+10 -2.923344e+09 2.641598e+09
2.916521e+10 -1.425219e+10 -2.932750e+08
2.115450e+10 2.023247e+10 -3.015987e+09
-2.971584e+10 -1.292364e+10 5.748398e+08
-2.470576e+10 -4.284543e+08 1.649055e+09
-1.735273e+10 -2.545721e+10 7.328793e+08
-2.170648e+10 1.037918e+10 2.538842e+09
-2.309598e+10 3.199561e+10 -2.043834e+08
2.954519e+10 7.792732e+09 1.578200e+08
2.660310e+10 8.287252e+09 -4.503658e+07
2.167765e+10 1.365772e+10 -1.740308e+09
6.483234e+09 2.067846e+10 1.892312e+08
3.588509e+10 -9.906988e+09 -3.715476e+09
5.062245e+09 2.161755e+10 -1.720993e+09
-2.922650e+10 -1.477325e+10 -1.464741e+08
-3.068588e+10 -3.053739e+10 6.804278e+08
3.817936e+10 -7.400740e+08 -1.840938e+09
-8.421593e+09 3.657079e+10 1.743156e+09
-3.719710e+10 -3.957619e+10 4.565090e+09
4.817200e+10 3.541667e+09 2.762856e+09
-3.160477e+10 -2.034596e+10 2.192086e+09
2.167656e+10 -4.373576e+10 -8.925305e+08
-1.360963e+10 -3.562006e+10 3.032222e+09
2.857995e+10 -4.138222e+10 -9.271363e+08
8.711040e+09 -2.928959e+10 5.493964e+07
-2.067671e+10 -1.416590e+10 7.754952e+08
-7.408003e+09 -2.384157e+10 2.803732e+08
-1.186657e+10 -3.325471e+10 6.376197e+08
1.552869e+10 -3.325725e+10 2.244292e+09
-2.417184e+10 -2.970655e+10 2.003515e+09
-3.032373e+10 4.433458e+10 -1.273051e+09
5.118254e+10 -2.148016e+10 1.136289e+09
-2.310211e+10 -4.932983e+10 2.017966e+09
1.977862e+10 -4.000429e+10 8.996984e+08
-3.125639e+10 3.005121e+10 -3.783286e+09
4.527126e+10 -6.796148e+09 1.387689e+09
-2.258143e+10 -1.200154e+10 -3.427395e+08
-1.806840e+10 3.530120e+10 -2.747225e+09
-2.220554e+10 -1.544433e+10 2.986970e+09
3.821671e+10 -3.930104e+10 4.619453e+09
1.108507e+09 3.419114e+10 1.093362e+09
-1.511982e+10 3.205270e+10 3.244748e+08
-2.835885e+10 -2.913860e+10 3.524890e+07
-1.415726e+09 3.144021e+10 -6.477372e+08
-1.111292e+10 -2.815242e+10 -1.882035e+09
1.247200e+10 -2.969058e+10 1.492018e+08
-1.480143e+10 2.711437e+10 1.658392e+09
-1.964162e+10 -1.535846e+10 1.958556e+07
2.553802e+10 1.480326e+10 -1.131237e+09
2.882852e+10 1.369268e+10 2.317746e+08
1.739528e+10 -1.115145e+10 -4.690637e+09
-2.164709e+10 2.299346e+10 -1.126700e+09
1.199113e+10 3.331130e+10 1.663659e+09
-3.436973e+10 -2.599324e+10 4.363010e+08
5.330536e+10 1.889617e+09 -1.232010e+07
3.391231e+10 2.383750e+10 -2.628202e+09
1.114011e+10 2.892662e+10 -1.210405e+09
3.569628e+10 -1.736946e+10 -2.142690e+08
-1.875523e+10 -1.314285e+10 2.455182e+09
-2.901835e+09 3.475930e+10 5.487312e+07
-5.563248e+09 4.694063e+10 6.282192e+08
3.984151e+10 -2.652672e+10 -5.937835e+09
4.261877e+10 -2.795782e+10 -7.571985e+08
2.927913e+10 -2.403530e+10 3.386053e+07
-3.895923e+10 3.672105e+10 -2.021990e+09
-3.694015e+10 -1.602903e+10 1.708665e+09
-5.605589e+09 3.837836e+10 -4.083881e+09
1.922353e+10 2.431103e+10 3.216092e+08
2.512230e+10 -2.829768e+10 5.720989e+08
-1.751787e+10 -1.567287e+10 -1.059650e+09
-3.578121e+10 9.436525e+09 5.224649e+08
2.523404e+10 2.156612e+10 -7.414773e+08
-4.220104e+10 1.162741e+10 -1.684334e+09
9.871741e+09 1.860190e+10 7.271036e+08
-2.531801e+10 1.944797e+10 -7.474837e+07
-4.787484e+10 1.951724e+10 1.303577e+09
4.765408e+09 4.090870e+10 -2.123598e+08
-1.233612e+10 4.746532e+10 4.809857e+08
2.636018e+10 2.606761e+10 2.889196e+09
4.742607e+10 1.727520e+10 -1.053274e+09
-1.917232e+10 -1.528847e+10 -6.245752e+08
4.638817e+10 1.953752e+10 1.062953e+09
4.031723e+10 1.637904e+10 -4.814374e+08
2.217162e+10 2.631739e+10 2.825334e+08
-1.020790e+10 -3.237137e+10 1.485557e+08
5.083055e+09 -2.029518e+10 -2.632208e+08
2.378932e+10 2.902530e+10 9.005064e+08
-2.455795e+10 -6.719307e+09 2.440732e+09
-2.297543e+10 -1.280157e+10 -1.153602e+09
-2.734705e+09 3.419441e+10 6.653281e+08
-6.804775e+09 3.386209e+10 1.557989e+08
-2.073496e+10 -2.160115e+10 2.596815e+08
-4.089673e+10 2.195874e+10 -1.143941e+09
4.598454e+10 8.703681e+09 -1.794077e+09
1.414249e+10 3.441314e+10 -1.001349e+09
-1.376668e+10 1.918537e+10 -2.344371e+08
-7.612261e+09 2.643406e+10 7.813719e+08
2.425223e+10 1.878797e+10 7.145063e+08
4.191573e+10 3.783945e+09 -1.236627e+09
2.559776e+10 2.244456e+10 3.354342e+09
2.273657e+10 -2.507751e+09 -5.884841e+08
-2.357972e+10 2.154844e+10 1.244271e+09
-1.655804e+10 -2.090584e+10 7.332915e+08
1.487297e+10 2.972534e+10 4.663976e+09
2.149099e+10 -3.361446e+10 1.261541e+09
-2.096062e+10 -3.472524e+10 -4.961600e+08
-2.639273e+10 2.897016e+10 4.878578e+08
-3.088246e+10 -2.513157e+09 1.333618e+09
-1.037989e+10 3.459858e+10 -8.656175e+08
1.615873e+10 -3.661737e+10 3.381692e+08
-1.512321e+10 -3.566773e+10 -2.032376e+08
3.576336e+10 -1.576946e+10 3.486758e+08
1.777998e+10 -1.702119e+10 1.603412e+09
-1.591555e+10 -1.682824e+10 1.134783e+09
-2.429299e+10 -2.467512e+10 2.904553e+08
-1.313912e+10 3.798193e+10 2.054106e+09
2.502629e+10 -8.209334e+08 -1.187699e+09
3.311972e+10 -2.988869e+09 -1.456519e+09
1.763104e+10 -1.470616e+10 -9.575294e+08
8.944257e+08 -2.136414e+10 1.051327e+09
-2.545853e+08 -2.123708e+10 -1.612602e+09