# vtk DataFile Version 2.0
Electric current density generated by TTH
ASCII
DATASET UNSTRUCTURED_GRID
POINTS 1770 double
2.165980e-05 -5.305121e-21 -4.311495e-22
1.984071e-05 8.688671e-06 -4.311495e-22
-3.706823e-06 -2.134025e-05 -4.311495e-22
1.553889e-05 -1.477262e-05 -8.511810e-07
1.553889e-05 1.477262e-05 8.511810e-07
-1.864104e-05 -1.242953e-06 -1.271777e-06
-1.871173e-05 1.045618e-05 -8.607023e-07
-1.125590e-06 2.140616e-05 -8.594363e-07
-1.388046e-05 1.633454e-05 -8.597010e-07
6.643113e-06 1.896133e-05 -1.749814e-06
-9.065727e-06 -1.840363e-05 1.649044e-06
-1.918518e-05 -7.462453e-06 -1.621164e-06
-7.635971e-06 -1.757326e-05 -1.597700e-06
-2.724548e-06 -2.148776e-05 -4.311495e-22
5.291285e-06 -1.944410e-05 -1.742213e-06
-2.122272e-05 -3.025561e-06 -8.566284e-07
-1.742651e-05 8.129924e-06 1.627865e-06
1.331571e-05 -1.678954e-05 -8.715820e-07
-1.135246e-05 1.552173e-05 1.628118e-06
2.131255e-05 -2.367476e-06 -8.451586e-07
2.131255e-05 2.367476e-06 8.451586e-07
-1.918371e-05 -1.341203e-06 1.628236e-06
-3.589512e-07 1.998605e-05 1.758011e-06
9.387448e-06 1.926760e-05 8.646766e-07
-1.736542e-06 -2.159007e-05 -4.311495e-22
1.532841e-05 -1.110860e-05 1.469546e-06
2.105479e-05 -3.835917e-06 -9.181783e-07
2.105479e-05 3.835917e-06 9.181783e-07
7.689286e-06 -1.998416e-05 8.998479e-07
1.316573e-05 1.387540e-05 1.582011e-06
1.620803e-05 1.260777e-05 -1.641867e-06
4.550132e-06 1.797015e-05 -1.114890e-06
6.983528e-06 1.758483e-05 -1.463138e-06
-1.549240e-05 -1.328439e-05 -1.685235e-06
-1.664342e-05 -1.352745e-05 8.380590e-07
-7.448852e-07 -2.164699e-05 -4.311495e-22
-1.363004e-05 -1.569130e-05 -1.521661e-06
8.932957e-06 1.726286e-05 -1.698507e-06
5.461522e-06 -1.811180e-05 1.460827e-06
1.351682e-05 1.345663e-05 -1.554290e-06
1.189079e-05 -1.786710e-05 -8.104042e-07
1.523609e-05 1.314084e-05 1.746419e-06
1.522831e-05 -1.315084e-05 -1.746337e-06
-1.711778e-05 -7.785498e-06 1.378761e-06
1.328556e-05 -1.511896e-05 -1.745561e-06
4.657203e-06 2.096415e-05 -7.847076e-07
2.483386e-07 -2.165838e-05 -4.311495e-22
4.135482e-06 2.015902e-05 1.623937e-06
-5.133552e-06 -2.082685e-05 -8.330503e-07
1.708474e-05 -1.102823e-05 1.705591e-06
1.851834e-05 -5.664852e-06 -1.677324e-06
1.851834e-05 5.664852e-06 1.677324e-06
1.708469e-05 1.102733e-05 -1.705727e-06
6.540945e-06 -2.044961e-05 -7.946607e-07
1.224192e-06 1.814694e-05 4.124016e-07
-2.005410e-05 -3.661221e-06 1.691862e-06
-1.073377e-06 1.998694e-05 1.756459e-06
1.241040e-06 -2.162422e-05 -4.311495e-22
-2.035081e-05 1.316815e-06 -1.689600e-06
-1.946182e-05 6.077734e-06 -1.690942e-06
-1.382810e-05 1.495420e-05 1.696885e-06
-6.160365e-06 -2.057604e-05 7.781889e-07
-1.002231e-05 1.769780e-05 1.704655e-06
-9.726117e-06 1.792112e-05 -1.690497e-06
-5.231097e-06 1.971087e-05 -1.689649e-06
-2.023165e-05 7.033617e-06 8.879733e-07
-1.840689e-05 1.095337e-05 8.880424e-07
1.300323e-05 -1.699912e-05 9.168108e-07
2.231132e-06 -2.154458e-05 -4.311495e-22
1.971175e-05 4.117165e-06 1.744187e-06
1.971175e-05 -4.117165e-06 -1.744187e-06
-2.030818e-05 9.461203e-07 1.706795e-06
8.374487e-06 -1.680425e-05 -1.354627e-06
-2.293094e-06 1.884149e-05 1.501378e-06
-1.431080e-05 -1.150684e-05 8.592964e-07
7.754550e-06 1.996909e-05 8.837260e-07
-1.557663e-05 -1.261055e-05 1.754573e-06
-1.600723e-05 -1.205915e-05 1.754579e-06
1.624536e-05 -1.243719e-05 1.668813e-06
3.216531e-06 -2.141964e-05 -4.311495e-22
3.788418e-06 -1.884835e-05 1.626079e-06
6.809944e-06 2.031445e-05 -8.774849e-07
1.100357e-05 1.605123e-05 -1.704745e-06
-1.967055e-05 -8.614154e-06 -7.870741e-07
1.699652e-05 6.337558e-06 -3.909940e-08
1.699652e-05 -6.337558e-06 3.909940e-08
6.771853e-06 -1.721104e-05 1.061617e-06
1.748810e-05 1.246238e-05 -7.866032e-07
-1.777004e-05 1.205865e-05 -7.846879e-07
7.385387e-07 2.146255e-05 -7.846342e-07
4.195166e-06 -2.124965e-05 -4.311495e-22
-1.527211e-05 1.509800e-05 -7.846154e-07
3.455040e-06 -2.116873e-05 8.355959e-07
1.250921e-05 1.521495e-05 -1.748625e-06
-2.088766e-05 -4.954291e-06 -8.006624e-07
-2.505171e-06 -1.943629e-05 1.734129e-06
-2.360274e-06 1.804940e-05 4.698853e-07
-1.305729e-05 -1.705030e-05 7.837507e-07
-1.160703e-05 -1.404552e-05 -5.299576e-07
-1.993129e-05 7.900647e-06 8.516413e-07
6.077506e-06 -1.914705e-05 -1.750132e-06
5.164979e-06 -2.103497e-05 -4.311495e-22
1.851123e-05 4.443311e-06 1.534541e-06
1.851123e-05 -4.443311e-06 -1.534541e-06
8.011434e-07 1.993421e-05 -1.759568e-06
1.355771e-05 -1.267907e-05 -1.145153e-06
3.597607e-06 1.860760e-05 1.483670e-06
-1.658568e-05 1.247273e-05 -1.539991e-06
-8.482783e-06 1.894450e-05 -1.537335e-06
2.945996e-06 2.026728e-05 1.661736e-06
1.459367e-05 -1.384996e-05 -1.746491e-06
1.468666e-05 1.379637e-05 1.742332e-06
1.942150e-05 9.589164e-06 -4.311495e-22
6.123929e-06 -2.077605e-05 -4.311495e-22
-2.025103e-05 -4.684058e-07 1.723731e-06
-6.331559e-06 -1.713747e-05 -6.651246e-07
2.113171e-05 7.272490e-07 -1.244721e-06
2.113593e-05 -8.483376e-07 1.235925e-06
-1.767773e-05 -4.967670e-06 8.579976e-07
-1.936263e-05 -6.527695e-06 1.677394e-06
-1.119087e-05 1.689036e-05 1.722721e-06
-1.877108e-05 7.626560e-06 1.722731e-06
-2.006307e-05 3.789261e-06 1.682278e-06
-1.584052e-05 1.289306e-05 1.680242e-06
7.070001e-06 -2.047345e-05 -4.311495e-22
-7.526228e-06 1.897293e-05 1.684293e-06
-3.613347e-06 -1.833333e-05 1.275193e-06
-2.023222e-05 4.656772e-06 -1.534956e-06
9.105358e-06 -1.569283e-05 -1.173010e-07
6.446841e-06 -1.793694e-05 1.547396e-06
1.877282e-06 2.064424e-05 -1.552383e-06
3.239118e-06 -2.009120e-05 -1.701510e-06
-1.761538e-05 -5.167903e-06 -8.496028e-07
-1.360975e-05 1.231780e-05 8.468669e-07
-3.220694e-06 -2.123908e-05 -7.711814e-07
8.001205e-06 -2.012778e-05 -4.311495e-22
-1.674296e-05 -7.023487e-06 -2.457266e-07
-1.300056e-05 -1.436268e-05 1.679623e-06
1.539245e-05 9.694324e-06 -4.233349e-07
1.539251e-05 -9.694133e-06 4.231261e-07
-4.506630e-06 -1.758595e-05 2.294302e-07
1.130923e-05 -1.546964e-05 1.598679e-06
-1.756842e-05 4.606998e-06 -2.850243e-07
-9.645984e-06 -1.917980e-05 7.974440e-07
1.902494e-05 -7.080481e-06 1.714184e-06
1.902494e-05 7.080481e-06 -1.714184e-06
8.915582e-06 -1.973979e-05 -4.311495e-22
1.769278e-05 7.612466e-06 -1.640400e-06
1.769278e-05 -7.612466e-06 1.640400e-06
-1.122586e-05 1.594492e-05 -1.714432e-06
-1.473198e-05 1.101322e-05 9.114603e-07
-2.009014e-05 -7.554929e-06 8.074137e-07
1.658765e-05 -1.181042e-05 -1.698288e-06
1.658879e-05 1.180990e-05 1.698118e-06
-7.886753e-06 1.656274e-05 8.252412e-07
-1.779645e-05 7.941732e-06 -1.711546e-06
-4.591694e-06 -1.983907e-05 1.698044e-06
9.811209e-06 -1.931028e-05 -4.311495e-22
1.491848e-05 1.381325e-05 -1.706488e-06
-1.877035e-05 -2.769501e-06 -1.497099e-06
-1.820015e-05 2.220831e-06 8.071270e-07
7.274539e-06 -1.775530e-05 -1.609990e-06
1.229250e-05 -1.336216e-05 -2.451300e-07
-2.877244e-06 -1.791861e-05 -1.772144e-07
-2.146081e-05 -1.258556e-07 8.122799e-07
1.093074e-05 -1.542826e-05 -1.454505e-06
1.410415e-05 1.616487e-05 -8.278724e-07
1.176667e-05 -1.792557e-05 8.472335e-07
1.068620e-05 -1.884017e-05 -4.311495e-22
-1.153960e-05 1.809605e-05 8.101791e-07
1.628706e-05 1.402389e-05 -7.484889e-07
1.246481e-05 -1.599861e-05 -1.718420e-06
-1.647108e-05 9.430992e-06 -1.501058e-06
-1.244272e-05 1.433285e-05 -1.501250e-06
1.189397e-06 2.051820e-05 1.634644e-06
2.056362e-05 2.172025e-06 1.578791e-06
2.056362e-05 -2.172025e-06 -1.578791e-06
-7.155911e-06 2.023828e-05 8.026802e-07
1.965425e-05 2.877124e-06 -1.759938e-06
1.153872e-05 -1.833043e-05 -4.311495e-22
1.965425e-05 -2.877124e-06 1.759938e-06
-1.840509e-05 3.625197e-06 1.340628e-06
-1.946844e-05 -1.018751e-06 -1.713215e-06
-4.159587e-06 -2.107243e-05 7.769712e-07
9.678668e-06 1.652924e-05 1.594850e-06
-6.690029e-06 1.754051e-05 1.352660e-06
1.453332e-05 -1.576922e-05 8.427634e-07
-1.437462e-05 1.204989e-05 1.339265e-06
-1.231743e-06 -2.146222e-05 -7.382048e-07
-1.687539e-05 -1.322205e-05 -8.548156e-07
1.236698e-05 -1.778215e-05 -4.311495e-22
-1.741065e-05 1.038475e-05 1.720332e-06
-1.913013e-05 6.670826e-06 1.723022e-06
1.540204e-05 1.296546e-05 -1.744785e-06
-3.252088e-06 1.803171e-05 -7.824021e-07
2.213514e-06 1.817583e-05 7.566664e-07
7.414299e-06 -1.661507e-05 -4.369591e-07
1.815736e-05 -2.460076e-06 7.836541e-07
1.815736e-05 2.460076e-06 -7.836541e-07
2.143935e-05 -8.589799e-07 -8.211340e-07
2.143935e-05 8.589799e-07 8.211340e-07
1.316923e-05 -1.719646e-05 -4.311495e-22
-2.013705e-05 7.346990e-06 -8.599301e-07
-4.508465e-06 2.095612e-05 -8.596627e-07
-1.110939e-05 1.833216e-05 -8.596201e-07
1.802212e-05 -2.155905e-06 -2.001355e-07
1.802212e-05 2.155905e-06 2.001355e-07
2.049162e-05 -2.143752e-06 1.613418e-06
2.048373e-05 2.118537e-06 -1.617937e-06
-8.925955e-06 -1.663445e-05 1.433571e-06
1.408673e-05 1.146885e-05 -3.008192e-07
-2.143322e-05 3.673385e-07 -8.583117e-07
1.394378e-05 -1.657462e-05 -4.311495e-22
6.525275e-06 1.925963e-05 1.705578e-06
5.781875e-06 1.894312e-05 -1.757809e-06
1.027955e-05 1.528147e-05 9.494232e-07
-1.267341e-05 1.599254e-05 1.686067e-06
-1.811251e-05 9.376411e-06 1.688951e-06
-2.053432e-05 -2.240407e-06 1.589368e-06
1.772521e-05 -1.206883e-05 8.447269e-07
-6.761121e-07 -2.035879e-05 -1.696252e-06
-1.011517e-05 -1.771437e-05 1.687971e-06
-8.889026e-06 -1.588236e-05 4.611254e-07
1.896145e-05 1.046949e-05 -4.311495e-22
1.468900e-05 -1.591792e-05 -4.311495e-22
-2.480670e-06 1.845751e-05 -1.212595e-06
-1.520367e-05 -1.394896e-05 1.600149e-06
-1.822992e-05 2.800042e-06 -9.896158e-07
-8.787738e-06 -1.631774e-05 -1.110354e-06
6.118329e-06 -2.054883e-05 8.511449e-07
2.009301e-06 -2.050090e-05 1.615293e-06
2.526088e-06 1.928375e-05 1.701548e-06
-7.888414e-07 1.896517e-05 -1.502019e-06
7.650302e-07 -2.146777e-05 -7.721702e-07
-6.012796e-06 1.736145e-05 8.769343e-07
1.540334e-05 -1.522774e-05 -4.311495e-22
1.137378e-05 -1.434401e-05 7.481667e-07
6.093104e-06 -1.967924e-05 1.614512e-06
9.155539e-08 -1.939540e-05 -1.686642e-06
-1.251511e-05 -1.352428e-05 9.637485e-07
6.202114e-06 1.742137e-05 -1.057762e-06
2.084208e-05 -5.112812e-06 -8.144781e-07
2.084208e-05 5.112812e-06 8.144781e-07
[...]
POINT_DATA 1770
VECTORS 10.000GHz_fone_imag double
1.407627e-05 -1.908271e-04 1.971760e-02
5.785354e-04 -4.018520e-04 1.950472e-02
9.460730e-04 -6.041002e-04 1.929686e-02
7.576202e-03 -5.795066e-03 1.595515e-02
-7.956478e-03 -7.249894e-03 1.758668e-02
-2.250998e-02 4.983665e-04 -2.364525e-02
-8.573676e-03 5.583674e-03 1.778928e-02
4.758005e-06 1.021989e-02 1.609636e-02
-6.451259e-03 8.060807e-03 1.647599e-02
8.335800e-03 2.486557e-02 1.269306e-03
1.020988e-02 2.048572e-02 7.209981e-03
-2.147404e-02 -8.161914e-03 7.849149e-03
-8.793295e-03 -2.422849e-02 -1.526598e-02
-1.924773e-04 2.462015e-04 2.028341e-02
7.822701e-03 -2.409926e-02 2.446577e-03
-1.133220e-02 -1.586876e-03 1.586560e-02
2.447778e-02 -1.115735e-02 -1.300297e-02
6.399778e-03 -7.637895e-03 1.812757e-02
1.617699e-02 -2.246171e-02 -1.387953e-02
9.215335e-03 -1.805371e-03 1.766109e-02
-1.010856e-02 -1.213529e-03 1.833708e-02
2.775877e-02 2.678674e-03 -1.339437e-02
-5.442292e-04 -2.409151e-02 1.075486e-03
-4.347985e-03 -9.635041e-03 1.781770e-02
-3.584898e-05 -2.210990e-04 1.912620e-02
-2.223858e-02 1.602408e-02 -2.034385e-02
9.796012e-03 -1.721114e-03 1.696078e-02
-1.134958e-02 -1.830514e-03 1.609414e-02
-3.836975e-03 1.081190e-02 1.547386e-02
-1.778020e-02 -2.042554e-02 -1.459081e-02
1.599372e-02 1.365564e-02 8.810448e-03
4.563156e-03 1.858661e-02 -2.418102e-02
1.131110e-02 2.286204e-02 -1.629552e-02
-1.711892e-02 -1.566788e-02 3.709176e-03
7.298553e-03 6.253828e-03 1.813379e-02
1.322655e-04 -8.612840e-06 1.981043e-02
-1.360632e-02 -1.481041e-02 1.147151e-02
1.132911e-02 2.135737e-02 -8.999813e-03
-6.032999e-03 2.401817e-02 -1.920635e-02
1.929772e-02 1.964086e-02 -1.438698e-02
5.427663e-03 -8.621785e-03 1.793456e-02
-1.859333e-02 -1.590089e-02 3.457338e-03
1.940538e-02 -1.701766e-02 1.720528e-03
1.967311e-02 1.084158e-02 -1.858494e-02
1.765185e-02 -1.915285e-02 1.381257e-03
1.273487e-03 6.695956e-03 1.728475e-02
-2.053443e-05 3.757072e-04 1.834520e-02
-4.755589e-03 -2.314732e-02 8.266008e-03
-2.280839e-03 -9.933897e-03 1.792679e-02
-1.833407e-02 1.241895e-02 5.770150e-03
2.683189e-02 -8.128287e-03 -1.221121e-02
-2.654022e-02 -8.060599e-03 -9.027741e-03
1.997077e-02 1.282534e-02 5.631554e-03
3.419636e-03 -9.830737e-03 1.852064e-02
2.194015e-04 -6.721705e-03 -3.624027e-02
2.192380e-02 3.280300e-03 7.048839e-03
1.291219e-03 -2.391642e-02 9.046806e-05
1.067649e-04 3.658886e-04 1.946093e-02
-2.399791e-02 1.726163e-03 6.108551e-03
-2.337185e-02 6.955707e-03 6.053129e-03
1.687399e-02 -1.833141e-02 5.176196e-03
2.559909e-03 8.619067e-03 1.576725e-02
1.262312e-02 -2.173627e-02 5.495061e-03
-1.082590e-02 2.125163e-02 6.985935e-03
-4.792496e-03 2.116320e-02 5.830899e-03
8.163339e-03 -4.022486e-03 1.745381e-02
8.360853e-03 -5.360682e-03 1.799944e-02
-6.453254e-03 7.839239e-03 1.592052e-02
-1.511150e-04 5.998483e-05 2.005596e-02
-2.416144e-02 -3.778644e-03 -4.066064e-04
2.622811e-02 -5.645803e-03 1.804769e-03
2.245279e-02 -7.677371e-04 4.427043e-03
9.872740e-03 -2.205173e-02 -2.325452e-02
3.237332e-03 -2.739719e-02 -1.891954e-02
1.259662e-02 9.788817e-03 -2.763401e-02
-4.226205e-03 -9.026453e-03 1.769320e-02
2.093948e-02 1.569313e-02 4.075328e-04
2.082431e-02 1.572415e-02 1.033480e-03
-1.776303e-02 1.351902e-02 5.783784e-03
2.757798e-04 2.506439e-04 2.032512e-02
-5.545786e-03 2.541079e-02 -1.452873e-02
3.242381e-03 9.032356e-03 1.623272e-02
1.459356e-02 2.197575e-02 -5.705669e-03
-8.376972e-03 -4.038730e-03 1.868885e-02
1.429140e-03 -9.092302e-04 -3.567001e-02
-1.128430e-03 1.171816e-03 -3.586590e-02
-6.290161e-03 1.809437e-02 -2.750818e-02
8.048511e-03 5.956760e-03 1.756396e-02
-8.968417e-03 4.237341e-03 1.749589e-02
5.224339e-04 9.468227e-03 1.650296e-02
-4.182684e-04 7.210020e-04 2.011673e-02
-6.288513e-03 6.520220e-03 1.762734e-02
-2.650832e-03 9.762282e-03 1.603852e-02
1.785597e-02 2.136652e-02 -3.156038e-03
-9.184921e-03 -2.363495e-03 1.833937e-02
3.934686e-03 2.784216e-02 -4.876484e-03
1.981075e-03 -8.880498e-03 -3.317357e-02
6.133367e-03 7.755118e-03 1.778307e-02
-7.995445e-03 -6.731124e-03 -3.340875e-02
7.494195e-03 -2.062899e-03 1.723425e-02
7.754464e-03 -2.401800e-02 2.450113e-03
-2.080065e-04 -4.423606e-04 1.975848e-02
-2.524350e-02 -6.075963e-03 -1.303475e-02
2.583671e-02 -5.694641e-03 -1.742246e-02
1.177141e-03 2.670632e-02 -1.219927e-04
1.341010e-02 -1.371252e-02 -2.532303e-02
-4.725611e-03 -2.490578e-02 -1.439694e-02
-1.531717e-02 1.133131e-02 8.505048e-03
-8.663874e-03 1.701482e-02 9.228061e-03
-2.956443e-03 -2.406661e-02 7.450288e-03
1.881557e-02 -1.799356e-02 2.117973e-03
-1.910017e-02 -1.768155e-02 3.531502e-03
1.465150e-05 -8.125212e-05 1.917429e-02
5.546701e-04 3.996526e-04 1.962989e-02
2.540493e-02 8.947652e-04 4.491168e-03
-4.713095e-03 -1.007482e-02 -3.082156e-02
1.608083e-02 2.394113e-04 1.373680e-02
-1.350126e-02 3.630962e-04 1.357310e-02
1.546598e-02 5.317285e-03 -3.064354e-02
2.274987e-02 8.298254e-03 6.678660e-03
1.405052e-02 -2.081292e-02 4.937291e-03
2.314052e-02 -9.925788e-03 3.529940e-03
2.315950e-02 -4.488917e-03 6.171856e-03
1.901530e-02 -1.456121e-02 6.201371e-03
-1.195589e-04 1.030947e-03 2.038975e-02
8.246228e-03 -2.042242e-02 6.739244e-03
4.352185e-03 2.173726e-02 -2.099134e-02
-1.971642e-02 5.725931e-03 1.090377e-02
2.659537e-03 -4.992321e-03 -3.256463e-02
-1.014982e-02 2.381219e-02 -1.689545e-02
1.002257e-03 1.914097e-02 9.696580e-03
3.953815e-03 -2.454426e-02 5.753272e-03
-1.636265e-02 -4.819525e-03 -3.122367e-02
1.222963e-02 -1.129850e-02 -3.128911e-02
-2.152756e-03 -9.365550e-03 1.729337e-02
-1.476082e-03 -3.196362e-04 2.047420e-02
-3.366406e-03 -3.261720e-03 -3.745446e-02
1.698726e-02 1.873035e-02 -9.493741e-03
6.417817e-03 4.284831e-03 -3.462594e-02
-8.200620e-03 2.213265e-03 -3.457968e-02
3.657204e-04 4.935024e-03 -3.462732e-02
-1.491166e-02 2.204274e-02 -1.468058e-02
-4.909016e-03 1.260838e-03 -3.692761e-02
5.106337e-03 9.186617e-03 1.766568e-02
-2.312102e-02 8.215461e-03 4.503979e-03
2.298868e-02 8.222956e-03 5.355220e-03
2.554926e-04 -5.702697e-04 2.066506e-02
2.257885e-02 1.172393e-02 -1.253588e-02
-2.500606e-02 1.147188e-02 -1.246201e-02
-1.398498e-02 2.188233e-02 -8.432409e-03
1.166580e-02 -8.090314e-03 -2.824993e-02
8.038769e-03 2.807601e-03 1.572019e-02
2.112905e-02 -1.460089e-02 4.758112e-03
-1.967787e-02 -1.240241e-02 5.141341e-03
7.926645e-03 -1.313734e-02 -3.113574e-02
-2.389145e-02 1.265711e-02 -6.862093e-03
6.206885e-03 2.391014e-02 5.735848e-03
5.072138e-04 -5.091662e-04 2.043482e-02
1.649354e-02 1.491061e-02 3.830863e-03
-2.652014e-02 -3.908261e-03 -1.710110e-02
1.500272e-02 -2.560354e-03 -2.973714e-02
9.087784e-03 -2.491244e-02 -1.442034e-02
1.771270e-03 -3.820142e-03 -3.351949e-02
5.505053e-04 -2.725811e-03 -3.503569e-02
8.002960e-03 6.864130e-04 1.778707e-02
1.539224e-02 -2.055656e-02 -1.890040e-02
7.461914e-03 7.909762e-03 1.714311e-02
-6.288599e-03 9.294699e-03 1.782898e-02
8.957675e-04 1.862607e-04 1.938417e-02
4.300655e-03 -8.217486e-03 1.644397e-02
6.138913e-03 6.521959e-03 1.723773e-02
1.554179e-02 -1.993325e-02 3.899413e-03
-2.187778e-02 1.206896e-02 -1.682246e-02
-1.540487e-02 1.959015e-02 -1.509655e-02
-1.520601e-03 -2.017654e-02 7.523800e-03
-2.125974e-02 -1.624620e-03 8.551724e-03
2.053793e-02 -2.280087e-03 8.664040e-03
3.330891e-03 -9.781672e-03 1.752577e-02
2.550515e-02 2.631941e-03 -6.229180e-04
-5.276884e-05 -1.369140e-04 1.958654e-02
-2.787425e-02 4.780519e-03 -2.903140e-03
2.316663e-02 -5.355954e-03 -2.141770e-02
-2.832405e-02 -1.633956e-03 -8.724439e-03
1.724252e-03 8.425418e-03 1.824953e-02
-1.339680e-02 -2.384308e-02 -1.334049e-02
8.172839e-03 -2.390718e-02 -2.300716e-02
-6.866183e-03 7.818057e-03 1.728104e-02
1.753000e-02 -1.643799e-02 -2.177070e-02
-4.281278e-04 -9.052222e-03 1.794373e-02
-7.398004e-03 -6.322557e-03 1.737507e-02
-1.592957e-04 1.573105e-04 1.931410e-02
2.204834e-02 -1.308539e-02 4.569985e-03
2.437543e-02 -8.600992e-03 4.146224e-03
1.947902e-02 1.528176e-02 3.126294e-03
-2.331727e-03 1.509238e-02 -3.335472e-02
-2.633470e-03 -1.507701e-02 -3.319346e-02
2.919641e-03 -7.677533e-03 -3.067516e-02
-1.513324e-02 3.449463e-03 -3.088308e-02
1.398582e-02 2.373818e-03 -3.203521e-02
1.030969e-02 -2.286944e-04 1.769547e-02
-1.070713e-02 -5.343047e-04 1.772585e-02
-4.262864e-06 1.385291e-03 1.907235e-02
-8.794625e-03 3.301177e-03 1.808395e-02
-1.772493e-03 9.743645e-03 1.703482e-02
-5.015736e-03 8.687955e-03 1.759143e-02
3.073001e-03 2.534754e-04 -3.588228e-02
-1.108106e-03 -1.241621e-03 -3.475840e-02
-2.247675e-02 1.889302e-03 8.480586e-03
2.090690e-02 2.342218e-03 7.949683e-03
1.058219e-02 2.194674e-02 -1.869364e-02
2.810518e-03 3.625743e-03 -3.270980e-02
-1.003056e-02 -7.850055e-04 1.733138e-02
-1.092891e-03 3.481320e-04 1.920190e-02
-7.888142e-03 -2.218070e-02 3.352242e-03
7.581144e-03 2.583853e-02 -3.955402e-03
-9.089235e-03 -1.359435e-02 -2.713439e-02
1.477798e-02 -1.898949e-02 6.467354e-03
2.168409e-02 -1.135793e-02 5.405128e-03
2.122874e-02 2.349418e-03 9.656684e-03
-8.619819e-03 5.524654e-03 1.759354e-02
-1.194626e-03 -2.489893e-02 4.978857e-03
1.194643e-02 2.100378e-02 5.446255e-03
4.475205e-03 8.910441e-03 -3.507824e-02
1.023070e-04 -2.183061e-04 2.015282e-02
-8.998465e-04 -2.169336e-04 1.936839e-02
-3.983443e-03 2.281895e-02 -2.600929e-02
1.498289e-02 1.513589e-02 8.731139e-03
-1.787046e-02 3.416249e-03 -2.973254e-02
-8.569487e-03 -1.712928e-02 -2.421453e-02
-2.434471e-03 9.700375e-03 1.670522e-02
-1.594290e-03 1.993274e-02 7.488367e-03
-3.099856e-03 -2.507521e-02 -7.899541e-03
-1.940062e-03 2.725214e-02 -1.864207e-02
-2.786509e-04 -9.200961e-03 1.840495e-02
4.777754e-03 -1.501117e-02 -3.191701e-02
3.839148e-04 -5.981474e-04 1.981107e-02
-9.548280e-03 1.184844e-02 -2.951796e-02
-6.931448e-03 2.102856e-02 9.096753e-03
-7.343450e-05 -2.524439e-02 -8.386614e-03
1.346030e-02 1.465881e-02 -2.896240e-02
6.356066e-03 1.537720e-02 -2.589445e-02
9.011787e-03 -1.560354e-03 1.573777e-02
-9.907049e-03 -2.857232e-03 1.828002e-02
1.247031e-02 1.531548e-02 8.490188e-03
-2.388930e-02 -1.180564e-02 -1.768010e-02
8.104651e-03 7.137947e-03 1.560659e-02
2.936708e-04 -2.119938e-05 1.932670e-02
-3.522663e-03 -2.365419e-02 -2.359250e-02
-2.801700e-02 -2.916620e-03 -1.597937e-02
2.573433e-02 -3.204203e-03 -1.495243e-02
2.038173e-02 6.904445e-03 -2.051164e-02
-9.351876e-03 2.096363e-03 1.872559e-02
9.013692e-03 2.664605e-03 1.641523e-02
2.312534e-02 -1.144143e-03 -2.150162e-02
-1.360190e-02 -1.431753e-02 1.086645e-02
3.713396e-03 7.904292e-03 1.890057e-02
1.860193e-02 -8.918188e-03 -2.513947e-02
8.787042e-04 -5.001400e-04 1.833909e-02
-2.200771e-02 -7.582450e-03 -2.532282e-02
1.028898e-02 -1.974918e-02 -2.172712e-02
1.852717e-02 -1.212833e-02 8.260270e-03
-1.719728e-02 -9.854680e-03 7.891523e-03
-1.496254e-02 1.781528e-02 8.713900e-03
-8.312579e-04 4.977173e-03 -3.506128e-02
-1.331578e-02 -3.088521e-04 -3.299358e-02
9.668526e-03 3.258086e-04 -3.151624e-02
-3.508692e-03 -6.611266e-03 1.723207e-02
-1.369471e-02 -1.605997e-02 -2.870947e-02
-5.004231e-04 5.762627e-04 1.797119e-02
-8.162285e-03 -3.155194e-03 -3.126173e-02
9.114562e-03 -3.871696e-03 -3.570489e-02
2.116509e-02 1.524381e-02 -5.127357e-05
1.265655e-02 2.076644e-02 5.799022e-03
-1.151473e-02 -3.895492e-04 -3.188040e-02
8.878503e-03 1.214797e-03 -3.057293e-02
-2.977832e-03 -1.688072e-02 -3.358498e-02
9.174195e-03 1.783650e-02 -2.618530e-02
1.996874e-03 -9.667492e-03 1.802382e-02
4.360550e-03 -5.647996e-03 -3.652601e-02
-4.020034e-04 -5.296591e-04 1.934021e-02
6.530477e-03 5.341069e-04 -3.698487e-02
5.315214e-03 -1.334809e-03 -3.656582e-02
-1.436669e-02 -8.873734e-03 -3.039497e-02
1.452611e-02 -9.136635e-03 -2.941668e-02
1.279122e-02 -1.457290e-02 1.142969e-02
1.872591e-02 1.052504e-02 6.430982e-03
-2.067292e-02 1.122801e-02 7.554081e-03
2.601026e-02 -7.353286e-03 -3.283523e-03
9.346823e-03 -2.715994e-02 -3.787080e-03
2.204487e-02 -1.656474e-02 -2.896907e-03
6.102909e-04 -4.583164e-05 1.995143e-02
2.868156e-03 6.320336e-03 1.816771e-02
-2.979240e-03 9.526138e-03 1.738398e-02
1.749843e-03 -2.814701e-02 -1.519359e-02
6.346010e-04 -9.274632e-03 1.851828e-02
-2.024283e-02 -3.137065e-03 1.000810e-02
2.067195e-02 -3.474079e-03 1.081496e-02
2.701442e-02 3.561471e-03 -1.824493e-02
-2.423310e-02 2.569109e-03 -1.658283e-02
7.492823e-03 -2.445643e-02 -1.952287e-02
-6.840520e-03 -2.348790e-02 -2.531716e-02
-1.594953e-04 1.507035e-04 2.013394e-02
1.382111e-02 1.509582e-02 1.029914e-02
2.136296e-02 4.957018e-03 9.071550e-03
-2.033708e-02 4.291673e-03 1.053922e-02
2.629834e-02 1.070965e-02 -3.690883e-03
8.908013e-03 1.777143e-03 1.826878e-02
4.919703e-03 -7.278101e-03 1.785043e-02
1.536274e-02 -2.000323e-02 -1.702418e-02
2.350876e-03 -9.285980e-03 1.817300e-02
-2.032604e-02 -1.776531e-02 -1.587817e-02
-1.503720e-02 -1.094550e-02 -2.424690e-02
-7.208874e-05 -2.298610e-04 1.973347e-02
1.224738e-02 2.149376e-02 -1.981834e-02
-3.861226e-03 1.944768e-02 1.141922e-02
-7.480130e-03 -3.815203e-03 1.782844e-02
7.789912e-03 -3.004372e-03 1.839393e-02
2.271137e-02 -8.900178e-03 -1.629217e-02
-3.225394e-03 -2.499050e-02 3.015709e-03
-1.698902e-03 -9.458607e-03 1.863209e-02
-1.963701e-03 -3.602482e-03 -3.311071e-02
-7.370939e-03 -5.944757e-03 1.789252e-02
5.678279e-03 -4.928287e-03 1.650884e-02
-2.950848e-04 1.369213e-04 2.029951e-02
7.840666e-03 1.843938e-03 1.811010e-02
4.362896e-03 -2.532653e-02 -1.877963e-02
2.757021e-02 -7.193557e-03 -9.713739e-03
-1.148281e-02 -1.917107e-02 8.979541e-03
6.569165e-03 -5.720098e-03 1.790257e-02
4.572539e-03 -6.510723e-03 1.800224e-02
1.989164e-02 -1.361421e-02 -1.717533e-02
9.001295e-03 -8.785690e-04 1.765831e-02
-2.092590e-02 -5.751105e-03 8.162034e-03
2.094085e-02 -5.938959e-03 1.033805e-02
7.192304e-05 2.003777e-04 2.042249e-02
-5.474874e-05 -7.186121e-04 1.965972e-02
-6.581402e-03 -1.282806e-02 -3.322026e-02
1.392215e-02 1.725024e-02 -2.464610e-02
-9.123268e-04 2.387598e-02 -1.989284e-02
-1.466414e-02 -2.492381e-03 -3.368377e-02
1.309321e-02 -2.665110e-03 -2.937288e-02
8.027745e-03 -3.664361e-03 1.749863e-02
8.460730e-03 -2.778905e-03 1.880554e-02
2.363320e-02 -1.059055e-02 -1.988385e-02
-2.330799e-02 -8.842141e-03 -2.069779e-02
1.610774e-03 -1.797003e-03 -3.798991e-02
5.966690e-04 -1.567148e-04 2.030448e-02
-1.392666e-03 -9.438029e-04 -3.750472e-02
2.238182e-03 1.219901e-02 -3.341267e-02
1.644641e-02 1.682955e-02 -2.305209e-02
-4.678720e-03 9.792245e-03 1.802852e-02
1.264856e-04 1.190009e-03 -3.666556e-02
6.925487e-03 2.810372e-03 1.645218e-02
1.789902e-03 -2.325740e-02 6.277361e-03
-1.264542e-02 -2.441737e-02 -6.767571e-03
1.685782e-02 -1.777252e-02 -1.469369e-02
5.925250e-04 9.284450e-03 1.781454e-02
9.829509e-04 -5.505253e-04 2.025039e-02
-2.129052e-02 1.445149e-02 3.220497e-04
4.946552e-03 7.822667e-03 1.801340e-02
-1.803104e-02 -1.312360e-02 9.747155e-03
2.669070e-03 -9.654402e-03 1.740097e-02
-2.688667e-03 8.915567e-03 1.825511e-02
-4.019816e-03 8.086171e-03 1.787792e-02
-7.803648e-03 2.371529e-03 1.625431e-02
6.416000e-03 2.327638e-02 -1.966797e-02
-8.159429e-03 1.641687e-03 1.763322e-02
-1.987817e-02 1.884322e-02 -1.163911e-02
7.621876e-04 -4.327893e-05 1.975806e-02
-2.033744e-03 -2.722239e-02 -1.357137e-02
2.464908e-02 6.500566e-03 -1.630934e-02
-7.208503e-03 5.895608e-03 -3.491624e-02
3.172242e-04 -2.827276e-02 -1.357379e-02
1.519678e-03 -1.629248e-03 -3.469077e-02
2.253544e-02 1.127224e-02 -2.126014e-02
-2.063725e-02 9.694147e-03 -2.192337e-02
-1.687704e-02 -1.148982e-02 -2.884937e-02
-7.988901e-03 -2.349693e-03 1.844316e-02
8.608049e-03 -2.779996e-03 1.569736e-02
2.592113e-04 6.844878e-04 1.870025e-02
-1.948406e-02 7.723219e-03 -2.258314e-02
2.098032e-02 7.977318e-03 -2.169115e-02
1.525325e-02 -1.172549e-02 -2.696989e-02
-1.525905e-02 -1.060450e-02 -2.922721e-02
2.004062e-04 8.373283e-04 -3.725696e-02
5.404334e-03 -3.332190e-03 -3.619207e-02
-5.435235e-03 -3.727246e-03 -3.498336e-02
-1.985458e-02 -1.769478e-02 -1.597378e-02
2.961241e-03 2.737259e-02 -1.423116e-02
2.227241e-02 1.352580e-02 -1.420248e-02
6.537602e-04 -6.309865e-04 1.812105e-02
5.208529e-03 -7.498755e-03 1.750851e-02
-6.232691e-03 -7.245895e-03 -3.467301e-02
2.731321e-02 -1.039420e-03 -9.097765e-03
2.100364e-02 1.241663e-02 -1.570103e-02
-1.809301e-02 1.859637e-02 2.854799e-03
1.937641e-02 3.700011e-04 -2.458208e-02
-8.130748e-03 3.155121e-03 1.798551e-02
7.513355e-03 3.419011e-03 1.822151e-02
-2.162143e-02 -1.084177e-02 2.660680e-04
9.726685e-03 -1.539828e-02 -2.389093e-02
-1.406741e-04 3.536181e-04 1.937860e-02
1.234946e-02 -2.281716e-02 -9.383328e-03
-4.404573e-03 -7.746635e-03 1.702071e-02
-7.260566e-03 -5.775415e-03 1.840565e-02
2.061541e-02 -6.559653e-03 -2.230352e-02
-1.739386e-02 2.234043e-02 -4.560400e-03
-3.488832e-04 -2.150094e-02 -2.874028e-02
-1.425155e-02 2.187883e-02 -1.606742e-02
-2.146159e-02 7.352823e-03 -1.587951e-02
-1.347350e-02 -2.385722e-02 -4.457495e-03
-2.475264e-02 2.842552e-04 -1.748837e-02
-7.272447e-05 1.813667e-04 1.992494e-02
2.563760e-02 2.760769e-03 -1.897633e-02
-3.804196e-03 -3.162051e-03 -3.467571e-02
6.469992e-03 1.015774e-02 -3.352517e-02
-1.555796e-02 -1.986263e-02 -1.862332e-02
-2.027103e-02 -1.881241e-02 -1.645402e-02
-1.105613e-02 2.534571e-02 -1.030919e-02
-3.738502e-04 -7.277796e-04 -3.413585e-02
-2.030891e-02 1.509691e-02 1.446647e-03
-1.333713e-02 -1.310300e-02 -2.514307e-02
5.156903e-03 2.556582e-02 1.672579e-03
-1.078682e-02 5.367031e-04 1.716384e-02
-1.806062e-02 1.875722e-02 1.237120e-03
7.669524e-03 2.263190e-02 7.503473e-03
7.420699e-03 -4.127810e-03 1.753457e-02
-6.073071e-03 -7.680714e-03 1.774319e-02
7.531410e-03 1.909094e-02 -2.881689e-02
2.804369e-02 -3.787007e-03 -5.875960e-03
-2.708308e-02 -6.735218e-03 -1.429497e-02
-1.535102e-02 1.504689e-02 -2.515520e-02
-8.287742e-03 1.944947e-02 -2.823891e-02
-6.602093e-03 2.032780e-02 -2.813388e-02
-1.894078e-02 6.635513e-04 9.989037e-03
1.149700e-02 -2.625582e-02 -4.945976e-03
1.928287e-02 -1.669776e-02 -6.879802e-03
-8.589244e-03 2.526824e-03 1.892551e-02
8.306333e-03 2.271099e-03 1.648944e-02
-1.653663e-02 1.264143e-02 -2.633711e-02
-3.829787e-03 1.917216e-02 1.075992e-02
-8.663782e-03 1.608754e-02 9.695238e-03
-2.164471e-02 -9.560978e-04 9.564442e-03
-2.449257e-02 -4.807057e-03 6.949305e-04
1.115880e-02 2.385997e-02 -1.760201e-02
4.580773e-05 3.830209e-04 1.976050e-02
-2.714908e-02 -4.823752e-04 -9.612257e-04
-4.531079e-03 2.698502e-02 -1.475945e-02
-2.050235e-02 8.111765e-03 9.581438e-03
-6.919865e-03 -4.332868e-03 1.672526e-02
2.483218e-02 7.118703e-03 -7.264909e-03
-1.203303e-02 1.828963e-02 8.831791e-03
-3.317045e-03 2.154508e-02 9.442017e-03
1.755303e-02 -1.891798e-02 -1.495049e-02
-9.960211e-04 -2.018555e-02 7.037307e-03
-1.258154e-02 -1.472532e-02 1.098257e-02
2.174345e-02 -1.050636e-02 -1.745051e-02
-2.686774e-02 -8.536807e-04 -1.707289e-02
-2.329876e-02 -1.416992e-02 -1.789481e-03
2.384576e-02 -1.418038e-02 -2.347395e-03
-5.419365e-03 -4.692734e-03 -3.333891e-02
-5.969612e-04 9.022628e-03 1.816001e-02
-2.375303e-02 -7.678043e-03 -1.703479e-02
1.941759e-02 8.871282e-03 1.032737e-02
-1.925175e-02 8.416106e-03 1.033645e-02
7.804069e-03 2.018267e-02 1.102522e-02
-1.297161e-02 -1.198184e-02 1.032140e-02
1.396046e-02 -1.282332e-02 1.189731e-02
-1.581257e-02 4.075288e-04 -3.119853e-02
-2.493780e-02 -9.849640e-03 -1.464463e-02
-7.470654e-04 -7.939927e-03 1.844552e-02
2.457992e-04 1.087187e-02 -3.037960e-02
5.350778e-03 6.353198e-03 1.802543e-02
-1.691902e-02 -5.032326e-04 1.000114e-02
1.500626e-02 -2.941317e-04 1.204274e-02
2.642205e-03 -1.809525e-02 1.149110e-02
-1.793288e-02 -7.106834e-03 9.027062e-03
1.936150e-02 -5.247114e-03 1.030635e-02
-2.454584e-02 -9.485302e-03 -1.901430e-02
1.044418e-03 6.274131e-04 -3.370224e-02
1.601454e-03 6.154803e-03 -3.512358e-02
2.458499e-02 -3.424148e-03 -1.145418e-02
-2.727256e-02 -3.535729e-03 -1.203402e-02
1.477280e-02 2.209492e-02 -3.569843e-03
1.226779e-02 1.708553e-02 8.857079e-03
-3.870985e-03 -7.037147e-03 1.881648e-02
6.215000e-03 4.247765e-03 1.902236e-02
-2.546084e-03 -8.273069e-03 1.840149e-02
5.859403e-04 -7.184523e-03 1.908761e-02
-1.730046e-02 -2.155259e-02 -3.779620e-03
1.383971e-02 -1.447273e-04 -3.012460e-02
2.031831e-02 -1.696774e-02 -7.631207e-03
-2.178982e-02 -1.654004e-02 -6.452021e-03