# vtk DataFile Version 2.0
Electric current density generated by TTH
ASCII
DATASET UNSTRUCTURED_GRID
POINTS 2054 double
-2.306688e-05 -3.955214e-06 -4.028411e-22
2.073180e-05 6.776659e-06 1.643887e-06
1.337921e-05 1.506377e-05 -3.297490e-07
7.252443e-06 2.200245e-05 -8.498997e-07
-2.048623e-05 -1.325453e-06 1.092193e-06
-2.454314e-06 2.303759e-05 -8.481646e-07
1.088939e-05 -1.868287e-05 1.639249e-06
-2.180603e-05 1.364735e-06 -1.642265e-06
-1.994049e-05 -1.178382e-05 -8.578530e-07
1.264995e-05 1.625171e-05 1.161839e-06
1.828983e-05 9.484497e-06 1.169914e-06
-2.287823e-05 -4.930636e-06 -4.028411e-22
-1.402991e-07 -2.207573e-05 -1.613810e-06
-1.491390e-05 -1.600444e-05 -1.640531e-06
-7.846651e-06 1.937004e-05 1.402097e-06
-1.462187e-05 1.791373e-05 9.178355e-07
2.002292e-05 8.618345e-06 1.644234e-06
-1.423050e-06 2.178689e-05 -1.643035e-06
-1.706071e-05 -1.282509e-05 -1.591464e-06
1.933796e-05 -5.963714e-06 -6.230968e-07
-2.273475e-05 -4.419409e-06 -8.607301e-07
-1.817304e-05 1.429972e-05 9.165276e-07
-2.264836e-05 -5.897173e-06 -4.028411e-22
1.744836e-05 -1.000709e-05 -3.044868e-08
-4.085202e-06 -2.169002e-05 -1.614746e-06
1.615025e-05 -1.523819e-05 1.583224e-06
-2.027932e-05 8.697548e-06 1.615822e-06
1.791215e-05 -1.283911e-05 -1.620795e-06
-5.898048e-06 -2.130834e-05 -1.606886e-06
1.347019e-05 -1.726598e-05 -1.638749e-06
1.934953e-05 1.268035e-05 -9.017302e-07
1.618981e-05 -1.650715e-05 -9.211963e-07
-2.105413e-05 -2.668593e-06 -1.554859e-06
-2.237766e-05 -6.853083e-06 -4.028411e-22
-9.599417e-06 -1.781724e-05 6.279051e-07
1.578378e-06 2.309976e-05 -8.715279e-07
5.135484e-07 -2.318312e-05 -8.125117e-07
2.275793e-05 4.401416e-06 8.284338e-07
-2.277187e-05 4.377773e-06 -8.124364e-07
-2.047249e-05 1.087303e-05 -8.265982e-07
1.559024e-05 1.573513e-05 -1.597369e-06
5.727843e-06 -2.149907e-05 -1.569972e-06
9.117848e-07 -2.173683e-05 1.644721e-06
-1.162422e-05 -2.003195e-05 8.606837e-07
-2.206665e-05 -7.796643e-06 -4.028411e-22
-2.140089e-05 2.413086e-06 -1.629634e-06
-1.070632e-05 -2.052157e-05 8.828374e-07
4.443677e-06 -1.969109e-05 4.819509e-07
-5.361726e-06 1.938632e-05 1.152533e-08
-2.305303e-05 2.558260e-06 -8.023259e-07
3.348825e-06 2.293143e-05 8.369110e-07
-5.314916e-06 -2.255746e-05 8.360971e-07
6.286795e-06 1.923620e-05 -6.250431e-07
2.141103e-05 -5.164341e-06 1.623029e-06
-1.909279e-05 9.876136e-06 1.623573e-06
-2.171587e-05 -8.726153e-06 -4.028411e-22
1.720444e-05 1.101312e-05 -9.657682e-07
1.901083e-05 1.109626e-05 -1.625079e-06
-1.914236e-05 1.039300e-05 -1.644563e-06
-1.268409e-05 -1.600724e-05 9.602103e-07
1.029392e-05 2.075258e-05 8.524410e-07
-1.808319e-05 9.154966e-06 6.959679e-07
-1.333592e-05 -1.895760e-05 -8.305968e-07
-1.975960e-05 6.152838e-06 -1.254705e-06
-2.456747e-06 2.138831e-05 -1.628584e-06
-1.963824e-05 -6.193836e-06 1.159032e-06
-2.132595e-05 -9.639938e-06 -4.028411e-22
-2.232231e-05 -6.189345e-06 8.538980e-07
2.082066e-05 1.013288e-05 8.685908e-07
-2.731677e-06 -2.030447e-05 -1.043399e-06
6.143840e-06 2.232895e-05 8.632423e-07
-2.274148e-05 4.438812e-06 8.437007e-07
-2.008093e-05 1.154574e-06 8.482229e-09
-2.368409e-06 2.306306e-05 8.202994e-07
-1.440912e-05 1.612852e-05 1.639481e-06
-7.902878e-06 -1.857695e-05 4.878169e-07
-1.173716e-05 2.000118e-05 8.091855e-07
-2.089761e-05 -1.053635e-05 -4.028411e-22
-1.997629e-05 -2.537281e-06 2.723597e-07
-8.946317e-06 1.802693e-05 1.874025e-07
7.609574e-06 2.124332e-05 1.433517e-06
2.190192e-05 -2.389184e-06 -1.621899e-06
-4.160365e-07 2.072458e-05 1.282237e-06
-3.621932e-06 2.008950e-05 -9.460467e-07
2.639414e-06 2.050070e-05 -1.232659e-06
-4.214453e-06 -2.179798e-05 1.583979e-06
1.794157e-05 -1.459637e-05 -9.096535e-07
1.486617e-05 -1.669266e-05 1.533710e-06
-2.043160e-05 -1.141378e-05 -4.028411e-22
2.953229e-06 -2.000240e-05 5.786855e-07
1.758237e-05 1.345314e-05 -1.600222e-06
1.904692e-05 -6.929296e-06 6.951782e-07
-2.077009e-05 -3.715072e-06 1.506900e-06
-2.028819e-05 4.373685e-07 7.458348e-07
-1.806916e-05 1.089031e-05 1.505807e-06
2.197795e-05 -8.401787e-07 -1.627818e-06
2.106161e-05 7.664726e-07 1.496093e-06
-1.573065e-05 -1.703039e-05 -8.213089e-07
1.549826e-06 2.222132e-05 1.561517e-06
-1.992878e-05 -1.227063e-05 -4.028411e-22
-5.288718e-07 2.232569e-05 1.541624e-06
4.785416e-06 -2.262675e-05 9.123741e-07
-1.180277e-05 -1.995351e-05 -8.227918e-07
-2.010481e-05 3.559595e-06 9.518643e-07
1.851808e-05 -1.003230e-05 -1.489368e-06
1.155844e-05 2.007678e-05 8.510175e-07
2.305596e-05 2.297116e-06 -8.445680e-07
1.624869e-05 -1.498625e-05 -1.607987e-06
1.854469e-05 1.204356e-05 -1.606289e-06
2.010011e-05 7.491446e-07 0.000000e+00
-1.939004e-05 -1.310538e-05 -4.028411e-22
4.616153e-06 -2.164734e-05 -1.601342e-06
-9.406491e-06 1.932476e-05 -1.623026e-06
2.106215e-05 -7.513796e-07 -1.496093e-06
1.858961e-05 7.907284e-06 5.289777e-07
2.205839e-05 7.029536e-06 -8.750866e-07
-1.410820e-05 -1.724535e-05 1.559619e-06
1.921925e-05 6.052309e-06 -3.404560e-07
2.089300e-05 5.963993e-06 1.644427e-06
-1.547964e-06 2.203634e-05 1.610899e-06
-2.224507e-05 -1.538525e-06 1.553752e-06
-1.881636e-05 -1.391651e-05 -4.028411e-22
2.232435e-05 6.321704e-06 7.885357e-07
1.156278e-05 -1.715286e-05 1.246852e-06
1.447570e-05 1.446472e-05 -1.014166e-06
-1.875273e-05 1.357696e-05 -8.746882e-07
-1.026638e-05 1.805020e-05 1.310952e-06
1.506136e-05 -1.377833e-05 -9.453658e-07
1.822677e-06 2.209084e-05 -1.593543e-06
-2.163750e-05 5.448415e-06 -1.548564e-06
1.017650e-05 -1.921792e-05 1.644674e-06
2.116827e-05 -9.414545e-06 -8.490545e-07
-1.820877e-05 -1.470256e-05 -4.028411e-22
-2.313272e-05 -1.469891e-06 -8.289010e-07
-1.382968e-06 -2.316264e-05 -7.853775e-07
-5.227346e-06 1.998859e-05 -1.224555e-06
-1.701970e-05 -1.574857e-05 -8.137635e-07
-2.069098e-05 8.312802e-06 -1.553682e-06
-2.130392e-05 -6.213795e-06 1.586749e-06
1.320916e-05 -1.719163e-05 1.642848e-06
-2.307587e-05 2.458393e-06 7.806381e-07
-1.872057e-05 -1.020724e-05 -1.585790e-06
2.019740e-05 4.358270e-06 1.225871e-06
-1.756837e-05 -1.546211e-05 -4.028411e-22
8.455776e-06 1.959909e-05 1.591913e-06
1.879453e-05 -7.659552e-06 -7.507232e-07
1.893365e-05 -6.832240e-06 -2.185034e-07
-3.395677e-06 -2.295119e-05 -7.906112e-07
1.750374e-05 1.365414e-05 1.584589e-06
1.900686e-05 8.291328e-06 -1.288510e-06
1.089106e-05 2.050643e-05 -7.566346e-07
-1.910674e-05 1.186483e-05 -1.472786e-06
-1.606635e-05 1.527512e-05 -1.592791e-06
-7.880527e-06 1.966076e-05 -1.540012e-06
-1.689631e-05 -1.619380e-05 -4.028411e-22
-2.118157e-05 6.544636e-06 -1.592593e-06
-1.733114e-05 1.029964e-05 -3.885695e-07
-1.000701e-05 2.094199e-05 7.738951e-07
-1.765975e-05 -9.862499e-06 5.991951e-07
-1.854492e-05 -1.206477e-05 1.603657e-06
1.362887e-05 -1.870107e-05 -8.924145e-07
2.168784e-05 4.749140e-06 1.583959e-06
-9.974367e-06 -1.987540e-05 1.573428e-06
-1.440845e-05 -1.413745e-05 4.807731e-07
1.720339e-06 -2.219042e-05 -1.567450e-06
-1.619380e-05 -1.689631e-05 -4.028411e-22
-1.340358e-05 1.895140e-05 -7.696683e-07
1.962588e-05 -5.192808e-06 7.620063e-07
-1.110017e-05 1.870469e-05 1.644702e-06
1.742867e-05 -1.371678e-05 -1.590136e-06
-2.196397e-05 -7.403482e-06 -8.309557e-07
1.383952e-05 -1.551984e-05 1.332151e-06
1.419770e-05 1.836788e-05 -7.638643e-07
-1.302017e-05 1.563742e-05 8.459625e-07
6.301237e-06 -2.234268e-05 7.660195e-07
1.070026e-07 2.235323e-05 -1.533446e-06
-1.546211e-05 -1.756837e-05 -4.028411e-22
2.258400e-06 -2.306542e-05 8.351293e-07
1.258354e-06 -2.013018e-05 -4.232754e-07
2.160073e-05 -8.468035e-06 7.901606e-07
-2.138169e-05 -8.949430e-06 -8.294241e-07
2.194468e-05 3.893594e-06 -1.557456e-06
-1.048890e-06 2.008870e-05 8.103105e-08
-1.736638e-05 -1.405701e-05 -1.537631e-06
-1.489634e-05 -1.487907e-05 -1.486254e-06
-1.201150e-05 1.834017e-05 1.636460e-06
-1.415967e-05 -1.717768e-05 -1.566055e-06
-1.470256e-05 -1.820877e-05 -4.028411e-22
1.481767e-05 1.785158e-05 7.923961e-07
-2.097130e-05 -9.911665e-06 8.004163e-07
2.100311e-05 8.108515e-07 -1.468831e-06
1.890735e-05 -8.071489e-06 1.124070e-06
-1.009273e-05 1.981218e-05 1.574339e-06
-1.918484e-05 -6.280653e-06 -4.835168e-07
-1.964206e-06 2.010551e-05 5.282948e-07
-2.004633e-05 -3.654829e-06 -8.917116e-07
9.112931e-06 -2.135659e-05 -7.557654e-07
-2.041779e-05 2.325313e-06 -1.115077e-06
-1.391651e-05 -1.881636e-05 -4.028411e-22
7.276192e-06 -1.886805e-05 5.870779e-07
7.341520e-06 -1.942683e-05 -1.312611e-06
-1.689933e-05 1.114108e-05 6.343334e-07
-1.187079e-05 1.991872e-05 -8.143983e-07
1.700633e-05 -1.261889e-05 1.538264e-06
1.728968e-05 -1.129209e-05 1.215264e-06
1.397756e-05 -1.451496e-05 -3.458295e-07
-1.849613e-05 -7.935157e-06 -2.013112e-07
-2.153173e-05 -5.828475e-06 -1.550798e-06
-2.001899e-05 -9.838151e-06 -1.551093e-06
-1.310538e-05 -1.939004e-05 -4.028411e-22
-1.307242e-05 -1.688950e-05 1.595020e-06
3.877487e-06 2.089578e-05 1.564858e-06
8.466707e-06 -1.899214e-05 1.331956e-06
-1.268060e-05 -1.857123e-05 1.474476e-06
-2.312531e-05 -1.595657e-07 9.144657e-07
-1.883659e-05 -7.278574e-06 5.062676e-07
-2.025485e-05 -1.619513e-06 -7.959428e-07
2.000903e-05 -2.092358e-06 -1.155029e-07
1.623699e-05 1.203206e-05 -5.511543e-07
-2.766134e-06 2.012907e-05 -7.936780e-07
-1.227063e-05 -1.992878e-05 -4.028411e-22
1.086680e-05 1.822389e-05 1.553225e-06
-2.109311e-05 9.706345e-06 7.564814e-07
-1.005254e-05 -1.998270e-05 -1.527431e-06
1.830575e-05 -8.497155e-06 4.668708e-07
2.035065e-05 -5.817137e-06 -1.534074e-06
1.070077e-05 1.712652e-05 -5.085095e-07
1.943842e-05 -5.243679e-06 -2.505384e-07
1.775898e-05 -1.497307e-05 7.378188e-07
2.087555e-05 -3.137634e-06 1.511365e-06
1.999322e-05 9.861190e-06 1.555597e-06
-1.141378e-05 -2.043160e-05 -4.028411e-22
1.793843e-05 1.129538e-05 1.546317e-06
-2.095759e-05 4.037675e-06 -1.591297e-06
-1.261324e-05 1.687606e-05 1.493003e-06
-1.782662e-05 1.259206e-05 -1.643374e-06
1.956013e-05 -1.249975e-05 -7.684112e-07
-2.016140e-05 -6.482099e-07 4.320124e-07
-1.776143e-05 -1.497514e-05 7.313919e-07
-1.151987e-05 -1.934393e-05 -1.460919e-06
1.200490e-05 -1.980793e-05 -8.582109e-07
-1.842858e-05 -9.261375e-06 -1.191369e-06
[...]
POINT_DATA 2054
VECTORS 10.000GHz_fone_imag double
-6.218917e+09 2.533655e+10 8.627907e+08
1.020790e+10 -2.843978e+10 1.944302e+09
2.422392e+10 -2.461793e+10 -7.961229e+08
1.900838e+10 -8.337594e+09 -7.870533e+08
-2.198505e+09 5.104389e+10 -1.612408e+08
1.983496e+10 5.590396e+08 -2.748879e+08
-3.304308e+10 -2.055174e+10 -5.899629e+08
3.330267e+09 4.017624e+10 4.208559e+08
-1.722236e+10 2.932583e+10 6.796937e+08
2.911129e+10 -2.354236e+10 -3.115952e+08
2.147158e+10 -2.903446e+10 1.176313e+09
-2.485467e+09 2.325506e+10 -5.038850e+08
-2.314485e+10 1.331184e+09 2.253746e+09
-1.653634e+10 1.696631e+10 -1.287467e+09
3.610090e+10 1.646224e+10 2.029075e+09
1.522278e+10 1.329128e+10 -7.530841e+08
1.062614e+10 -3.162758e+10 2.376910e+09
2.745174e+10 1.977951e+09 -6.970974e+08
-1.740200e+10 2.665525e+10 -2.021341e+09
-1.305524e+10 -3.927015e+10 3.972096e+08
-4.935714e+09 2.006668e+10 -3.542372e+08
1.166164e+10 1.641770e+10 -2.905568e+08
-7.421920e+09 2.784597e+10 1.480889e+09
-1.646253e+10 -2.932720e+10 -1.279431e+09
-2.577085e+10 4.569814e+09 3.309055e+08
-1.701278e+10 -1.761404e+10 1.191759e+09
1.145056e+10 2.507184e+10 2.688077e+09
-1.549178e+10 -2.498263e+10 -3.591546e+08
-2.184924e+10 5.714584e+09 -3.567875e+09
-1.713634e+10 -1.348576e+10 -1.024480e+09
1.167592e+10 -2.026205e+10 -2.570594e+09
-1.273978e+10 -1.516840e+10 -1.385881e+09
-5.395184e+09 3.301476e+10 2.780822e+09
-5.518881e+09 1.943284e+10 7.651844e+08
-4.242919e+10 2.205883e+10 3.080263e+08
2.303379e+10 -1.540323e+09 3.209466e+09
-3.405033e+10 -1.116726e+09 3.585639e+08
6.626321e+09 -3.119030e+10 -1.759836e+09
6.388303e+09 2.024685e+10 1.340942e+09
8.316257e+09 1.710809e+10 1.369740e+09
1.895513e+10 -2.030562e+10 -2.783520e+09
-2.528197e+10 -4.626188e+09 1.128795e+09
-2.814633e+10 2.503520e+09 -1.771258e+09
-1.823706e+10 1.065753e+10 -2.481671e+09
-6.846946e+09 1.896502e+10 7.081648e+07
2.699273e+09 2.917948e+10 2.193743e+09
-1.566023e+10 7.803630e+09 1.655030e+09
-3.731058e+10 -6.446846e+09 -3.208955e+09
3.497512e+10 8.496378e+09 -1.051685e+09
2.557538e+09 2.390153e+10 6.986837e+08
1.991929e+10 -2.315347e+09 -1.660059e+09
-1.762100e+10 4.410748e+09 -7.665474e+07
3.540400e+10 -8.228658e+09 5.011576e+08
-3.614614e+09 -2.600578e+10 2.174488e+09
1.579251e+10 2.948756e+10 -1.350919e+09
-1.156505e+10 2.907498e+10 -1.074512e+09
1.605237e+10 -2.923382e+10 -1.957094e+09
1.714141e+10 -2.948433e+10 -8.745957e+07
1.462623e+10 2.774265e+10 1.017447e+09
-2.804519e+10 1.871391e+10 4.917386e+08
2.190598e+10 -6.921900e+09 3.972158e+08
1.225039e+10 2.676255e+10 7.268948e+08
-1.860759e+10 1.003014e+10 5.075267e+07
1.379199e+10 4.028465e+10 2.613360e+09
4.109109e+10 6.621030e+09 -5.403222e+08
-8.128154e+09 3.414535e+10 -2.795347e+09
-1.259024e+10 2.137424e+10 1.006835e+09
-7.862469e+09 2.826727e+10 -1.098981e+09
1.390322e+10 -2.996928e+10 5.519176e+08
-3.090894e+10 9.671588e+09 1.986186e+09
2.089402e+10 -5.538415e+09 1.411098e+09
3.806986e+09 1.908841e+10 1.168354e+07
1.513995e+09 4.076335e+10 -1.177149e+09
2.987634e+10 3.464306e+09 1.355563e+09
1.906895e+10 1.755297e+10 -1.698380e+08
-4.266328e+10 1.793326e+10 2.884175e+09
1.686212e+10 9.924999e+09 -8.521904e+08
-8.097497e+09 1.756912e+10 8.932232e+08
-6.392271e+09 3.073036e+10 -2.126204e+08
4.578729e+10 2.344426e+10 -2.624434e+09
2.145703e+10 -8.101749e+09 -1.772373e+09
-3.534266e+09 -3.811417e+10 -4.854470e+08
3.964119e+10 2.529271e+09 -3.260180e+09
3.532197e+10 8.050398e+09 -3.948955e+09
2.819653e+10 -2.171250e+09 -1.165842e+09
-2.498776e+10 7.533676e+09 -2.589614e+09
-1.725363e+10 -2.162745e+10 3.183256e+09
-1.720759e+10 -1.522418e+10 -4.420067e+08
-9.333281e+09 1.909347e+10 8.077023e+08
-3.026363e+10 -5.329034e+09 6.857738e+08
1.258560e+10 -1.693608e+10 -1.438621e+08
-1.021677e+10 -2.874136e+10 -2.582769e+09
-8.083970e+09 4.843529e+10 -7.370301e+08
1.529839e+08 4.851531e+10 6.084239e+08
1.754475e+10 2.379958e+10 -1.367241e+09
-1.336111e+09 -2.885044e+10 -2.149615e+09
9.216509e+08 -3.053007e+10 -8.301924e+07
-2.653275e+10 2.357836e+10 1.671719e+09
2.878131e+10 -3.103683e+09 -9.367973e+08
-1.064693e+10 1.670394e+10 1.863965e+09
2.425940e+10 1.235900e+09 -6.396655e+08
-2.280021e+10 -5.640574e+09 4.365074e+08
-1.872180e+10 1.279306e+10 3.112231e+09
9.412058e+09 3.114870e+10 1.190963e+09
-1.475151e+10 -2.284026e+10 -1.189658e+08
1.907480e+10 -1.235789e+10 7.244106e+08
4.442986e+09 -2.430326e+10 -1.914730e+09
-1.675328e+10 -1.919735e+10 2.119476e+08
1.568600e+10 -2.138630e+10 -1.717714e+09
1.308081e+09 -4.963849e+10 4.667859e+08
-1.677928e+10 2.340465e+10 1.976237e+09
-2.486193e+10 -3.637941e+09 -1.287934e+09
3.631974e+10 1.692481e+10 7.367304e+07
-6.490163e+08 -2.880519e+10 -9.407058e+08
1.280474e+10 -3.795265e+10 1.192383e+09
1.202061e+10 -3.424786e+10 1.042060e+09
-1.776647e+10 1.729525e+10 -1.037659e+09
1.066493e+10 -3.781864e+10 -4.398392e+09
1.254058e+10 -3.466552e+10 5.022556e+08
2.879929e+10 -2.741500e+08 2.591058e+08
-4.595584e+08 2.898945e+10 1.912540e+09
-1.563518e+10 1.716519e+10 -2.538929e+08
5.506326e+09 -2.612697e+10 3.010825e+09
-2.589276e+10 -2.075798e+10 -1.575085e+09
2.490219e+10 -2.169652e+10 1.507966e+08
1.465541e+10 1.993180e+10 3.804309e+08
2.857011e+10 1.271830e+10 9.457506e+08
-1.857164e+10 -2.657508e+10 4.462952e+08
2.619053e+10 -2.669476e+09 1.619094e+09
3.458043e+09 2.243163e+10 1.168673e+09
-2.760865e+10 -1.389010e+10 -1.778805e+09
-9.721717e+09 -1.951965e+10 2.567692e+09
-1.229028e+10 1.846567e+10 -2.461166e+08
-3.130232e+09 2.949585e+10 2.141666e+09
-2.930044e+10 3.186687e+09 -5.174812e+08
2.628845e+10 9.739479e+09 7.799740e+08
-1.847119e+10 1.766441e+10 8.929394e+08
1.163003e+10 3.297815e+10 -6.231275e+08
-1.042824e+10 3.175353e+10 -8.749682e+08
-1.920278e+10 -1.573999e+10 6.149320e+08
2.993654e+09 2.693924e+10 -1.887252e+09
-1.600165e+10 2.988267e+10 2.869910e+09
8.696739e+09 -3.380478e+10 4.746823e+09
-1.770270e+10 2.023304e+10 -3.475914e+08
3.674740e+10 -1.672340e+10 -2.002160e+08
-1.179689e+10 -2.471407e+10 -2.709551e+08
-1.089237e+10 -3.515790e+10 3.372783e+09
-2.370241e+10 7.576767e+08 1.433296e+09
1.753814e+10 -1.956863e+10 1.048598e+09
1.377701e+10 -3.316191e+10 -1.094353e+09
2.933555e+10 -1.478524e+10 1.650940e+09
1.388120e+10 2.176013e+10 -9.781692e+08
1.754019e+10 2.052066e+10 -1.157002e+09
4.022642e+10 1.315249e+10 1.527003e+09
-1.799065e+10 2.005071e+10 8.254562e+08
8.357530e+09 2.482542e+10 -1.920039e+09
2.108581e+10 2.752062e+10 4.672732e+09
2.623917e+10 1.386263e+10 -2.490675e+09
-1.400771e+10 2.536858e+10 2.207625e+09
-2.089225e+10 3.247547e+10 3.185898e+08
-2.037933e+10 -1.440136e+10 4.196113e+08
6.391699e+09 -3.402739e+10 -3.765615e+08
-2.248011e+10 1.230585e+10 2.826803e+09
-2.983121e+10 2.986074e+10 3.858863e+09
-3.918370e+10 -1.523811e+09 2.554493e+08
-2.467911e+10 2.354478e+10 1.602267e+09
1.659571e+10 1.074034e+10 -1.829277e+09
-1.124357e+10 -2.936874e+10 -3.661238e+09
2.105613e+10 1.307296e+10 -1.245522e+09
-2.140170e+10 -3.080851e+10 9.496938e+08
-9.484964e+09 3.052129e+10 -5.600509e+08
-2.199110e+10 -1.904843e+10 8.084777e+08
1.781772e+10 -1.666512e+10 1.765662e+09
2.236340e+10 2.046510e+10 2.833755e+08
-3.304730e+10 -1.013043e+10 -1.664007e+09
2.386852e+10 -6.264774e+08 8.802294e+08
-1.877025e+10 1.569766e+10 -5.933987e+08
-3.208983e+10 -3.240712e+09 -1.340859e+08
-3.076614e+10 -2.846612e+09 6.517187e+08
-6.244328e+09 -1.722907e+10 -1.568790e+09
-9.309345e+09 2.339004e+10 -7.403026e+08
3.466763e+09 -2.926691e+10 -8.764604e+08
3.650849e+10 3.150696e+08 -9.678977e+08
-1.374684e+10 1.751754e+10 2.737563e+09
-2.617606e+10 2.140558e+10 -1.279149e+09
2.028292e+10 1.352759e+10 3.823430e+08
-1.611121e+10 1.520767e+10 1.714145e+09
-2.276934e+10 1.808024e+10 1.071367e+09
1.614654e+10 -1.251215e+10 5.379437e+07
-1.087825e+10 1.864863e+10 -1.870965e+09
1.247318e+09 -3.355754e+10 1.734109e+08
-1.113650e+10 -2.725045e+10 5.509095e+08
3.077997e+10 1.672909e+10 -1.099085e+09
-1.236275e+10 3.884786e+10 1.143466e+09
3.992148e+10 3.836183e+09 -5.606721e+08
-5.760536e+09 3.679899e+10 -6.247482e+08
-2.744344e+10 -1.074625e+10 -3.214723e+08
5.927461e+09 3.888224e+10 4.562629e+09
-1.963696e+10 1.145157e+10 4.774994e+08
-3.853354e+10 -1.406470e+10 3.027333e+08
-3.433981e+10 -1.438682e+10 -1.617977e+09
2.697705e+10 3.895550e+10 3.369273e+08
1.679810e+10 9.607550e+09 -1.304567e+09
-2.152045e+10 -2.231078e+10 1.510386e+09
-1.391325e+10 -2.084554e+10 -4.230985e+08
-2.716422e+10 -2.348500e+10 -2.804463e+09
-1.288064e+10 3.633198e+10 2.544669e+09
-9.418885e+09 3.848393e+10 1.266516e+09
-1.036200e+10 2.263876e+10 1.410910e+09
-1.491335e+10 1.005868e+10 -1.702688e+08
-1.740494e+10 1.405895e+10 7.903479e+07
4.179217e+10 -8.316164e+09 -6.524564e+08
-3.962872e+10 -2.142302e+10 3.060173e+09
-1.864501e+10 1.318194e+10 -1.150621e+09
-8.584508e+08 3.304649e+10 -1.066525e+09
-1.498049e+10 3.467566e+10 -5.113255e+09
-4.870114e+09 5.008954e+10 -4.609054e+07
5.390043e+08 -3.607313e+10 1.315778e+09
2.724537e+10 -3.745533e+10 -7.636051e+08
4.891128e+10 8.140949e+09 -1.482509e+09
-1.620930e+10 1.072088e+10 -4.193523e+07
2.750221e+10 -1.576189e+10 3.744603e+09
9.702440e+09 1.984791e+10 1.913565e+09
-2.340846e+10 1.238162e+10 -1.921915e+09
-1.402519e+10 -3.007514e+10 7.600661e+08
-1.120963e+10 -3.443661e+10 8.314702e+08
3.171259e+10 -2.146028e+10 -3.651455e+09
-9.498659e+09 -3.274566e+10 -3.245267e+09
-2.069968e+10 -2.401132e+10 8.694747e+08
-6.086956e+09 -3.050838e+10 -9.213358e+08
1.048775e+10 -2.294144e+10 -8.040154e+08
-1.418014e+10 9.727112e+09 1.255540e+09
1.525000e+10 -2.358404e+10 2.886094e+09
6.610758e+09 2.655151e+10 -2.244313e+09
2.163670e+10 1.522938e+10 -1.777526e+08
2.084708e+10 2.789734e+10 2.226247e+08
-8.533705e+09 -1.551936e+10 -7.124308e+08
-1.544564e+09 3.602624e+10 7.891129e+08
-1.651968e+10 2.100244e+10 7.501406e+08
-2.080546e+10 1.237400e+10 3.055637e+09
-1.590290e+10 -1.207904e+10 -1.733870e+09
-1.655239e+10 3.005108e+10 1.094047e+09
-1.934794e+10 8.474347e+09 -1.712950e+09
-2.097199e+10 1.209643e+10 2.028832e+08
-2.264894e+10 1.016268e+10 -2.064558e+08
3.130003e+10 -1.305389e+10 -1.363698e+09
2.431112e+10 -1.598590e+10 4.377756e+08
-1.816913e+10 3.033056e+09 8.450725e+08
-2.349516e+10 -7.354975e+09 2.243564e+09
1.137670e+10 -1.769628e+10 9.338604e+08
-5.783492e+09 2.836979e+10 1.530113e+09
-3.623254e+10 2.716924e+09 -1.962459e+09
3.157857e+10 -8.645430e+09 9.318024e+08
-1.831870e+10 8.964825e+09 -3.357908e+08
-2.851233e+10 -2.123270e+10 2.570199e+09
-2.593393e+10 -1.807590e+10 5.625410e+08
-4.508073e+09 -2.786099e+10 1.296491e+09
1.736197e+10 -1.850517e+10 -1.009136e+08
-6.648446e+09 3.295656e+10 -6.121820e+07
9.235113e+09 3.859787e+10 -1.741692e+09
-3.518575e+10 -6.588712e+09 -2.284376e+09
-8.065699e+08 -2.516556e+10 -7.145080e+08
1.517692e+10 -1.981277e+10 8.552588e+08
-2.091206e+10 1.996456e+10 -7.667066e+08
-2.046879e+10 7.284054e+09 1.410997e+09
-3.780262e+10 7.725541e+08 5.431864e+09
2.809124e+10 7.671916e+09 4.669025e+08
-2.498120e+10 2.610410e+10 -2.077952e+09
-2.349827e+10 -3.252442e+10 4.470488e+08
-1.394614e+10 -2.184484e+10 -4.618260e+09
2.760556e+10 -1.245658e+10 -1.491881e+09
-2.750983e+10 -2.381172e+10 2.684956e+08
3.274196e+10 -5.834731e+09 -9.812218e+08
-1.966946e+10 -1.472704e+10 5.428843e+08
-2.554949e+10 1.258205e+09 2.894892e+09
-1.961069e+10 9.935944e+09 -8.559606e+08
-1.924277e+09 2.838544e+10 -5.014123e+08
-3.590969e+10 3.075054e+09 8.058359e+08
2.193078e+10 2.918402e+10 1.740795e+09
9.348812e+09 3.114330e+10 -1.072013e+09
-4.717289e+10 6.715044e+09 -1.117405e+09
1.807947e+10 8.098327e+09 5.109234e+08
4.872493e+10 -9.522228e+09 -1.238885e+09
2.741653e+10 -2.960403e+10 8.266668e+08
2.816250e+10 -2.993733e+10 2.717860e+08
4.729665e+10 1.241146e+10 3.213125e+09
-2.802399e+10 7.721054e+09 6.627349e+08
2.314053e+10 -7.756056e+09 -1.827748e+09
2.600702e+10 1.225696e+10 -3.078177e+09
2.102974e+10 1.948918e+10 -1.880693e+09
1.799329e+10 1.671062e+10 1.044949e+09
4.306706e+09 -3.223341e+10 1.097566e+09
3.257585e+10 1.360998e+10 4.958113e+08
1.120129e+10 2.372612e+10 9.784217e+08
2.966228e+10 -1.346046e+10 2.613147e+09
1.907525e+10 1.528345e+10 -9.326692e+08
3.072101e+10 -4.547103e+08 -3.300681e+08
-2.115691e+10 2.996614e+09 5.269177e+08
-3.559511e+10 -6.613469e+09 -6.405745e+08
3.778271e+10 -7.905009e+09 -1.155183e+09
-1.730655e+10 2.003819e+10 -6.102492e+08
2.281078e+10 2.762809e+10 3.490069e+08
1.166983e+09 2.689253e+10 1.217980e+08
2.891594e+09 -3.100933e+10 6.389555e+08
-2.101758e+09 -5.353049e+10 -1.627789e+09
-1.912741e+10 -2.267458e+10 -2.077863e+08
2.136079e+10 2.398222e+10 -1.169161e+09
-2.682094e+10 -1.368299e+10 1.997256e+09
-1.822834e+10 5.219314e+09 -4.560778e+08
1.928576e+10 -1.478032e+10 -1.695582e+08
-4.100806e+10 -1.353833e+10 5.288727e+08
7.578362e+09 -3.603598e+10 -1.426909e+09
6.146870e+09 -3.092028e+10 -1.858343e+07
-5.474261e+08 2.256708e+10 -2.344695e+08
2.326282e+10 3.522364e+10 2.227320e+09
2.890876e+10 -1.513531e+10 -1.943374e+09
-3.969630e+10 2.096840e+09 -4.907110e+09
-7.771658e+09 -2.390987e+10 3.311822e+09
1.886896e+10 3.772995e+10 -1.102025e+09
-2.821588e+10 5.150091e+09 -1.500924e+09
-1.143404e+10 -2.364242e+10 -6.182724e+08
2.016173e+10 2.135147e+10 2.176228e+09
2.548859e+10 4.195208e+09 9.545854e+07
2.515792e+10 -1.715216e+10 -8.322273e+08
2.328080e+10 1.246092e+10 -1.569582e+08
-3.170058e+10 -1.587970e+10 1.906880e+08
1.531546e+10 2.211747e+10 -1.905675e+08
-2.940019e+10 -1.103422e+10 8.715053e+08
3.065247e+10 -1.353327e+10 2.350140e+08
2.589717e+10 7.390551e+09 -9.010695e+08
-2.271050e+10 1.367693e+09 -1.260400e+08
1.034060e+10 -3.362646e+10 1.595338e+08
2.803973e+10 -4.109588e+09 -8.009870e+08
1.276163e+10 1.966461e+10 -2.251998e+08
-2.852742e+10 1.430297e+10 -1.375142e+09
2.387842e+10 -6.952286e+09 1.774278e+09
1.563393e+10 3.005457e+10 -1.874522e+09
2.084579e+10 -1.069558e+10 3.804673e+09
3.242177e+10 -2.175036e+10 1.587631e+09
2.180682e+10 -2.286046e+10 -9.441405e+08
-1.985733e+10 2.238281e+10 -2.747258e+08
-2.218747e+10 3.630561e+09 2.733615e+09
-1.380946e+10 2.263719e+10 3.409019e+09
-3.479352e+08 3.589051e+10 -9.211690e+08
-5.039378e+10 2.990555e+09 4.116975e+09
-6.256694e+09 -2.128070e+10 -1.153084e+09
1.831391e+10 -1.793457e+09 1.280966e+08
4.972597e+09 -2.858426e+10 1.814503e+09
-3.963453e+09 -3.121950e+10 -4.485320e+08
-3.360263e+10 1.546729e+10 -4.374707e+09
-8.262168e+09 -4.241630e+10 -1.121666e+09
2.563058e+10 8.225428e+09 -7.416333e+08
-2.146572e+10 1.910778e+09 -1.536283e+06
-1.557590e+10 1.690124e+10 -1.185083e+09
-1.071592e+10 2.823162e+10 1.740411e+09
2.274218e+10 -3.131772e+09 -9.152041e+08
-1.966403e+10 -2.716953e+10 -6.068678e+07
-1.430950e+10 3.554066e+10 -2.572927e+08
1.845682e+10 -9.632157e+09 -6.416858e+08
3.056054e+10 3.488334e+10 -7.354737e+08
1.863837e+10 -3.443130e+10 5.898603e+08
-3.169528e+10 2.946593e+08 1.121336e+08
-4.480907e+10 4.375172e+09 -1.229436e+09
-3.150452e+10 -6.829052e+08 -7.211050e+08
1.550366e+10 -1.576076e+10 6.669408e+08
1.837465e+10 1.586465e+10 -1.088485e+09
-1.875345e+10 1.383854e+09 -5.322013e+08
-2.033656e+10 2.995630e+10 1.072872e+09
-2.396823e+10 -8.341369e+09 6.055388e+08
2.415954e+10 2.534971e+10 -3.503721e+09
-3.541079e+10 1.360423e+10 -2.903634e+09
-1.004446e+10 2.302255e+10 2.274038e+09
-2.809497e+10 3.738359e+10 -9.933814e+08
1.495714e+10 1.277940e+10 -1.174255e+09
-2.387074e+10 -5.844955e+08 -1.165515e+09
-1.267356e+09 -2.087508e+10 4.350124e+08
1.770863e+09 -3.093355e+10 9.097571e+08
1.755609e+10 -3.473324e+09 2.939979e+09
-1.881153e+09 -2.559358e+10 2.763928e+08
-6.068810e+09 -3.518161e+10 -2.404016e+09
-3.476809e+10 -2.893289e+09 1.626234e+08
-3.759492e+09 1.914659e+10 1.196829e+09
-8.633459e+09 -3.647328e+10 9.540259e+08
1.783684e+09 4.626320e+10 5.341079e+08
-2.336746e+10 1.362172e+09 1.764372e+09
-3.110534e+10 -2.479565e+09 -5.014988e+08
-6.744781e+09 2.868802e+10 -1.481419e+09
2.200315e+10 8.092304e+09 -2.141620e+09
-2.442891e+10 8.568130e+09 2.959550e+09
1.711312e+10 -1.524556e+10 1.494766e+09
-6.056968e+09 -2.349713e+10 1.246399e+09
-1.593976e+10 -1.572531e+10 -1.242670e+08
-2.914951e+10 -1.919227e+10 1.274208e+09
2.069172e+10 2.545278e+10 -6.185120e+08
2.145032e+10 -3.711281e+09 1.954957e+09
1.386150e+09 -4.253122e+10 -2.343155e+08
-2.313243e+10 -3.993088e+09 1.514769e+08
-1.346100e+09 -2.903928e+10 -3.078553e+09
2.458632e+10 2.145786e+10 -3.299846e+08
-8.196747e+09 -2.721940e+10 -1.516117e+07
2.569312e+10 -2.088740e+10 -1.553055e+09
-4.313192e+10 -1.759338e+10 -2.130767e+08
-2.231742e+10 -1.381861e+10 -1.266454e+09
-1.262916e+10 -1.941354e+10 -9.320346e+08
-1.877986e+10 -1.925821e+10 -3.224273e+08
-4.973363e+10 7.231968e+09 -3.761517e+09
3.433607e+10 -2.337018e+10 1.154535e+09
-2.542908e+10 -4.562392e+09 -3.963011e+08
1.773711e+10 2.850181e+10 1.794939e+09
-1.518300e+10 -1.750586e+10 -3.529583e+08
-1.569502e+10 -1.419626e+10 -5.974110e+08
6.803500e+09 -3.397682e+10 2.649297e+09
-2.360066e+10 8.059655e+09 3.985333e+08
-2.822361e+09 2.628695e+10 1.355407e+09
-1.565421e+10 -2.288589e+10 -2.062445e+09
-4.641254e+09 -1.921476e+10 -1.302504e+09
1.429758e+10 2.510871e+10 4.787250e+08
1.069073e+09 3.121543e+10 -5.049267e+08
-2.244843e+10 -2.937473e+09 8.943642e+08
-1.318002e+10 -2.631052e+10 5.119469e+09
-3.021643e+10 8.680026e+09 9.112012e+08
3.860358e+10 -2.356492e+09 -9.493028e+07
3.115983e+10 -3.087570e+10 -3.039133e+09
3.684378e+10 -9.768486e+08 -2.670039e+09
4.327688e+10 2.030620e+10 5.311125e+08
-2.310896e+10 1.679372e+10 1.812593e+09
3.531913e+10 -3.540708e+09 4.323441e+08
-1.894794e+10 1.326589e+10 -3.121959e+08
1.542399e+10 3.619186e+10 -2.313080e+09
-3.264534e+10 -9.072140e+09 -2.089040e+09
-2.186643e+10 -1.519662e+10 9.277375e+08
-1.476266e+10 -2.359309e+10 4.215797e+07
4.089731e+10 -1.770971e+10 1.861202e+09
-5.397983e+09 -3.189975e+10 1.072440e+09
8.590053e+09 3.048245e+10 -1.137031e+09
1.583198e+10 3.411629e+10 4.612807e+08
-2.728165e+10 -3.080450e+09 3.921895e+08
-2.369119e+10 -5.264992e+09 -2.002173e+08
-1.165103e+10 -2.231594e+10 -4.708234e+08
2.371559e+10 -6.389692e+09 6.532067e+08
-2.563222e+10 -9.129010e+09 -8.305059e+08
2.401353e+10 -7.792764e+09 9.854400e+08
1.879235e+10 5.603587e+09 7.592564e+08
3.910140e+10 3.006397e+09 6.601095e+07
-3.493625e+10 -2.423157e+09 2.340100e+09
2.713409e+10 -1.981100e+10 1.920243e+08
-6.961553e+09 1.665262e+10 -3.170854e+08
-2.775046e+09 -3.082369e+10 -2.936773e+08
2.368799e+10 1.830135e+10 -2.133464e+09
-1.005813e+10 3.006981e+10 -1.019857e+08
3.634268e+10 7.393312e+09 7.150606e+08
-2.226753e+10 -7.670430e+09 6.625971e+08
-2.440098e+10 2.307457e+10 -3.812329e+09
1.454528e+10 -2.375869e+10 1.083077e+09
2.947050e+09 4.124200e+10 -6.554825e+08
-4.228607e+10 1.453459e+10 -1.714034e+09
2.086120e+09 -1.971441e+10 2.634637e+09
3.316763e+10 8.589746e+09 1.602469e+09
3.698569e+10 1.424917e+10 1.678253e+09
2.575646e+10 4.953536e+09 -1.482455e+09
-3.515523e+10 2.378416e+10 -3.865210e+08
1.826322e+10 1.778742e+10 -1.179612e+09
-2.646617e+10 -9.366619e+09 3.729828e+08
-9.445184e+09 -1.868404e+10 -4.414573e+08
2.325547e+10 -2.639299e+09 1.564343e+09
2.096324e+10 1.516521e+10 -1.006434e+09
-2.774570e+10 -8.882681e+08 -1.206563e+09
3.378615e+10 -1.527776e+10 1.196445e+09
-2.967349e+10 -1.845286e+10 3.610710e+08
1.569833e+10 9.057069e+09 -8.973251e+08
2.343437e+10 -2.094758e+10 2.213817e+08
4.291506e+09 3.327287e+10 2.557915e+07
1.470733e+10 -3.014266e+10 -5.010346e+08
-2.844585e+10 -1.277572e+10 -6.450875e+08
-2.415799e+10 -1.455443e+10 -2.843958e+09
2.734941e+10 5.482329e+09 2.138071e+09
5.332987e+10 4.738678e+09 6.955843e+07
-4.317640e+10 -5.863381e+09 1.848605e+08
-2.803033e+10 2.490849e+10 -1.106740e+09
-5.231557e+09 -3.382587e+10 -2.231563e+09
-4.364811e+10 -1.511406e+10 5.440054e+08
-2.520808e+10 1.106580e+10 -1.899663e+09
1.101664e+10 2.771980e+10 2.040641e+09
-1.845307e+10 -1.442828e+10 -8.028835e+08
-1.837437e+10 -1.198403e+10 -1.053465e+09
3.797525e+10 2.498608e+09 4.182282e+09
2.446050e+10 2.436929e+09 -1.125170e+09
1.578413e+10 -4.429882e+10 1.152137e+09
6.988811e+09 -2.341777e+10 -9.116103e+08
2.229830e+10 2.260751e+10 -8.390757e+08
-2.932031e+10 3.977910e+09 4.880314e+09
-4.229643e+10 -8.728349e+09 -2.379529e+09