# vtk DataFile Version 2.0
Electric current density generated by TTH
ASCII
DATASET UNSTRUCTURED_GRID
POINTS 3006 double
2.968090e-05 -7.269725e-21 -3.009308e-22
2.887426e-05 6.872657e-06 -3.009308e-22
-2.496917e-05 1.604671e-05 -3.009308e-22
2.528280e-05 1.486197e-05 -8.623488e-07
-1.768106e-05 -2.336517e-05 -8.883357e-07
2.077819e-05 1.879294e-05 -1.148660e-06
2.823137e-05 -7.842238e-06 8.889874e-07
-2.929559e-05 -1.072197e-06 8.745836e-07
-2.279371e-05 1.654300e-05 1.194405e-06
2.180854e-05 1.630124e-05 9.894734e-08
-2.488892e-05 -1.341462e-05 -1.215620e-06
-7.568429e-06 2.834824e-05 8.481865e-07
-1.322573e-05 2.620291e-05 -8.371858e-07
-2.537733e-05 1.539308e-05 -3.009308e-22
1.991402e-05 -1.914321e-05 9.065855e-07
6.736644e-09 2.929944e-05 -8.898578e-07
-1.707232e-05 -2.233398e-05 -1.180517e-06
1.087153e-05 2.722662e-05 -8.729364e-07
-1.834820e-05 -2.051549e-05 8.043117e-07
9.115391e-06 -2.646792e-05 1.139817e-06
-1.674500e-05 -2.147313e-05 -1.282122e-07
-1.557823e-05 2.336412e-05 1.171326e-06
2.081644e-05 2.063895e-05 -8.761109e-07
-2.561455e-05 -1.071203e-05 1.017931e-06
-2.576839e-05 1.472908e-05 -3.009308e-22
8.261651e-07 2.723567e-05 2.445187e-07
2.280258e-05 -1.663489e-05 1.207530e-06
1.178703e-05 -2.693085e-05 -7.850794e-07
1.627758e-05 2.236971e-05 -9.434563e-07
1.290244e-05 -2.400480e-05 -2.652017e-07
2.771623e-05 -8.763736e-07 9.939932e-07
1.451818e-05 -2.550248e-05 8.436972e-07
2.222814e-05 -1.678043e-05 -1.071419e-06
-1.823259e-05 -2.160335e-05 -1.214888e-06
-8.098761e-06 2.604707e-05 -3.585426e-07
-2.614209e-05 1.405516e-05 -3.009308e-22
-2.671208e-05 1.219906e-05 -8.215467e-07
2.693301e-05 -5.192952e-06 -6.801819e-07
1.258185e-05 2.414395e-05 -6.967886e-08
-2.788172e-05 -8.940587e-06 9.078748e-07
2.518828e-05 1.503579e-05 8.549081e-07
2.264105e-05 1.871806e-05 -8.094521e-07
-6.345878e-07 -2.794349e-05 -1.121603e-06
1.036605e-06 -2.805315e-05 1.168414e-06
-2.033407e-05 1.847517e-05 -7.430098e-07
5.933685e-06 -2.871097e-05 -8.720935e-07
-2.649816e-05 1.337175e-05 -3.009308e-22
-2.196681e-06 -2.785943e-05 -1.119445e-06
-1.173594e-05 2.686217e-05 8.758058e-07
1.884287e-05 -2.034645e-05 -9.949641e-07
-9.511689e-06 2.646988e-05 -1.184800e-06
-1.749810e-05 2.202563e-05 1.185700e-06
-5.778621e-06 2.872510e-05 8.887775e-07
-1.934758e-05 2.203871e-05 8.634621e-07
-3.913833e-06 -2.782967e-05 1.178114e-06
-1.185026e-05 2.688291e-05 -8.067869e-07
2.420707e-05 1.263158e-05 4.385740e-07
-2.683637e-05 1.267934e-05 -3.009308e-22
-1.664740e-05 -2.415102e-05 -8.569544e-07
2.282052e-06 2.923885e-05 8.620072e-07
-2.901152e-05 4.402284e-06 -8.455913e-07
-2.042413e-05 -1.802451e-05 -2.011228e-07
2.843684e-05 2.504048e-06 1.224995e-06
-2.738785e-05 6.736311e-06 1.203324e-06
1.394429e-05 2.406052e-05 -1.046918e-06
-2.811802e-05 8.507193e-06 -8.092112e-07
-2.729133e-05 -2.230989e-06 6.040535e-07
2.777152e-05 -4.244275e-06 -1.175241e-06
-2.715648e-05 1.197837e-05 -3.009308e-22
-4.325601e-06 2.774592e-05 1.171233e-06
-2.558016e-05 -9.389978e-06 2.491614e-07
-2.080123e-05 -2.069002e-05 8.505997e-07
-2.566728e-05 9.169058e-06 -2.795600e-07
-1.347057e-06 2.931035e-05 -8.480570e-07
-2.721935e-05 1.080309e-06 2.046525e-07
-1.053287e-05 2.744500e-05 -7.858073e-07
2.924242e-05 2.670539e-06 8.234627e-07
1.268012e-05 2.478012e-05 -1.062883e-06
1.993274e-05 -2.011672e-05 -1.221454e-06
-2.745830e-05 1.126934e-05 -3.009308e-22
2.699786e-05 1.149210e-05 8.473141e-07
-2.772086e-05 -9.573208e-06 -8.624479e-07
1.990147e-05 -2.071946e-05 1.197035e-06
-1.396189e-05 2.343306e-05 -3.587089e-07
2.765896e-05 -4.568333e-06 1.155145e-06
2.357710e-05 -1.589609e-05 -1.228526e-06
1.508408e-05 2.362175e-05 -1.152724e-06
6.825961e-07 -2.798016e-05 -1.137750e-06
-3.581874e-06 -2.775903e-05 -1.138028e-06
1.990691e-05 1.997502e-05 1.202641e-06
-2.774160e-05 1.055270e-05 -3.009308e-22
2.431075e-05 1.242349e-05 -4.296918e-07
-2.843745e-05 5.976251e-07 1.228614e-06
2.382566e-05 1.710242e-05 8.613697e-07
-1.435626e-05 -2.557879e-05 8.575037e-07
-2.833221e-05 7.688155e-06 8.314891e-07
1.319936e-05 2.620445e-05 -8.483181e-07
-9.887776e-06 2.614312e-05 1.121519e-06
-1.240732e-05 2.423608e-05 -9.583288e-08
-4.962665e-06 -2.890751e-05 -8.593311e-07
-1.258907e-05 -2.543239e-05 1.226376e-06
-2.800621e-05 9.828955e-06 -3.009308e-22
2.526121e-05 -1.025229e-05 -3.062261e-07
1.526667e-05 -2.507390e-05 -8.324158e-07
1.443739e-05 -2.551736e-05 -8.713247e-07
-2.496168e-05 -1.115032e-05 -5.195985e-07
2.601271e-05 1.112455e-05 -1.218098e-06
-2.363059e-05 -1.747843e-05 -7.912725e-07
2.653602e-05 -8.409112e-06 1.063231e-06
-2.484525e-05 -1.563283e-05 -8.342611e-07
1.670050e-05 -2.213910e-05 -9.951548e-07
-2.303509e-05 1.553963e-05 1.032701e-06
2.868611e-05 7.619935e-06 -3.009308e-22
-2.825194e-05 9.098583e-06 -3.009308e-22
2.235293e-05 -1.560549e-05 -3.024277e-07
-1.675252e-05 -2.283388e-05 1.221524e-06
2.451616e-05 1.623280e-05 -7.780465e-07
-1.677650e-05 2.405833e-05 -8.596447e-07
-5.212182e-06 2.894637e-05 -7.672570e-07
-2.769964e-05 -2.821530e-07 -9.722569e-07
1.930727e-06 -2.926830e-05 -8.577751e-07
6.677694e-06 2.733862e-05 1.188914e-06
-2.688092e-05 -4.639110e-06 3.624239e-07
2.463783e-05 -1.160560e-05 -1.624077e-07
-2.847862e-05 8.362077e-06 -3.009308e-22
-5.596984e-06 2.732630e-05 -1.094286e-06
2.589154e-05 -9.028695e-06 6.672647e-07
2.065080e-05 -1.800171e-05 6.268717e-07
2.605390e-05 -1.361080e-05 7.880483e-07
-2.850915e-06 2.730301e-05 -7.127038e-07
-1.034178e-05 2.748022e-05 8.260230e-07
-2.764296e-05 5.145346e-06 1.182229e-06
-2.376306e-05 -1.403728e-05 8.844353e-07
-1.914674e-05 1.942382e-05 3.489447e-07
2.832515e-05 -2.322557e-06 -1.228225e-06
-2.868611e-05 7.619935e-06 -3.009308e-22
-1.604488e-05 -2.204543e-05 3.202085e-07
-2.361383e-05 -1.519100e-05 1.170284e-06
-9.011061e-06 -2.577302e-05 -4.341662e-07
-2.224573e-05 1.739966e-05 -1.210550e-06
1.462610e-05 -2.366624e-05 -1.054135e-06
1.359267e-05 -2.439386e-05 -1.109887e-06
-8.825557e-07 -2.851567e-05 1.226224e-06
-1.638148e-06 2.850770e-05 -1.224363e-06
-1.496502e-05 -2.310020e-05 8.049337e-07
-1.266289e-05 2.525211e-05 -1.211749e-06
-2.887426e-05 6.872657e-06 -3.009308e-22
-2.575851e-05 -1.425578e-05 -7.303730e-07
-1.739730e-05 2.094244e-05 7.547065e-08
-2.925816e-05 2.191079e-06 8.493072e-07
-7.077412e-06 2.745822e-05 1.224840e-06
-2.414473e-05 -1.654217e-05 9.188316e-07
-2.702259e-05 4.057419e-06 -4.898750e-07
1.279509e-05 -2.493299e-05 1.151745e-06
1.817506e-05 2.030263e-05 -2.503704e-07
-2.716762e-05 2.727576e-06 -4.376184e-07
-1.157396e-05 -2.696227e-05 8.478846e-07
-2.904294e-05 6.120746e-06 -3.009308e-22
-1.070778e-05 -2.730775e-05 8.576203e-07
2.635836e-05 7.007640e-06 3.481733e-07
-2.602646e-05 -1.031180e-05 -1.140311e-06
-2.612387e-05 -9.319983e-06 -9.986937e-07
-2.010254e-05 1.842827e-05 3.382927e-07
-2.725146e-05 -6.584042e-07 -2.944195e-07
1.476624e-05 2.536751e-05 -8.364573e-07
1.372312e-05 2.444921e-05 1.156435e-06
-2.712542e-05 -3.214727e-06 4.655835e-07
1.989407e-05 1.858493e-05 4.660097e-08
-2.919205e-05 5.364709e-06 -3.009308e-22
1.401837e-05 -2.445702e-05 1.200265e-06
-1.244196e-05 2.507771e-05 1.140196e-06
7.856419e-06 -2.607939e-05 -1.812718e-07
7.673029e-06 -2.630490e-05 6.361913e-07
-4.383663e-06 2.794447e-05 -1.217371e-06
1.213531e-05 -2.444203e-05 -3.948766e-07
2.900048e-05 4.614027e-06 -8.222205e-07
-2.516970e-05 1.231127e-05 1.149828e-06
-8.407990e-06 -2.598359e-05 -4.527934e-07
2.361565e-05 1.752040e-05 -7.755954e-07
-2.932149e-05 4.605056e-06 -3.009308e-22
-2.123427e-05 -1.906414e-05 -1.225747e-06
-1.701036e-05 2.231533e-05 -1.164119e-06
2.697353e-05 -1.159886e-05 8.262127e-07
2.696273e-05 7.321237e-06 -1.116314e-06
-1.825648e-05 2.160006e-05 -1.216764e-06
-2.636014e-05 -1.299010e-05 7.973142e-07
-2.592175e-06 -2.923201e-05 8.423287e-07
-2.924746e-05 6.184726e-07 -9.310144e-07
-2.285490e-05 1.829981e-05 9.093559e-07
5.839330e-06 -2.667988e-05 -4.561189e-07
-2.943115e-05 3.842299e-06 -3.009308e-22
1.423695e-06 2.935193e-05 -7.980502e-07
-2.303333e-06 -2.789393e-05 1.137905e-06
1.684403e-05 2.405430e-05 -8.219594e-07
2.911192e-05 4.124228e-06 7.787244e-07
-2.022746e-06 -2.728677e-05 -5.657841e-07
-2.929424e-05 -7.080883e-07 -8.866570e-07
2.341327e-05 -1.769664e-05 -8.401034e-07
8.428917e-06 -2.701715e-05 -1.219354e-06
-1.723895e-05 2.379836e-05 7.984323e-07
2.550556e-05 -1.204386e-05 1.203745e-06
-2.952098e-05 3.076951e-06 -3.009308e-22
1.670251e-05 -2.417703e-05 -7.992390e-07
-2.483182e-05 -1.161857e-05 6.593338e-07
2.009187e-05 2.144025e-05 8.019125e-07
2.935962e-05 -1.885811e-06 7.568388e-07
2.601653e-05 8.017946e-06 3.125728e-08
-2.328464e-05 1.789990e-05 -8.172038e-07
-2.822143e-05 1.758342e-06 1.215957e-06
1.698760e-05 2.223875e-05 1.136177e-06
-2.516644e-05 -1.515831e-05 8.066975e-07
-9.180757e-06 2.609149e-05 9.387280e-07
-2.959091e-05 2.309530e-06 -3.009308e-22
-1.914478e-05 -1.940995e-05 3.084127e-07
2.717745e-05 -2.070983e-06 -2.812413e-07
2.388347e-05 -1.308975e-05 1.690312e-07
-1.879581e-05 2.257350e-05 -8.121162e-07
-2.240415e-05 1.663657e-05 -1.100322e-06
1.907494e-05 1.955688e-05 4.745158e-07
-6.005993e-06 -2.765553e-05 1.219195e-06
1.216812e-05 -2.673196e-05 8.156757e-07
1.315090e-05 -2.628387e-05 -7.935417e-07
2.214381e-05 1.933288e-05 7.870474e-07
2.847862e-05 8.362077e-06 -3.009308e-22
-2.964090e-05 1.540552e-06 -3.009308e-22
2.674573e-05 -6.087391e-06 -6.811858e-07
1.704015e-05 2.125267e-05 -2.027401e-07
2.690328e-05 5.438769e-06 7.071587e-07
3.001988e-06 -2.813252e-05 1.218177e-06
1.519406e-05 2.357650e-05 1.160358e-06
2.489261e-05 1.102428e-05 -4.817769e-08
1.800434e-05 2.319072e-05 8.288126e-07
1.952801e-05 -2.195770e-05 -7.996230e-07
-1.939539e-05 -2.017495e-05 -1.136686e-06
2.000575e-05 -2.153576e-05 7.888722e-07
-2.967090e-05 7.705358e-07 -3.009308e-22
8.210240e-06 2.711762e-05 1.222866e-06
-5.677683e-06 -2.880209e-05 8.319586e-07
-2.358802e-05 -1.361642e-05 1.741905e-07
2.667742e-06 -2.923559e-05 8.312145e-07
2.714946e-05 -8.454977e-06 -1.228529e-06
1.042942e-05 2.520587e-05 -3.626563e-07
1.603534e-05 -2.211688e-05 4.729229e-07
[...]
POINT_DATA 3006
VECTORS 10.000GHz_fone_imag double
-1.721025e-04 1.569853e-04 1.760745e-02
-1.431600e-04 -5.404268e-05 1.735307e-02
-4.258465e-04 9.389058e-04 1.727408e-02
1.154199e-02 6.648785e-03 1.230414e-02
-8.184469e-03 -1.119999e-02 1.218299e-02
1.499811e-02 1.361904e-02 -8.397297e-03
-1.338201e-02 3.579701e-03 1.241128e-02
1.364273e-02 3.128036e-04 1.262554e-02
1.683048e-02 -1.196813e-02 -5.836622e-03
-1.807768e-03 -1.613385e-03 -2.410893e-02
-1.825606e-02 -9.802161e-03 -3.774520e-03
3.799542e-03 -1.172563e-02 1.287032e-02
-5.901651e-03 1.151140e-02 1.266131e-02
-8.866352e-04 -3.522327e-04 1.728114e-02
-1.174906e-02 1.206112e-02 -1.553790e-02
2.132470e-04 1.389058e-02 1.187055e-02
-1.210839e-02 -1.631995e-02 -7.209790e-03
4.914552e-03 1.231911e-02 1.250084e-02
9.973634e-03 1.128374e-02 -1.804914e-02
-6.536782e-03 1.926519e-02 -8.254933e-03
-1.754737e-03 -1.503912e-03 -2.409832e-02
1.169215e-02 -1.647845e-02 -7.868930e-03
9.542100e-03 9.355268e-03 1.264769e-02
1.711426e-02 7.143703e-03 -1.380397e-02
2.312172e-04 -1.379402e-04 1.738131e-02
-2.643114e-04 -4.520559e-03 -2.387289e-02
-1.684811e-02 1.181626e-02 -4.663577e-03
4.621166e-03 -1.091483e-02 1.371190e-02
9.706946e-03 1.367746e-02 -1.521802e-02
2.491879e-03 -5.087938e-03 -2.380758e-02
-1.791371e-02 3.662564e-04 -1.397751e-02
-6.221746e-03 1.088086e-02 1.320182e-02
1.521230e-02 -1.155744e-02 -1.129874e-02
-1.344467e-02 -1.614635e-02 -3.748009e-03
-2.456786e-03 6.547031e-03 -2.289282e-02
6.789990e-05 3.381261e-05 1.734598e-02
-1.114605e-02 5.028135e-03 1.338478e-02
1.236505e-02 -2.761310e-03 -1.996249e-02
5.494163e-04 1.059703e-03 -2.429966e-02
1.369322e-02 4.308005e-03 1.154546e-02
-1.111831e-02 -6.848172e-03 1.263599e-02
9.645870e-03 7.815279e-03 1.335608e-02
-5.273388e-04 -1.971153e-02 -9.656668e-03
-8.319616e-04 2.027605e-02 -7.675302e-03
-1.008679e-02 9.230514e-03 -1.916976e-02
2.514105e-03 -1.308003e-02 1.256142e-02
-3.157359e-04 1.487922e-04 1.732790e-02
-1.162685e-03 -1.928611e-02 -1.039388e-02
5.242646e-03 -1.257237e-02 1.230091e-02
1.247932e-02 -1.324343e-02 -1.361626e-02
-7.478266e-03 1.904125e-02 -6.250472e-03
1.272399e-02 -1.619847e-02 -6.601137e-03
2.177680e-03 -1.285696e-02 1.270765e-02
8.601288e-03 -9.779494e-03 1.293053e-02
3.003839e-03 2.018129e-02 -7.079297e-03
-4.878135e-03 1.120919e-02 1.369549e-02
-7.321124e-03 -3.796154e-03 -2.267144e-02
-6.967601e-05 -1.672508e-04 1.744141e-02
-7.862584e-03 -1.065020e-02 1.272601e-02
-9.457477e-04 -1.286828e-02 1.329346e-02
-1.284908e-02 1.741392e-03 1.291477e-02
-3.094252e-03 -2.818066e-03 -2.368386e-02
-2.019470e-02 -1.644177e-03 1.079684e-03
2.008754e-02 -4.992078e-03 -5.208660e-03
8.490558e-03 1.633143e-02 -1.247990e-02
-1.151811e-02 3.504152e-03 1.367668e-02
1.126148e-02 9.371228e-04 -2.103649e-02
2.037099e-02 -3.099125e-03 -7.143807e-03
-3.660841e-05 -1.678940e-05 1.764986e-02
2.926716e-03 -2.023409e-02 -7.834836e-03
4.233379e-03 1.365256e-03 -2.395361e-02
8.820486e-03 9.037153e-03 1.317846e-02
-4.977925e-03 1.958355e-03 -2.354457e-02
-7.367313e-04 1.301046e-02 1.290765e-02
4.058398e-03 -2.985223e-04 -2.338128e-02
-4.101354e-03 1.103535e-02 1.376796e-02
-1.248075e-02 -1.199503e-03 1.354826e-02
9.126632e-03 1.672272e-02 -1.156011e-02
1.463428e-02 -1.466392e-02 -2.970625e-03
-2.058824e-04 -2.314247e-05 1.737349e-02
-1.144848e-02 -4.853928e-03 1.347824e-02
-1.270080e-02 -4.268466e-03 1.238088e-02
-1.310909e-02 1.424808e-02 4.199469e-03
-3.382433e-03 6.107811e-03 -2.280869e-02
-2.002841e-02 2.614756e-03 -7.992381e-03
1.692505e-02 -1.176687e-02 -1.213883e-03
1.113962e-02 1.675994e-02 -8.637377e-03
7.431660e-04 -1.975214e-02 -9.427957e-03
-3.070332e-03 -1.990167e-02 -9.185555e-03
-1.446775e-02 -1.507182e-02 -4.580586e-03
-1.348207e-04 2.297945e-04 1.732637e-02
7.105721e-03 3.625567e-03 -2.308666e-02
2.068055e-02 -2.284917e-04 -1.339097e-03
-1.076551e-02 -7.987015e-03 1.214641e-02
6.153792e-03 1.123357e-02 1.305743e-02
1.193614e-02 -3.283775e-03 1.327890e-02
5.865636e-03 1.161305e-02 1.295466e-02
6.811763e-03 -1.867319e-02 -1.013502e-02
-8.705444e-04 1.355043e-03 -2.424174e-02
-2.454328e-03 -1.251595e-02 1.307022e-02
9.254315e-03 1.852191e-02 -2.233528e-03
-3.894355e-05 -1.443309e-04 1.763453e-02
5.211189e-03 -2.299425e-03 -2.388056e-02
6.785453e-03 -1.111991e-02 1.319348e-02
6.416778e-03 -1.175848e-02 1.255106e-02
-8.842992e-03 -3.937631e-03 -2.186953e-02
1.924278e-02 8.047410e-03 -3.458146e-03
-9.088625e-03 -7.794480e-03 1.384120e-02
-1.817144e-02 5.899105e-03 -1.151444e-02
-1.073691e-02 -6.719827e-03 1.299567e-02
1.091336e-02 -1.320651e-02 -1.388390e-02
1.512507e-02 -1.026816e-02 -1.280918e-02
2.719957e-04 -1.445421e-04 1.726557e-02
-1.094232e-04 3.902413e-04 1.740402e-02
4.794047e-03 -3.538257e-03 -2.340320e-02
1.219702e-02 1.691048e-02 -2.949931e-03
9.798005e-03 6.504059e-03 1.404646e-02
-7.502166e-03 1.060835e-02 1.300238e-02
-2.218189e-03 1.162508e-02 1.402737e-02
-1.759238e-02 -4.592095e-04 -1.438376e-02
9.046790e-04 -1.288717e-02 1.304405e-02
-4.994558e-03 -2.003506e-02 -6.518969e-03
6.717847e-03 1.070090e-03 -2.303893e-02
3.261042e-03 -1.586813e-03 -2.404188e-02
-3.860278e-04 -3.548491e-04 1.734074e-02
-3.725503e-03 1.893176e-02 -1.084317e-02
-1.170996e-02 3.849037e-03 -1.989983e-02
-8.923407e-03 7.742255e-03 -2.036749e-02
-1.051298e-02 5.616450e-03 1.366309e-02
-1.336811e-03 1.299698e-02 -1.977156e-02
4.261436e-03 -1.179044e-02 1.348154e-02
2.009694e-02 -3.707672e-03 -6.570574e-03
1.384714e-02 8.228453e-03 -1.656863e-02
5.549091e-03 -4.916451e-03 -2.306835e-02
2.065354e-02 -1.784681e-03 -1.927566e-03
2.790598e-04 -6.530754e-05 1.749291e-02
3.849591e-03 4.619314e-03 -2.292723e-02
1.720528e-02 1.129602e-02 -7.582866e-03
-2.375705e-03 -7.446135e-03 -2.258102e-02
-1.629816e-02 1.277576e-02 -4.870843e-03
9.889752e-03 -1.595513e-02 -1.254001e-02
9.275760e-03 -1.741439e-02 -9.867438e-03
7.259958e-04 2.039112e-02 2.944019e-04
-1.359015e-03 2.031124e-02 1.144956e-03
7.290862e-03 1.220979e-02 -1.863529e-02
-9.402790e-03 1.861474e-02 -5.051140e-03
1.888587e-04 -3.107307e-04 1.744088e-02
-9.589107e-03 -5.245480e-03 1.425920e-02
5.896437e-04 -1.258288e-03 -2.417013e-02
1.327134e-02 -7.437750e-04 1.259599e-02
5.449478e-03 -2.013744e-02 -2.475715e-03
1.156044e-02 7.862349e-03 1.229313e-02
-9.069474e-03 1.879193e-03 -2.198113e-02
-9.405364e-03 1.810159e-02 -8.334427e-03
3.823860e-03 3.311011e-03 -2.361830e-02
-8.160728e-03 7.492652e-04 -2.243603e-02
5.372423e-03 1.182377e-02 1.274306e-02
3.515310e-04 7.703283e-05 1.766502e-02
5.033554e-03 1.229334e-02 1.284704e-02
-6.611137e-03 -1.780023e-03 -2.308137e-02
-1.852041e-02 -7.320122e-03 -9.192168e-03
-1.713705e-02 -6.121638e-03 -1.349915e-02
5.178276e-03 -4.470501e-03 -2.300383e-02
-5.348868e-03 5.290018e-04 -2.334418e-02
6.439069e-03 1.145226e-02 1.280531e-02
-9.461881e-03 -1.810206e-02 -7.610090e-03
8.819609e-03 1.222700e-03 -2.227696e-02
-5.928417e-04 1.931303e-04 -2.413250e-02
2.477357e-04 -2.103239e-04 1.749369e-02
-9.955150e-03 1.819868e-02 -5.205944e-03
8.966829e-03 -1.784538e-02 -9.293155e-03
8.858983e-04 -3.377673e-03 -2.426780e-02
-3.507730e-03 1.167005e-02 -2.055750e-02
-3.320579e-03 2.038178e-02 -4.113025e-03
3.593908e-03 -6.980121e-03 -2.280723e-02
1.231417e-02 1.512961e-03 1.353560e-02
1.853131e-02 -8.930393e-03 -7.912795e-03
-2.584532e-03 -8.265513e-03 -2.226191e-02
9.271096e-03 7.106593e-03 1.381453e-02
-2.612944e-04 -3.208395e-05 1.769925e-02
-1.511926e-02 -1.376872e-02 3.892092e-04
-1.218048e-02 1.604021e-02 -8.087063e-03
-1.156076e-02 4.985067e-03 1.331190e-02
1.917760e-02 5.129138e-03 -9.849784e-03
-1.340974e-02 1.565840e-02 -4.311953e-03
1.076274e-02 5.402365e-03 1.378591e-02
1.088049e-03 1.339121e-02 1.252927e-02
-1.474639e-02 1.936933e-04 1.136464e-02
1.094531e-02 -8.729004e-03 1.228950e-02
1.950887e-03 -8.952862e-03 -2.246701e-02
9.834900e-05 1.018133e-04 1.745388e-02
5.055391e-04 1.206694e-02 1.358281e-02
1.908206e-03 1.965359e-02 -9.476342e-03
7.175853e-03 1.007194e-02 1.347103e-02
-1.184705e-02 -1.664162e-03 1.370868e-02
-1.071126e-03 -1.076874e-02 -2.099794e-02
-1.353752e-02 -7.029771e-04 1.245108e-02
1.076953e-02 -8.081526e-03 1.240701e-02
6.096290e-03 -2.010295e-02 -3.137629e-03
6.986720e-03 -1.026351e-02 1.334096e-02
-1.864828e-02 8.727754e-03 -5.133811e-03
5.901600e-04 1.995675e-04 1.758913e-02
6.519503e-03 -9.943777e-03 1.373886e-02
1.145729e-02 5.472605e-03 -1.996059e-02
-7.734386e-03 -8.096953e-03 1.398304e-02
-1.126844e-02 4.964873e-04 1.421155e-02
5.685870e-05 -6.376022e-04 -2.420745e-02
-9.964621e-03 7.959347e-03 1.290862e-02
2.071739e-02 -1.430866e-03 -3.781419e-03
-1.235349e-02 -1.550014e-02 -9.409418e-03
1.018564e-02 6.219460e-03 1.361347e-02
5.535255e-03 -1.576618e-02 -1.545890e-02
-1.177383e-04 1.762060e-04 1.761109e-02
4.179527e-03 4.449645e-03 -2.342714e-02
5.541818e-03 -7.476167e-04 -2.310421e-02
-3.060126e-03 1.577887e-03 -2.389514e-02
-8.103262e-03 1.005067e-02 1.266293e-02
-1.588765e-02 1.143933e-02 -1.002029e-02
-6.357783e-03 -6.581983e-03 -2.239173e-02
4.195555e-03 2.020005e-02 -2.848660e-03
-4.936867e-03 1.091837e-02 1.354243e-02
5.612824e-03 -1.094684e-02 1.338680e-02
-8.752329e-03 -7.869636e-03 1.367732e-02
-1.510347e-04 2.529792e-04 1.740139e-02
-1.291261e-04 -1.430566e-04 1.765549e-02
1.280603e-02 -2.761860e-03 -1.963180e-02
3.135185e-03 2.826263e-03 -2.365320e-02
-1.268444e-02 -2.575452e-03 -1.948879e-02
-2.095665e-03 2.068870e-02 -3.400224e-03
-1.093316e-02 -1.710069e-02 -8.355492e-03
1.258816e-03 8.462992e-04 -2.422037e-02
-7.912699e-03 -1.041453e-02 1.300487e-02
8.252011e-03 -9.124349e-03 1.376837e-02
-1.395528e-02 -1.396864e-02 -9.029482e-03
-7.964054e-03 8.666572e-03 1.364460e-02
1.076686e-04 1.696423e-04 1.760485e-02
-6.036936e-03 -2.021019e-02 -2.567582e-03
2.511306e-03 1.221072e-02 1.317866e-02
3.404288e-03 1.535340e-03 -2.396595e-02
-1.657399e-03 1.277958e-02 1.293873e-02
1.985484e-02 -6.232614e-03 -7.604949e-04
2.318304e-03 6.839511e-03 -2.285217e-02
-5.020711e-03 7.268103e-03 -2.259707e-02
-1.043696e-02 8.030186e-03 1.292582e-02
1.822559e-02 1.012600e-02 -3.234039e-03
-4.830185e-03 1.366870e-02 -1.849348e-02
-6.779658e-04 6.528861e-04 1.733333e-02
3.394337e-03 1.093972e-03 -2.419675e-02
6.893136e-03 9.625297e-03 1.371823e-02
3.225420e-03 -5.474671e-03 -2.340001e-02
3.076458e-03 -1.133261e-02 1.380860e-02
-1.222621e-02 1.637455e-02 -2.638997e-03
-1.025066e-03 -1.900594e-02 -1.188135e-02
1.189267e-02 4.529953e-03 1.328345e-02
1.167616e-02 -1.724952e-02 -4.344971e-03
2.080263e-02 8.824274e-04 -1.662546e-03
-9.745734e-03 -4.601337e-03 1.447936e-02
-1.095952e-03 -4.334688e-04 1.738086e-02
1.007413e-02 1.787623e-02 -7.475637e-03
-9.305130e-03 -6.105563e-03 1.408644e-02
-1.147550e-02 1.695504e-02 -7.199019e-03
-8.676054e-03 -8.534513e-03 1.362259e-02
3.312733e-03 -4.641909e-03 -2.369503e-02
-6.885007e-03 1.060391e-02 1.320540e-02
-5.984222e-03 1.081157e-02 1.318146e-02
-9.795304e-03 1.795642e-02 -6.217349e-03
1.442718e-03 -4.081174e-03 -2.372615e-02
3.730641e-03 6.721351e-03 -2.267809e-02
-1.619118e-04 -4.591336e-05 1.746227e-02
5.194260e-03 -1.994169e-02 -1.905065e-03
-1.473807e-02 -7.638718e-03 -1.637061e-02
-3.753580e-03 -1.253408e-02 1.275792e-02
-5.659330e-03 -1.111081e-02 -2.041431e-02
-7.689346e-03 7.894942e-03 1.413517e-02
4.257071e-03 9.551767e-03 1.443131e-02
-8.224794e-03 7.464280e-03 1.425443e-02
1.899876e-02 -7.056549e-03 -7.961461e-03
1.886820e-02 -8.204485e-03 -6.114095e-03
1.258414e-04 -2.768680e-04 -2.444777e-02
-3.185506e-04 -1.096758e-05 1.755384e-02
8.186251e-03 -1.844086e-02 -8.331638e-03
-4.633551e-03 -1.122151e-02 1.352011e-02
-1.048726e-03 -2.009026e-02 1.606271e-03
-1.462283e-02 -1.052657e-02 -1.406513e-02
-1.605739e-02 1.334556e-02 -5.284824e-03
2.395548e-03 -9.526752e-04 -2.402710e-02
-1.962587e-02 -2.690051e-03 2.237362e-03
-2.028081e-02 -2.375811e-03 -5.661621e-03
-1.867079e-02 3.643270e-03 -1.203709e-02
1.185281e-02 1.922293e-03 1.378434e-02
-2.621931e-04 -4.017042e-04 1.736196e-02
1.039561e-02 4.189207e-03 1.418752e-02
1.512451e-02 -2.280853e-03 -1.741713e-02
2.008686e-02 1.345335e-03 -8.598108e-03
7.615256e-03 1.902746e-02 4.218861e-04
-1.552292e-02 -1.329631e-02 -6.937634e-03
-4.184056e-03 -1.153566e-02 1.343356e-02
4.074238e-03 -1.986309e-02 1.073492e-03
-8.097422e-03 -8.958876e-03 1.363871e-02
1.358695e-04 -2.056695e-02 -7.493661e-03
2.938108e-03 6.551425e-03 -2.278454e-02
-3.412665e-04 -1.207745e-06 1.752580e-02
2.983122e-03 -7.378755e-03 -2.255620e-02
1.209732e-02 2.333276e-03 -2.016102e-02
-9.467827e-05 1.349619e-02 1.268710e-02
2.009861e-02 5.527479e-03 -3.890183e-03
-6.462749e-04 4.935848e-03 -2.365943e-02
-2.147017e-03 1.109633e-02 1.428348e-02
7.051009e-03 -2.290005e-03 -2.292463e-02
1.023704e-03 -2.063525e-02 -5.837312e-03
1.837057e-04 9.836839e-03 -2.166807e-02
-1.039495e-03 -1.277134e-02 1.309505e-02
1.709733e-04 -2.856343e-04 1.752462e-02
1.283283e-02 -3.534674e-03 1.304119e-02
2.724652e-03 6.020601e-03 -2.334965e-02
1.770834e-03 -9.521149e-03 -2.179501e-02
7.323534e-03 9.477516e-03 1.367285e-02
1.496037e-03 1.213236e-02 1.361952e-02
-1.398690e-02 -2.953597e-03 1.165875e-02
-7.426939e-03 1.943604e-02 -4.772945e-03
-7.413155e-03 6.207151e-05 -2.274895e-02
8.077053e-03 1.811785e-03 -2.267771e-02
-1.149159e-02 -4.098679e-03 1.369497e-02
1.397422e-04 -1.827328e-04 1.733717e-02
1.782663e-02 1.071177e-02 -3.902918e-03
1.296804e-02 1.640728e-02 -1.559757e-03
1.572263e-03 -1.125302e-02 1.384137e-02
1.171988e-02 2.467377e-03 1.380163e-02
2.185023e-04 -1.102812e-02 1.469042e-02
-2.512489e-03 -2.065118e-02 -1.847999e-03
-1.070848e-02 -3.244329e-03 1.407834e-02
-1.238366e-02 -2.964327e-04 1.336662e-02
-5.406162e-03 1.120077e-02 -2.036159e-02
-1.420649e-02 -7.237018e-04 -1.844891e-02
-2.190256e-04 -3.060411e-04 1.744237e-02
3.560804e-04 1.621104e-04 1.750479e-02
-5.985148e-03 -9.305893e-03 1.450164e-02
4.442058e-03 -2.026808e-02 -3.724969e-03
-1.698993e-02 -1.181675e-02 -5.919026e-03
-1.240755e-02 1.647543e-02 -1.558382e-04
-1.328678e-02 1.472872e-02 -1.077951e-02
-1.033012e-02 -6.739849e-03 1.357838e-02
-1.726137e-02 7.612346e-03 -1.254006e-02
1.623593e-02 1.252992e-02 -7.857388e-03
-3.234940e-03 -1.125670e-02 1.392104e-02
1.907336e-02 -8.675395e-03 -4.543619e-03
-1.148911e-04 2.102570e-04 1.749073e-02
1.345615e-02 1.579526e-02 -6.684962e-03
9.219775e-03 -1.232137e-02 -1.673601e-02
3.682309e-03 -1.074436e-02 1.397692e-02
6.194034e-03 1.032884e-02 1.385802e-02
9.340296e-03 -9.672967e-03 -1.925762e-02
-1.720999e-02 1.118622e-02 -2.050686e-03
8.285699e-03 6.804970e-03 1.447763e-02
1.756619e-02 -9.957819e-03 7.098948e-04
8.993337e-04 -1.132870e-02 -2.055935e-02
9.666133e-04 -1.410836e-03 -2.427362e-02
-5.319487e-05 -1.996268e-04 1.740287e-02
3.160074e-03 -1.134956e-02 1.396777e-02
-4.926754e-03 -9.595293e-03 1.433584e-02
1.594280e-02 -2.909414e-04 1.012313e-02
-2.726969e-03 -1.134543e-02 1.407491e-02
-4.556071e-03 -1.100968e-02 1.376250e-02
1.784884e-02 8.768446e-03 2.742177e-03
-2.154682e-03 -3.583151e-03 -2.384279e-02
1.059187e-02 7.278680e-04 1.477473e-02
-2.393249e-03 -5.472775e-03 -2.342555e-02
6.481199e-03 5.157033e-03 -2.264012e-02
-1.698889e-05 2.409955e-04 1.745730e-02
1.163010e-02 -4.838867e-03 1.315656e-02
1.016520e-02 -6.498932e-03 1.365068e-02
1.401264e-03 -1.217399e-02 1.350488e-02
-9.958552e-03 3.928886e-03 -2.130401e-02
9.836879e-03 -4.312095e-03 1.446049e-02
-7.887368e-03 -1.541899e-03 -2.234910e-02
5.830749e-03 -8.937149e-03 1.458022e-02
8.797683e-03 1.878024e-02 -1.914557e-03
-9.063706e-03 4.130577e-03 1.480925e-02
-6.601319e-03 1.056578e-02 1.339436e-02
-1.568980e-04 -1.860492e-04 1.755987e-02
3.327634e-03 9.404606e-04 -2.401081e-02
-8.707884e-03 -8.261050e-03 1.348077e-02
-1.799366e-02 1.065107e-02 -4.701891e-03
-7.026532e-03 -9.548224e-03 1.372124e-02
1.992534e-02 -3.040607e-03 -7.927865e-03
1.696780e-04 1.946461e-03 -2.409649e-02
-7.055568e-03 9.189636e-03 1.338054e-02
7.388034e-04 2.148331e-03 -2.416521e-02
1.143622e-02 2.835710e-03 1.384608e-02
-1.399535e-03 -1.177118e-02 1.387296e-02
3.981449e-04 -1.475409e-05 1.743311e-02
1.878658e-02 8.702477e-03 -4.563542e-03
-8.350650e-03 -6.675261e-03 1.453775e-02
-1.730806e-02 1.130701e-02 -2.061214e-03
2.439539e-03 -7.313415e-04 -2.405250e-02
1.866928e-03 7.610970e-03 -2.254323e-02
-1.783237e-03 1.250983e-02 1.329698e-02
3.083838e-03 1.284731e-02 1.260173e-02
-6.114606e-03 -1.983529e-02 -5.288563e-04
9.146193e-03 -4.932437e-03 1.479918e-02
8.384172e-03 -1.792814e-02 3.244889e-03
-8.571583e-05 -4.339864e-05 1.767554e-02
7.122167e-03 8.119726e-03 1.449697e-02
2.469930e-03 1.140071e-02 -2.095318e-02
-1.513509e-02 -7.749913e-03 -1.542996e-02
-9.766638e-03 6.905274e-03 1.359905e-02
1.026421e-02 -5.458537e-03 1.387841e-02
-1.803488e-02 9.921491e-03 -3.439470e-03
3.356967e-03 1.325535e-02 -1.908022e-02
-8.214935e-03 -2.403677e-04 -2.257343e-02
-1.836478e-03 -1.168903e-02 1.397049e-02
-6.949948e-04 1.134903e-02 -2.081447e-02
-7.413678e-05 -2.173986e-05 1.762299e-02
-7.956561e-03 -1.897988e-02 -6.212363e-03
6.622038e-03 1.946917e-02 -4.147733e-04
5.344157e-04 -1.163262e-02 1.404301e-02
-3.013362e-03 1.124699e-02 1.434590e-02
-7.156617e-03 -1.939030e-02 -6.582546e-03
8.641343e-03 1.928843e-02 -2.517125e-03
-5.381280e-03 -1.340530e-02 -1.863293e-02
-4.705440e-03 2.023349e-02 -1.727329e-03
1.198117e-02 -1.492865e-03 1.368480e-02
-9.446880e-03 6.769439e-03 1.342374e-02
6.412079e-05 -1.000447e-04 1.759210e-02
-1.506788e-02 -1.416570e-02 -3.799300e-03
8.731097e-03 -5.809860e-03 1.469325e-02
-1.711694e-02 1.161168e-02 -3.160294e-03
-1.056377e-03 1.204310e-02 1.359615e-02
-1.325693e-03 9.185192e-03 -2.225782e-02
1.947931e-02 6.724712e-03 -5.994086e-03
-8.546207e-03 6.175748e-03 1.463448e-02
2.132006e-03 1.146308e-02 1.381008e-02
-2.047657e-02 -3.384266e-03 -2.931174e-03
-1.965628e-02 -6.469112e-03 -2.349483e-03
-5.088761e-05 3.279179e-04 1.722885e-02
1.972941e-02 2.430201e-03 -9.897134e-03
1.101602e-02 3.175735e-03 1.413384e-02
-5.072153e-03 -2.009379e-02 -8.597012e-04
7.623902e-03 -1.956890e-02 -1.760103e-03
-1.168073e-02 -1.403712e-03 1.397349e-02
-1.110240e-02 -1.668341e-02 2.071651e-03
7.243621e-04 -5.431383e-04 -2.438637e-02
-1.970102e-02 6.704128e-03 -4.619199e-03
4.274925e-03 1.453726e-02 -1.797515e-02
-1.980533e-02 -5.393429e-03 -3.949225e-03
1.668824e-04 4.205081e-05 1.737205e-02
3.134207e-04 -6.609386e-06 1.742435e-02
9.242771e-03 -1.881409e-02 -1.358996e-03
-2.051073e-02 -2.397040e-03 -1.288095e-03
-2.066695e-02 4.450160e-04 -7.175179e-04
1.093967e-02 1.014385e-02 -1.775450e-02
1.417002e-02 1.513856e-02 -4.503561e-03
-3.341119e-03 1.871531e-02 -1.140793e-02
-1.990869e-02 -5.509483e-03 -5.193397e-03
-2.876780e-03 3.407992e-03 -2.410331e-02
6.322186e-03 -1.160666e-02 -2.004411e-02
6.329534e-03 -8.364470e-03 -2.150207e-02
-1.335639e-04 2.389456e-04 1.745785e-02
-1.067166e-02 -2.213122e-03 1.440178e-02
3.291161e-03 -2.040523e-02 -1.913621e-03
1.121805e-03 -1.165886e-02 1.375099e-02
1.561558e-02 1.331138e-02 1.082678e-03
4.616298e-03 -1.018139e-02 -2.090400e-02
-7.828997e-03 -8.727439e-03 1.395596e-02
-1.031120e-02 -1.790896e-02 -5.277316e-03
-9.136888e-04 1.096453e-02 1.473926e-02
-1.839930e-02 9.396116e-03 -3.745377e-03
-2.561017e-03 -1.173990e-02 -2.062034e-02
-3.459834e-04 -2.996134e-05 1.729050e-02
1.062935e-02 -3.247069e-03 1.435398e-02
-7.403404e-03 8.154085e-03 1.429411e-02
-1.144673e-02 1.447324e-03 -2.087464e-02
8.922348e-03 -7.838280e-03 1.380017e-02
-5.738463e-03 1.076062e-02 1.345190e-02
-1.006502e-02 2.782834e-03 1.481101e-02
1.494644e-02 -1.441144e-02 -4.548941e-03
8.572148e-03 -5.259528e-03 1.495219e-02
-1.038042e-02 5.254577e-03 1.362461e-02
1.041474e-03 1.007853e-02 -2.149187e-02
-2.862629e-04 -1.606535e-05 1.747428e-02
-3.159978e-04 -1.164363e-02 -2.055197e-02
1.966089e-02 -4.287263e-03 1.162155e-03
-1.230503e-02 -1.478148e-02 -1.168637e-02
2.300375e-03 9.683376e-03 -2.175193e-02
2.461586e-03 9.370788e-03 1.488433e-02
1.197695e-02 -6.478533e-03 -1.952018e-02
2.940275e-03 1.052736e-02 1.422931e-02
-2.364828e-03 -1.131098e-02 1.396775e-02
-4.945886e-03 -1.097320e-02 1.353125e-02
1.008998e-02 4.258411e-03 1.442186e-02
-6.701612e-04 -5.042167e-04 1.733357e-02