# vtk DataFile Version 2.0
Electric current density generated by TTH
ASCII
DATASET UNSTRUCTURED_GRID
POINTS 3167 double
-1.302664e-05 2.666951e-05 -3.009308e-22
2.140513e-05 -1.992564e-05 9.395410e-07
3.683701e-06 2.697510e-05 6.727949e-08
-2.163311e-05 1.974964e-05 8.965950e-07
2.275009e-05 1.508395e-05 -4.165238e-07
2.690681e-05 8.275262e-06 -1.191036e-06
-2.645108e-05 -6.445538e-06 5.967340e-08
-2.158909e-05 -1.789228e-05 1.157293e-06
7.448241e-06 2.673344e-05 -1.009298e-06
1.925751e-05 -1.928017e-05 2.544668e-07
1.823378e-05 -2.124305e-05 -1.140512e-06
-1.371461e-05 2.632234e-05 -3.009308e-22
-1.862193e-05 -2.262226e-05 8.884637e-07
-2.746083e-05 1.024843e-05 8.788337e-07
-2.662716e-05 5.735937e-06 1.871939e-07
-1.586828e-05 2.469153e-05 8.378850e-07
2.901996e-05 -4.110511e-06 -8.800507e-07
-2.009968e-05 -1.893342e-05 -8.972263e-07
-1.831321e-05 2.287983e-05 8.832608e-07
2.331149e-05 -1.420276e-05 4.191503e-07
2.515236e-05 -1.492483e-05 9.369233e-07
5.920693e-06 2.678406e-05 6.825424e-07
-1.439333e-05 2.595743e-05 -3.009308e-22
-2.285007e-05 -1.638079e-05 1.181462e-06
2.528280e-05 1.486197e-05 -8.623488e-07
-1.768106e-05 -2.336517e-05 -8.883357e-07
2.077819e-05 1.879294e-05 -1.148660e-06
2.823137e-05 -7.842238e-06 8.889874e-07
-2.929559e-05 -1.072197e-06 8.745836e-07
-2.279371e-05 1.654300e-05 1.194405e-06
2.180854e-05 1.630124e-05 9.894734e-08
-2.488892e-05 -1.341462e-05 -1.215620e-06
-7.568429e-06 2.834824e-05 8.481865e-07
-1.506235e-05 2.557502e-05 -3.009308e-22
-1.322573e-05 2.620291e-05 -8.371858e-07
1.991402e-05 -1.914321e-05 9.065855e-07
6.736644e-09 2.929944e-05 -8.898578e-07
-1.707232e-05 -2.233398e-05 -1.180517e-06
1.087153e-05 2.722662e-05 -8.729364e-07
-1.834820e-05 -2.051549e-05 8.043117e-07
9.115391e-06 -2.646792e-05 1.139817e-06
-1.674500e-05 -2.147313e-05 -1.282122e-07
-1.557823e-05 2.336412e-05 1.171326e-06
2.081644e-05 2.063895e-05 -8.761109e-07
-1.572122e-05 2.517537e-05 -3.009308e-22
-2.561455e-05 -1.071203e-05 1.017931e-06
8.261651e-07 2.723567e-05 2.445187e-07
2.280258e-05 -1.663489e-05 1.207530e-06
1.178703e-05 -2.693085e-05 -7.850794e-07
1.627758e-05 2.236971e-05 -9.434563e-07
1.290244e-05 -2.400480e-05 -2.652017e-07
2.771623e-05 -8.763736e-07 9.939932e-07
1.451818e-05 -2.550248e-05 8.436972e-07
2.222814e-05 -1.678043e-05 -1.071419e-06
-1.823259e-05 -2.160335e-05 -1.214888e-06
-1.636949e-05 2.475875e-05 -3.009308e-22
-8.098761e-06 2.604707e-05 -3.585426e-07
-2.671208e-05 1.219906e-05 -8.215467e-07
2.693301e-05 -5.192952e-06 -6.801819e-07
1.258185e-05 2.414395e-05 -6.967886e-08
-2.788172e-05 -8.940587e-06 9.078748e-07
2.518828e-05 1.503579e-05 8.549081e-07
2.264105e-05 1.871806e-05 -8.094521e-07
-6.345878e-07 -2.794349e-05 -1.121603e-06
1.036605e-06 -2.805315e-05 1.168414e-06
-2.033407e-05 1.847517e-05 -7.430098e-07
-1.700673e-05 2.432545e-05 -3.009308e-22
5.933685e-06 -2.871097e-05 -8.720935e-07
-2.196681e-06 -2.785943e-05 -1.119445e-06
-1.173594e-05 2.686217e-05 8.758058e-07
1.884287e-05 -2.034645e-05 -9.949641e-07
-9.511689e-06 2.646988e-05 -1.184800e-06
-1.749810e-05 2.202563e-05 1.185700e-06
-5.778621e-06 2.872510e-05 8.887775e-07
-1.934758e-05 2.203871e-05 8.634621e-07
-3.913833e-06 -2.782967e-05 1.178114e-06
-1.185026e-05 2.688291e-05 -8.067869e-07
-1.763250e-05 2.387574e-05 -3.009308e-22
2.420707e-05 1.263158e-05 4.385740e-07
-1.664740e-05 -2.415102e-05 -8.569544e-07
2.282052e-06 2.923885e-05 8.620072e-07
-2.901152e-05 4.402284e-06 -8.455913e-07
-2.042413e-05 -1.802451e-05 -2.011228e-07
2.843684e-05 2.504048e-06 1.224995e-06
-2.738785e-05 6.736311e-06 1.203324e-06
1.394429e-05 2.406052e-05 -1.046918e-06
-2.811802e-05 8.507193e-06 -8.092112e-07
-2.729133e-05 -2.230989e-06 6.040535e-07
-1.824639e-05 2.340994e-05 -3.009308e-22
2.777152e-05 -4.244275e-06 -1.175241e-06
-4.325601e-06 2.774592e-05 1.171233e-06
-2.558016e-05 -9.389978e-06 2.491614e-07
-2.080123e-05 -2.069002e-05 8.505997e-07
-2.566728e-05 9.169058e-06 -2.795600e-07
-1.347057e-06 2.931035e-05 -8.480570e-07
-2.721935e-05 1.080309e-06 2.046525e-07
-1.053287e-05 2.744500e-05 -7.858073e-07
2.924242e-05 2.670539e-06 8.234627e-07
1.268012e-05 2.478012e-05 -1.062883e-06
-1.884798e-05 2.292836e-05 -3.009308e-22
1.993274e-05 -2.011672e-05 -1.221454e-06
2.699786e-05 1.149210e-05 8.473141e-07
-2.772086e-05 -9.573208e-06 -8.624479e-07
1.990147e-05 -2.071946e-05 1.197035e-06
-1.396189e-05 2.343306e-05 -3.587089e-07
2.765896e-05 -4.568333e-06 1.155145e-06
2.357710e-05 -1.589609e-05 -1.228526e-06
1.508408e-05 2.362175e-05 -1.152724e-06
6.825961e-07 -2.798016e-05 -1.137750e-06
-3.581874e-06 -2.775903e-05 -1.138028e-06
-1.943686e-05 2.243133e-05 -3.009308e-22
1.990691e-05 1.997502e-05 1.202641e-06
2.431075e-05 1.242349e-05 -4.296918e-07
-2.843745e-05 5.976251e-07 1.228614e-06
2.382566e-05 1.710242e-05 8.613697e-07
-1.435626e-05 -2.557879e-05 8.575037e-07
-2.833221e-05 7.688155e-06 8.314891e-07
1.319936e-05 2.620445e-05 -8.483181e-07
-9.887776e-06 2.614312e-05 1.121519e-06
-1.240732e-05 2.423608e-05 -9.583288e-08
-4.962665e-06 -2.890751e-05 -8.593311e-07
-2.001264e-05 2.191918e-05 -3.009308e-22
-1.258907e-05 -2.543239e-05 1.226376e-06
2.526121e-05 -1.025229e-05 -3.062261e-07
1.526667e-05 -2.507390e-05 -8.324158e-07
1.443739e-05 -2.551736e-05 -8.713247e-07
-2.496168e-05 -1.115032e-05 -5.195985e-07
2.601271e-05 1.112455e-05 -1.218098e-06
-2.363059e-05 -1.747843e-05 -7.912725e-07
2.653602e-05 -8.409112e-06 1.063231e-06
-2.484525e-05 -1.563283e-05 -8.342611e-07
1.670050e-05 -2.213910e-05 -9.951548e-07
-2.057493e-05 2.139225e-05 -3.009308e-22
-2.303509e-05 1.553963e-05 1.032701e-06
2.235293e-05 -1.560549e-05 -3.024277e-07
-1.675252e-05 -2.283388e-05 1.221524e-06
2.451616e-05 1.623280e-05 -7.780465e-07
-1.677650e-05 2.405833e-05 -8.596447e-07
-5.212182e-06 2.894637e-05 -7.672570e-07
-2.769964e-05 -2.821530e-07 -9.722569e-07
1.930727e-06 -2.926830e-05 -8.577751e-07
6.677694e-06 2.733862e-05 1.188914e-06
-2.688092e-05 -4.639110e-06 3.624239e-07
-2.112335e-05 2.085090e-05 -3.009308e-22
2.463783e-05 -1.160560e-05 -1.624077e-07
-5.596984e-06 2.732630e-05 -1.094286e-06
2.589154e-05 -9.028695e-06 6.672647e-07
2.065080e-05 -1.800171e-05 6.268717e-07
2.605390e-05 -1.361080e-05 7.880483e-07
-2.850915e-06 2.730301e-05 -7.127038e-07
-1.034178e-05 2.748022e-05 8.260230e-07
-2.764296e-05 5.145346e-06 1.182229e-06
-2.376306e-05 -1.403728e-05 8.844353e-07
-1.914674e-05 1.942382e-05 3.489447e-07
-2.165754e-05 2.029550e-05 -3.009308e-22
2.832515e-05 -2.322557e-06 -1.228225e-06
-1.604488e-05 -2.204543e-05 3.202085e-07
-2.361383e-05 -1.519100e-05 1.170284e-06
-9.011061e-06 -2.577302e-05 -4.341662e-07
-2.224573e-05 1.739966e-05 -1.210550e-06
1.462610e-05 -2.366624e-05 -1.054135e-06
1.359267e-05 -2.439386e-05 -1.109887e-06
-8.825557e-07 -2.851567e-05 1.226224e-06
-1.638148e-06 2.850770e-05 -1.224363e-06
-1.496502e-05 -2.310020e-05 8.049337e-07
-2.217712e-05 1.972641e-05 -3.009308e-22
-1.266289e-05 2.525211e-05 -1.211749e-06
-2.575851e-05 -1.425578e-05 -7.303730e-07
-1.739730e-05 2.094244e-05 7.547065e-08
-2.925816e-05 2.191079e-06 8.493072e-07
-7.077412e-06 2.745822e-05 1.224840e-06
-2.414473e-05 -1.654217e-05 9.188316e-07
-2.702259e-05 4.057419e-06 -4.898750e-07
1.279509e-05 -2.493299e-05 1.151745e-06
1.817506e-05 2.030263e-05 -2.503704e-07
-2.716762e-05 2.727576e-06 -4.376184e-07
-2.268176e-05 1.914403e-05 -3.009308e-22
-1.157396e-05 -2.696227e-05 8.478846e-07
-1.070778e-05 -2.730775e-05 8.576203e-07
2.635836e-05 7.007640e-06 3.481733e-07
-2.602646e-05 -1.031180e-05 -1.140311e-06
-2.612387e-05 -9.319983e-06 -9.986937e-07
-2.010254e-05 1.842827e-05 3.382927e-07
-2.725146e-05 -6.584042e-07 -2.944195e-07
1.476624e-05 2.536751e-05 -8.364573e-07
1.372312e-05 2.444921e-05 1.156435e-06
-2.712542e-05 -3.214727e-06 4.655835e-07
-2.317111e-05 1.854874e-05 -3.009308e-22
1.989407e-05 1.858493e-05 4.660097e-08
1.401837e-05 -2.445702e-05 1.200265e-06
-1.244196e-05 2.507771e-05 1.140196e-06
7.856419e-06 -2.607939e-05 -1.812718e-07
7.673029e-06 -2.630490e-05 6.361913e-07
-4.383663e-06 2.794447e-05 -1.217371e-06
1.213531e-05 -2.444203e-05 -3.948766e-07
2.900048e-05 4.614027e-06 -8.222205e-07
-2.516970e-05 1.231127e-05 1.149828e-06
-8.407990e-06 -2.598359e-05 -4.527934e-07
-2.364483e-05 1.794096e-05 -3.009308e-22
2.361565e-05 1.752040e-05 -7.755954e-07
-2.123427e-05 -1.906414e-05 -1.225747e-06
-1.701036e-05 2.231533e-05 -1.164119e-06
2.697353e-05 -1.159886e-05 8.262127e-07
2.696273e-05 7.321237e-06 -1.116314e-06
-1.825648e-05 2.160006e-05 -1.216764e-06
-2.636014e-05 -1.299010e-05 7.973142e-07
-2.592175e-06 -2.923201e-05 8.423287e-07
-2.924746e-05 6.184726e-07 -9.310144e-07
-2.285490e-05 1.829981e-05 9.093559e-07
-2.410262e-05 1.732107e-05 -3.009308e-22
5.839330e-06 -2.667988e-05 -4.561189e-07
1.423695e-06 2.935193e-05 -7.980502e-07
-2.303333e-06 -2.789393e-05 1.137905e-06
1.684403e-05 2.405430e-05 -8.219594e-07
2.911192e-05 4.124228e-06 7.787244e-07
-2.022746e-06 -2.728677e-05 -5.657841e-07
-2.929424e-05 -7.080883e-07 -8.866570e-07
2.341327e-05 -1.769664e-05 -8.401034e-07
8.428917e-06 -2.701715e-05 -1.219354e-06
-1.723895e-05 2.379836e-05 7.984323e-07
-2.454417e-05 1.668952e-05 -3.009308e-22
2.550556e-05 -1.204386e-05 1.203745e-06
1.670251e-05 -2.417703e-05 -7.992390e-07
-2.483182e-05 -1.161857e-05 6.593338e-07
2.009187e-05 2.144025e-05 8.019125e-07
2.935962e-05 -1.885811e-06 7.568388e-07
2.601653e-05 8.017946e-06 3.125728e-08
-2.328464e-05 1.789990e-05 -8.172038e-07
-2.822143e-05 1.758342e-06 1.215957e-06
1.698760e-05 2.223875e-05 1.136177e-06
-2.516644e-05 -1.515831e-05 8.066975e-07
-2.496917e-05 1.604671e-05 -3.009308e-22
-9.180757e-06 2.609149e-05 9.387280e-07
-1.914478e-05 -1.940995e-05 3.084127e-07
2.717745e-05 -2.070983e-06 -2.812413e-07
2.388347e-05 -1.308975e-05 1.690312e-07
-1.879581e-05 2.257350e-05 -8.121162e-07
-2.240415e-05 1.663657e-05 -1.100322e-06
1.907494e-05 1.955688e-05 4.745158e-07
-6.005993e-06 -2.765553e-05 1.219195e-06
1.216812e-05 -2.673196e-05 8.156757e-07
1.315090e-05 -2.628387e-05 -7.935417e-07
-2.537733e-05 1.539308e-05 -3.009308e-22
[...]
POINT_DATA 3167
VECTORS 10.000GHz_fone_imag double
2.263692e+10 1.086255e+10 1.336475e+09
-1.633841e+10 -1.789089e+10 -6.509293e+07
3.260331e+10 -2.075919e+09 -1.111845e+09
1.649767e+10 1.814692e+10 -3.108367e+08
1.823692e+10 -2.652897e+10 -1.235038e+09
8.813831e+09 -2.854210e+10 -3.000882e+08
-7.512065e+09 3.093705e+10 -8.834439e+08
-1.910322e+10 2.468388e+10 2.409598e+09
2.992265e+10 -7.214880e+09 1.299609e+09
-2.286986e+10 -2.182163e+10 -1.228889e+09
-2.210261e+10 -1.966686e+10 -3.598363e+08
2.081227e+10 1.106690e+10 -4.476329e+08
-1.838219e+10 1.626230e+10 -7.453366e+08
9.072228e+09 2.256898e+10 1.009367e+08
7.162106e+09 3.344439e+10 5.305211e+08
2.340057e+10 1.606697e+10 -8.917458e+08
-4.643315e+09 -2.461920e+10 6.085915e+08
-2.016732e+10 2.313275e+10 -4.216759e+08
2.004879e+10 1.599595e+10 -3.232659e+08
-1.604910e+10 -2.687657e+10 -1.097449e+09
-1.217959e+10 -2.119900e+10 5.317905e+08
3.196801e+10 -6.627303e+09 5.505021e+08
2.096500e+10 1.043678e+10 5.769294e+08
-1.805156e+10 2.503503e+10 5.221772e+08
1.235474e+10 -2.035206e+10 -1.016442e+09
-2.071738e+10 1.468405e+10 8.941115e+08
2.155437e+10 -2.224049e+10 -7.710074e+08
-5.759803e+09 -2.635414e+10 -1.385932e+09
-1.925173e+09 2.566656e+10 1.914299e+09
1.639620e+10 2.370109e+10 -4.709584e+07
1.881622e+10 -2.595363e+10 4.996027e+07
-1.232159e+10 2.486304e+10 7.731693e+08
2.259110e+10 6.935835e+09 -1.183836e+09
2.071867e+10 1.299108e+10 -6.155121e+08
2.144033e+10 1.248340e+10 9.347325e+08
-2.066363e+10 -2.136232e+10 -4.582543e+08
2.511454e+10 -6.493940e+08 -1.432479e+09
-2.337523e+10 1.740505e+10 5.096368e+07
2.275206e+10 -7.951005e+09 7.264626e+07
-2.442614e+10 2.115926e+10 3.759238e+08
-2.846544e+10 -8.810831e+09 1.072885e+08
-2.462138e+10 2.060073e+10 -2.833978e+08
2.558013e+10 1.716767e+10 9.154084e+07
1.793542e+10 -1.784884e+10 4.561980e+08
2.035447e+10 1.303733e+10 -1.062241e+09
-1.268113e+10 3.126201e+10 -6.383840e+08
3.486174e+10 -6.260067e+08 -5.907954e+07
-1.737775e+10 -2.285879e+10 1.496761e+09
-2.148821e+10 -1.067300e+10 -4.190555e+08
2.478370e+10 -1.904852e+10 3.761423e+08
-3.114159e+10 -1.641260e+10 7.301584e+08
-1.126432e+08 -3.089751e+10 -6.203422e+07
-2.139332e+10 -1.106338e+10 3.026821e+08
-1.811121e+10 -2.258014e+10 4.651256e+08
-2.384752e+10 2.038506e+10 -5.756917e+08
1.984419e+10 1.276651e+10 5.850685e+07
3.264093e+10 1.124047e+10 9.870541e+08
1.119705e+10 2.285108e+10 -8.617884e+08
-5.752336e+09 -2.994990e+10 1.192322e+08
2.992280e+10 -1.549696e+10 -3.895405e+08
-6.708761e+09 2.450460e+10 8.313151e+08
1.368987e+10 -2.030117e+10 1.007508e+09
1.548098e+10 -1.849341e+10 -2.732925e+08
-2.884261e+10 1.925018e+09 -5.014298e+08
-2.929741e+10 -1.664305e+09 1.037096e+08
2.168950e+10 2.310879e+10 -3.801037e+08
1.971355e+10 1.294533e+10 -3.895473e+07
-2.332252e+10 -4.651705e+09 -1.842529e+08
-2.850843e+10 1.507673e+09 1.325032e+09
2.295251e+10 1.006003e+10 6.656123e+08
-2.191493e+10 -2.121422e+10 7.938964e+08
2.645720e+10 1.019394e+10 -1.533915e+09
2.327292e+10 1.840434e+10 1.915340e+08
2.376941e+10 4.729165e+09 -1.261714e+08
1.851615e+10 1.689679e+10 -1.881027e+08
-2.880103e+10 4.580833e+09 2.475175e+08
2.324047e+10 1.024453e+10 4.698484e+07
2.032246e+10 1.464520e+10 -9.111866e+08
1.680089e+10 -3.098081e+10 1.691563e+08
-1.982885e+10 1.370557e+10 6.562977e+08
2.657459e+10 -1.728086e+09 -2.174394e+08
4.658321e+09 2.425940e+10 9.623582e+08
-2.083238e+10 2.471755e+10 6.015439e+08
2.106812e+09 -2.726246e+10 1.618262e+09
6.312040e+09 2.698183e+10 6.239679e+08
2.642766e+10 -1.394489e+10 1.037546e+09
7.658493e+09 2.240026e+10 3.714862e+08
-1.769831e+09 3.295800e+10 1.244534e+08
1.792893e+10 1.488998e+10 -9.931010e+08
-5.119148e+09 -3.007287e+10 1.433926e+09
2.960487e+10 3.719191e+09 -3.078283e+08
-1.190143e+10 3.190355e+10 3.187348e+07
-1.794870e+10 1.688181e+10 4.800490e+08
1.237975e+10 2.975429e+10 -2.242325e+08
2.520321e+10 1.875284e+08 9.730090e+07
2.028489e+09 3.005144e+10 9.007893e+08
2.166677e+10 8.992694e+09 -2.798190e+08
2.922757e+09 -2.630637e+10 -1.162039e+08
2.677626e+10 -1.477157e+10 -4.652395e+08
1.847682e+10 1.401028e+10 1.132319e+08
-2.096919e+10 -2.082016e+10 5.857990e+08
9.504036e+09 -2.269342e+10 3.672176e+08
-8.004180e+09 2.425344e+10 -6.658063e+08
-1.890932e+10 -1.770284e+10 1.578771e+08
2.838717e+10 1.394398e+10 6.224145e+08
-4.530865e+09 -2.872327e+10 1.160343e+09
-1.584327e+10 -2.281172e+10 1.019360e+09
2.494834e+10 -1.672232e+10 -6.139706e+08
-2.895397e+10 -6.641553e+08 1.140336e+07
-3.076162e+10 6.164834e+09 7.121199e+07
1.924032e+10 1.689357e+10 -1.585838e+09
2.100582e+10 -2.002044e+10 -1.461688e+09
1.649267e+10 -3.194575e+10 -1.373466e+09
3.150761e+08 2.865952e+10 -1.514856e+09
1.470952e+10 -1.936597e+10 -4.019586e+08
-2.164113e+10 1.202741e+10 1.046453e+09
5.996303e+09 2.346586e+10 -6.643925e+08
2.129833e+10 -1.146370e+10 -3.198234e+08
2.842844e+10 1.164195e+10 1.005362e+09
2.730237e+10 1.692653e+10 -4.422883e+08
-2.391657e+10 4.387035e+09 6.259683e+08
1.633746e+10 1.650436e+10 -5.900447e+08
-2.439826e+10 1.342489e+10 1.017629e+09
-1.328467e+10 -3.236494e+10 8.946324e+07
-2.227963e+10 -1.378800e+10 -3.214617e+08
-2.146349e+10 -1.103828e+10 5.673583e+08
-1.526947e+10 2.895640e+10 1.645744e+08
1.096305e+10 -2.645188e+10 -4.067213e+08
-1.516945e+10 2.317217e+10 2.323652e+09
-8.621227e+09 -2.780407e+10 -9.102763e+08
-1.254404e+10 2.017123e+10 2.818042e+08
-2.312966e+10 -1.826619e+10 1.322646e+09
1.631421e+10 1.569706e+10 3.142590e+08
1.606634e+10 2.450769e+10 4.723270e+08
-1.910403e+10 -2.706328e+10 3.518486e+08
-2.288554e+10 1.664140e+10 2.868377e+08
1.404306e+10 -2.139299e+10 8.220491e+06
2.124106e+10 1.306979e+10 1.027668e+09
2.442456e+10 4.787242e+09 -2.903179e+07
-6.217024e+08 2.901299e+10 7.647436e+06
-2.446795e+10 -2.208073e+09 -2.930034e+08
2.821939e+10 -6.002440e+09 -9.176672e+08
-4.950974e+09 3.174762e+10 -5.742751e+08
1.647028e+10 1.618560e+10 1.943103e+08
-1.514780e+10 -2.855054e+10 -4.427398e+08
2.840218e+10 6.407127e+09 -1.399090e+08
-9.046332e+09 -3.012842e+10 2.474396e+08
-2.012762e+10 -2.384272e+10 6.756205e+08
-1.083974e+10 -2.092852e+10 4.354525e+08
3.163648e+10 1.975832e+09 -1.602597e+08
2.331714e+10 8.300725e+09 7.432340e+08
5.439345e+09 2.742870e+10 -7.949714e+08
-1.678040e+10 2.710851e+10 3.861572e+08
2.354384e+10 2.294760e+10 3.121567e+08
1.589726e+10 1.681002e+10 -5.898253e+08
-3.300178e+09 -2.816881e+10 -1.726752e+08
-2.514446e+10 1.876600e+10 -1.004063e+09
-1.891322e+10 2.520422e+10 3.847873e+08
-2.973444e+10 9.843196e+09 -4.324149e+08
1.766291e+10 2.219019e+10 6.814804e+08
-2.579342e+10 -1.641200e+10 -3.712771e+07
-2.681782e+10 -1.284666e+10 2.148391e+08
-2.670476e+10 1.373533e+09 4.994748e+08
2.803291e+10 8.312446e+08 4.101583e+07
-2.697952e+10 1.728558e+10 3.792867e+08
1.569554e+10 1.820798e+10 -3.036409e+08
2.700562e+10 1.373072e+10 6.492545e+08
-1.190087e+10 2.127503e+10 -1.576825e+08
2.364819e+10 1.982879e+10 -2.480850e+08
7.224976e+08 2.542746e+10 -1.457266e+09
2.704197e+10 7.785642e+09 -3.243085e+08
-1.394680e+10 2.082836e+10 -1.618535e+08
3.874839e+09 3.147577e+10 -4.308827e+08
-2.608972e+10 -1.366303e+10 9.166105e+07
2.414349e+10 -2.273448e+10 4.980366e+08
2.341745e+09 3.166806e+10 -4.843182e+08
1.496124e+10 1.769032e+10 2.371013e+08
-2.264360e+10 9.736907e+09 6.217047e+08
-2.353352e+10 8.273366e+09 1.304433e+08
7.401728e+09 -3.173722e+10 1.678696e+08
-1.027316e+10 2.716777e+10 -5.699155e+08
-1.101661e+10 2.916422e+10 -4.479092e+08
2.203755e+10 2.260708e+10 4.856626e+08
-4.445034e+08 3.200846e+10 1.061237e+09
2.289367e+10 -1.331375e+10 1.640926e+08
2.584312e+10 -1.495773e+10 3.393828e+08
-3.436940e+09 3.102416e+10 -1.154932e+08
1.525826e+10 1.879782e+10 -5.473891e+08
2.247749e+10 -2.223609e+10 5.925031e+06
-2.505674e+10 -1.412479e+10 1.330369e+07
2.631652e+10 1.422022e+10 -1.973695e+08
-3.263192e+10 -9.782326e+09 5.267210e+08
-3.202176e+10 -8.128592e+09 -2.666915e+08
2.765404e+10 4.459395e+09 7.888093e+07
-2.852285e+10 -1.506360e+10 5.000126e+08
3.830803e+09 -2.433810e+10 1.723826e+08
1.297123e+10 2.969468e+10 8.859692e+08
-3.039898e+10 9.287336e+09 8.394234e+07
1.373832e+10 1.859357e+10 -1.025010e+09
1.421172e+10 -1.925298e+10 3.425901e+08
-2.012737e+10 2.012726e+10 -1.187860e+09
2.264473e+10 1.826679e+10 -3.291424e+08
-9.429923e+09 -2.228637e+10 -1.634070e+07
8.846920e+09 -3.012696e+10 -8.313995e+08
2.070524e+10 1.816475e+10 -6.063274e+08
-1.164506e+10 2.264626e+10 8.417163e+07
-2.594430e+10 3.017457e+09 3.033869e+08
-3.916705e+08 2.591376e+10 1.083812e+09
1.662183e+10 1.906234e+10 5.092810e+08
1.378462e+10 1.853478e+10 -1.049927e+09
-3.402409e+10 -8.068476e+09 -8.562211e+08
2.409141e+10 -7.877240e+08 -4.339592e+08
-2.875940e+10 1.437107e+09 -9.697152e+08
1.935973e+10 -1.399989e+10 1.501504e+09
3.754140e+09 -2.408329e+10 -8.573827e+08
-3.117978e+10 1.641140e+09 8.334466e+08
-6.083218e+08 2.418784e+10 3.497985e+08
-1.488829e+10 -2.036030e+10 5.153166e+08
-2.712516e+10 -8.868047e+09 8.990500e+08
1.917658e+10 1.388827e+10 3.497537e+08
1.222410e+10 1.906903e+10 2.562058e+08
-1.209977e+10 -2.533424e+10 9.254933e+08
-2.013221e+10 -1.365792e+10 6.077347e+08
-1.309333e+10 2.864581e+10 -1.046724e+09
1.595501e+10 -1.660326e+10 1.685347e+08
-2.025918e+09 -2.405642e+10 -1.416275e+08
8.775008e+09 -3.107194e+10 1.214912e+09
1.562647e+10 1.944070e+10 -4.091994e+07
1.538994e+09 2.749755e+10 4.422991e+08
2.354638e+10 -1.654009e+10 -1.314479e+09
-1.255919e+10 2.049327e+10 7.370797e+08
1.464093e+10 1.974609e+10 -1.557606e+09
3.023884e+10 1.141015e+10 1.501027e+08
-2.368665e+10 2.376474e+10 -3.043124e+08
-2.685086e+09 -3.184585e+10 1.157675e+09
-1.495599e+10 -2.889691e+10 -5.926034e+08
1.854627e+10 1.525645e+10 4.370380e+08
1.713163e+10 2.401655e+10 -2.675288e+08
2.448005e+10 -2.393301e+10 -3.076246e+08
-2.774519e+10 4.333737e+09 -2.251383e+08
-2.205816e+10 -8.419191e+09 -3.738157e+08
-2.214566e+10 -1.121617e+10 7.682504e+08
1.206665e+10 2.199097e+10 1.770703e+09
1.570681e+10 -1.799211e+10 5.548820e+08
-7.022648e+09 -3.212913e+10 -7.257374e+08
2.364863e+10 -2.046565e+10 -2.458438e+08
6.857632e+09 -3.013534e+10 -1.748651e+09
-2.868401e+10 -3.444345e+09 3.628230e+08
2.464140e+10 -1.739912e+10 -8.045104e+08
1.183975e+10 -2.975027e+10 -1.072393e+09
2.059058e+10 -1.549997e+10 -1.942020e+08
-1.823893e+10 -1.671405e+10 -7.148773e+08
-1.982904e+10 2.036414e+10 7.081300e+08
1.171304e+10 2.029333e+10 -7.034123e+08
-1.748451e+10 -1.583167e+10 1.666043e+08
2.864821e+10 -8.490630e+09 2.743180e+08
-2.338405e+10 4.736746e+09 1.131813e+08
-1.583994e+10 2.827633e+10 9.821511e+07
-2.397005e+10 -1.276959e+09 -1.248101e+09
-7.413596e+09 -2.807960e+10 3.960473e+08
2.968121e+10 -1.216135e+10 -4.195986e+06
-2.600454e+10 -2.124672e+10 -1.048568e+09
-1.596118e+10 -1.893647e+10 -1.865736e+08
-1.418103e+10 2.575089e+10 -3.903160e+08
1.116361e+10 2.078828e+10 -2.198585e+08
-2.909564e+10 -9.679823e+09 -2.071900e+08
-9.834585e+09 3.228946e+10 -1.019107e+09
-1.998008e+10 1.400435e+10 7.047662e+08
-2.779822e+10 -1.724107e+10 1.100516e+09
-2.331743e+10 -6.259271e+09 -2.887274e+07
-2.465063e+10 -1.691729e+10 1.888829e+09
2.951366e+10 2.093977e+08 -5.853051e+08
-8.740635e+09 2.262381e+10 -9.295057e+07
-2.424303e+10 -1.702459e+10 7.935835e+08
7.655554e+08 -2.786644e+10 6.583645e+08
9.588835e+09 2.065987e+10 -8.806275e+08
-1.191194e+10 2.089435e+10 -1.047949e+09
-2.642300e+10 1.403748e+10 -5.139287e+08
-1.350912e+10 2.011268e+10 9.608793e+08
2.412165e+10 1.764670e+10 4.131344e+08
-1.775901e+10 1.672287e+10 1.292309e+08
-2.440650e+10 -2.303991e+10 3.794934e+08
-2.094145e+10 -1.221770e+10 -4.028639e+08
2.092486e+10 1.073550e+10 1.756083e+09
2.413938e+10 1.352145e+10 1.063476e+09
-3.030402e+10 -1.122471e+10 -5.976940e+07
1.019574e+10 2.097283e+10 -1.133773e+07
2.899275e+10 -1.437826e+10 8.996250e+08
-2.728888e+10 -8.215247e+09 4.314871e+08
-1.455338e+10 2.769574e+10 9.924576e+07
-2.301883e+10 8.146085e+09 1.795223e+09
2.854113e+10 -1.573747e+10 -1.164678e+09
1.581305e+10 1.677055e+10 -3.252208e+08
2.145865e+10 -9.929046e+09 -1.608130e+08
1.694385e+10 1.890482e+10 -1.330571e+08
9.943495e+09 2.700612e+10 7.470599e+08
1.031613e+10 2.625194e+10 -7.788135e+07
1.081332e+10 2.333748e+10 -6.279635e+08
2.147174e+10 2.594968e+10 3.413590e+06
2.629885e+10 1.247827e+10 -1.375334e+08
2.178590e+10 -9.562135e+09 -1.221528e+09
-2.687437e+10 2.086926e+09 -2.611367e+08
1.715296e+10 -2.468735e+10 6.341689e+08
1.923072e+10 2.273483e+10 -9.170255e+08
1.174362e+10 2.919911e+10 -7.362957e+08
3.394951e+09 -2.621077e+10 2.386821e+08
3.223694e+09 -2.793165e+10 -2.690415e+08
5.690438e+09 2.905729e+10 -4.145472e+08
7.202024e+09 2.128646e+10 -3.524971e+07
-4.246417e+09 2.407011e+10 6.123370e+08
8.761297e+09 -2.221309e+10 -7.238025e+07
4.675732e+09 2.971275e+10 7.565191e+08
-8.707875e+08 2.946584e+10 1.377463e+09
2.569624e+10 -9.817643e+09 -1.136757e+09
1.983686e+10 -2.069847e+10 -4.277659e+08
-2.298648e+10 8.388107e+09 2.422588e+07
-2.637776e+10 -4.981210e+09 -1.628951e+09
1.832451e+10 -1.664028e+10 6.999034e+08
3.058785e+10 5.804723e+08 7.264662e+07
8.984629e+09 2.136108e+10 5.582377e+07
3.013620e+10 -1.272374e+10 2.379294e+08
2.967967e+10 1.165460e+10 2.464172e+08
4.604121e+09 -3.189482e+10 9.806384e+08
-2.474613e+10 -1.694730e+08 1.672046e+08
-8.004771e+09 2.758342e+10 2.428500e+08
3.183747e+10 4.670406e+09 7.824942e+08
-2.500497e+10 -4.494124e+09 -8.753442e+08
-1.124157e+10 -3.008544e+10 7.822388e+08
2.922252e+10 3.477869e+08 -2.814946e+08
3.187157e+10 -7.370474e+08 -4.908513e+08
8.152225e+09 2.389508e+10 1.028630e+09
-2.556770e+10 1.058799e+09 1.033979e+09
-6.796578e+09 -2.546431e+10 1.684607e+07
-3.098220e+10 1.206479e+10 -6.281239e+08
-3.103807e+10 -6.750109e+09 1.505695e+08
1.955384e+10 -1.581458e+10 8.307531e+08
-2.419446e+10 3.628842e+09 1.432661e+08
-5.626837e+09 2.390053e+10 -8.119476e+08
2.854537e+10 1.062945e+10 -2.615330e+08
1.193476e+09 -3.128919e+10 1.049541e+08
6.157321e+09 -3.219051e+10 -1.111051e+08
5.919948e+09 2.215753e+10 -6.216827e+08
-8.329547e+09 2.299087e+10 5.004353e+08
1.426571e+10 -2.365648e+10 5.314776e+08
2.346958e+10 -2.005987e+10 2.424456e+08
-2.333000e+10 -4.060295e+09 -3.231264e+08
4.655363e+09 -2.390261e+10 -8.365358e+08
-2.555227e+10 -1.267761e+09 1.715667e+09
2.900948e+10 -3.503507e+09 -8.936707e+08
6.416965e+09 -2.272424e+10 1.803840e+08
1.200209e+09 -2.357602e+10 6.314893e+07
-2.993578e+10 -1.361101e+10 3.171427e+08
7.426368e+09 2.172240e+10 3.691543e+08
-9.179859e+08 3.053288e+10 -1.065905e+09
2.173732e+10 -1.391460e+10 -8.397344e+08
2.792695e+10 5.865370e+09 1.387008e+09
-1.587653e+10 2.265398e+10 -8.372061e+07
-2.304769e+10 -1.707072e+10 -2.284842e+08
-2.467579e+10 -2.146353e+10 -5.824107e+08
1.338730e+10 -2.041063e+10 -7.192755e+08
-1.143953e+10 -2.821516e+10 5.458516e+07
1.759612e+10 -2.306541e+10 -5.440044e+08
2.298280e+10 -6.686744e+09 9.914275e+08
5.833951e+09 2.314621e+10 -1.029367e+09
-1.322818e+10 -2.650610e+10 -4.291147e+08
2.239371e+10 -1.843437e+10 6.069377e+08
-2.720127e+10 -1.743792e+10 6.143611e+08
-2.354086e+10 -8.136372e+09 9.329771e+08
2.085681e+10 -1.390910e+10 8.485660e+07
2.418396e+10 2.072264e+10 8.750218e+08
1.601713e+10 2.287934e+10 1.232632e+08
-1.675082e+10 2.180439e+10 -1.134168e+09
1.263279e+10 2.255518e+10 6.494778e+08
3.232423e+10 2.450739e+09 -5.796812e+08
5.052636e+09 2.277432e+10 -2.133631e+08
2.702273e+10 1.917638e+10 1.175808e+09
2.859730e+10 4.672944e+09 -2.234850e+09
-2.125072e+10 1.096569e+10 -8.092248e+07
-1.187577e+09 -2.542859e+10 9.166889e+08
-2.471938e+10 5.935395e+09 5.109142e+08
-2.260362e+10 8.837258e+09 7.986397e+08
-1.225888e+10 2.350224e+10 7.221427e+08
-2.774064e+10 1.725117e+10 -3.976904e+08
2.029088e+09 -2.524406e+10 1.223922e+09
-2.955919e+10 1.493717e+10 -2.329377e+08
5.109551e+09 2.430164e+10 -1.636109e+09
2.110105e+10 -2.488891e+10 -7.772941e+08
9.595462e+09 2.225013e+10 -1.562226e+09
1.352358e+10 1.952249e+10 4.746277e+08
2.501169e+10 2.971172e+09 7.699294e+08
-1.192610e+10 -2.997295e+10 -7.473954e+07
-8.583539e+09 -2.233387e+10 2.578430e+08
5.663626e+09 -3.103809e+10 -9.909248e+08
2.075947e+10 1.256398e+10 -2.191642e+09
-2.503331e+10 1.280150e+10 -1.423705e+09
-1.028976e+10 -2.180854e+10 1.233871e+09
3.820161e+09 2.292596e+10 -9.797076e+08
2.073748e+10 1.307567e+10 -8.219573e+08
1.137061e+10 -3.064712e+10 5.101873e+08
1.596313e+10 -1.800558e+10 -7.392673e+08
1.487391e+10 2.683008e+10 -9.849913e+07
2.004521e+10 -1.344441e+10 -7.710058e+07
-4.036536e+09 -2.853007e+10 7.277466e+08
-3.189471e+10 -3.773289e+08 1.234254e+09
-1.842543e+10 -1.463110e+10 -2.586817e+08
-3.258950e+10 3.037878e+09 4.052600e+08
-5.903971e+09 2.308138e+10 -3.812492e+08
3.796746e+09 2.488786e+10 -1.591880e+08
2.523701e+10 -1.997699e+09 -1.362694e+09
1.212461e+10 -2.475538e+10 3.041633e+07
1.453365e+10 -1.951929e+10 -1.131253e+08
1.510097e+10 2.422102e+10 8.246732e+08
-4.681808e+09 -3.188154e+10 1.147812e+08
3.236189e+10 -6.910625e+09 2.392380e+09
-2.604900e+10 -4.461208e+09 -6.512321e+08
-2.385279e+10 6.302027e+09 -5.102026e+08
-2.646141e+10 7.385379e+09 2.591374e+08
-1.135950e+10 -2.115949e+10 8.451808e+08
1.824003e+09 2.306102e+10 8.133988e+08
-2.453329e+10 -1.120103e+10 -9.241321e+08
1.861006e+10 -1.566505e+10 -6.841722e+08
-3.418141e+10 7.906203e+09 -1.935614e+09
1.423519e+10 -2.686540e+10 7.476565e+08
1.475310e+10 1.989903e+10 -1.845807e+08
1.119264e+10 2.124947e+10 8.389887e+08
-1.398713e+10 -2.357075e+10 1.821426e+09
3.243663e+10 -8.806329e+09 -3.168343e+08
3.750379e+09 -3.233513e+10 -1.066395e+08
-2.465370e+10 2.833893e+09 6.176634e+08
3.582813e+09 2.336853e+10 3.323906e+08
-3.212829e+10 -3.550111e+09 1.525963e+08
-2.694543e+10 1.035505e+10 4.572092e+08
2.577809e+10 -8.113421e+09 4.875015e+08
2.469021e+10 5.705097e+08 7.969143e+07
2.777354e+10 7.512679e+09 3.521361e+08
-2.816022e+10 1.008948e+10 1.628101e+08
2.793539e+10 -1.255782e+10 -5.009973e+08
3.056063e+10 -1.255752e+10 -1.778229e+08
2.811829e+10 7.689381e+09 9.632973e+08
2.700814e+09 2.412997e+10 -1.067900e+09
1.531736e+09 2.451159e+10 3.485727e+08
1.414193e+10 1.865653e+10 -8.071739e+08
1.911676e+10 -2.034869e+10 1.103427e+09
1.208636e+10 2.387875e+10 1.668772e+09
-1.543085e+10 -2.321411e+10 5.573650e+08
-2.375541e+10 -1.218281e+09 7.465057e+08
-3.247862e+10 -5.437000e+09 -7.757896e+07
-9.275440e+09 2.728097e+10 1.036084e+08
-1.345503e+10 -2.028171e+10 3.496903e+08
-2.337733e+10 3.698587e+09 -1.455770e+06
-3.927265e+09 2.803187e+10 -1.662071e+08
1.423363e+09 2.402436e+10 2.669365e+08
-8.808319e+09 2.644389e+10 -7.625749e+07
3.144697e+09 -2.963826e+10 3.347741e+08
-6.205748e+09 2.370275e+10 3.998355e+08
-2.817624e+10 6.811870e+09 -2.471822e+08
-2.776540e+10 -8.778887e+09 -1.265424e+09
-3.221001e+09 2.507578e+10 -1.336903e+09
-2.195962e+10 1.470516e+10 6.306660e+08
1.953033e+10 2.567407e+10 -5.824139e+08
8.394958e+09 2.683196e+10 5.367730e+07
-3.092495e+10 8.834381e+09 5.872791e+08
1.034783e+09 2.460061e+10 4.498560e+08
7.613449e+09 -2.703193e+10 -1.126904e+08
-2.675930e+10 -1.144251e+10 2.752972e+07
-2.994185e+09 2.664564e+10 -3.264749e+08
1.203659e+09 -2.879262e+10 -9.086288e+08
-2.098501e+10 2.269666e+10 6.359123e+08
-2.060838e+10 1.971489e+10 6.700617e+08
2.919002e+10 5.092549e+09 -2.325332e+08
9.073663e+09 -2.827352e+10 7.653881e+08
-2.666652e+10 -2.142085e+10 1.207326e+09
3.053004e+10 1.701718e+10 -3.287646e+08
-5.800282e+08 2.377859e+10 -1.322818e+09
2.686343e+10 1.817576e+10 5.301069e+08
5.269105e+09 -2.402930e+10 -1.045314e+09
-2.721280e+10 -3.712022e+09 7.216254e+08
-2.337446e+10 -2.589777e+09 -4.712451e+08
1.778263e+10 -2.113242e+10 1.384479e+08
2.867457e+10 1.320452e+10 1.426802e+09
-1.834783e+10 1.675987e+10 1.866553e+07
-2.442378e+10 1.410604e+10 1.857835e+09
2.751230e+10 3.374942e+09 -9.174667e+08
1.176476e+10 2.471009e+10 -6.421688e+08
-6.950600e+08 2.326749e+10 6.656542e+08
-3.168197e+10 5.800227e+09 1.417666e+09
7.755268e+09 2.311920e+10 -6.033294e+08
-1.773230e+10 -1.665810e+10 1.506866e+08
-3.337410e+09 -3.098991e+10 -6.784740e+08
-1.498527e+10 -1.906925e+10 -3.109390e+08
-2.161141e+10 -1.090025e+10 8.729114e+08
-5.895179e+09 -2.399687e+10 3.211312e+08
-1.949876e+10 -2.008004e+10 -1.129171e+09