# vtk DataFile Version 2.0
Electric current density generated by TTH
ASCII
DATASET UNSTRUCTURED_GRID
POINTS 1724 double
1.170169e-05 -6.660205e-06 -5.641991e-22
9.853846e-06 -5.997796e-06 2.272810e-06
8.632715e-06 7.453142e-06 -2.290542e-06
-9.866855e-06 3.886524e-06 -2.235387e-06
-3.280786e-06 -1.243479e-05 1.554953e-06
-5.481102e-06 -9.278723e-06 2.271267e-06
-7.618684e-06 7.866693e-06 2.293963e-06
-4.163377e-06 -7.920780e-06 -6.411817e-07
-5.203521e-06 7.344345e-06 8.006051e-07
-1.261898e-06 -9.816703e-06 1.926187e-06
-8.631513e-06 -2.328447e-06 6.119577e-07
1.216161e-05 -5.777818e-06 -5.641991e-22
1.146853e-05 1.889372e-06 2.256647e-06
-3.021835e-06 1.128172e-05 2.244379e-06
-5.693385e-06 -1.205136e-05 7.791900e-07
-1.050519e-05 -6.910767e-06 1.818706e-06
-8.985848e-07 -1.328233e-05 8.219208e-07
3.262051e-06 -8.511100e-06 -1.058352e-06
-7.831051e-06 -9.613431e-06 -1.942226e-06
2.437725e-06 1.236978e-05 -1.792401e-06
1.306665e-05 2.596244e-06 -7.969061e-07
1.060925e-05 2.299159e-06 2.283199e-06
1.255511e-05 -4.863874e-06 -5.641991e-22
9.928053e-06 -7.389123e-06 1.956908e-06
1.196873e-05 5.858495e-06 7.872206e-07
-9.892278e-06 3.251312e-06 2.178718e-06
4.658301e-06 9.327703e-06 2.183246e-06
1.195375e-05 -5.890495e-06 -7.853895e-07
-1.075144e-05 -7.907850e-06 7.274448e-07
-4.894429e-06 9.126241e-06 -2.158298e-06
7.816968e-06 6.022228e-06 -1.906350e-06
-1.162316e-05 -2.943240e-07 -2.255872e-06
6.574400e-06 1.098165e-05 1.619216e-06
1.288003e-05 -3.923365e-06 -5.641991e-22
-1.037970e-05 -1.522108e-06 2.203898e-06
2.942476e-06 1.129505e-05 -2.246071e-06
-8.447204e-06 -1.036598e-05 -6.457999e-07
1.067036e-05 -3.323535e-06 -2.303468e-06
-1.112170e-05 9.042142e-07 2.303516e-06
-8.264925e-06 3.583763e-06 8.207349e-07
7.516870e-06 -1.019022e-05 -1.746568e-06
1.497988e-06 9.814007e-06 1.945657e-06
-1.252608e-05 -4.555340e-06 -7.787803e-07
1.262752e-06 -8.785460e-06 -2.910281e-07
1.313461e-05 -2.961428e-06 -5.641991e-22
4.438295e-06 1.175123e-05 1.828769e-06
-7.715371e-06 4.390276e-06 -3.008668e-07
-1.923159e-06 -1.100208e-05 2.303503e-06
-8.957384e-06 -5.472839e-06 -2.205796e-06
-1.691571e-06 1.213142e-05 2.030390e-06
-5.642859e-06 -9.352550e-06 -2.291210e-06
-1.047346e-05 -5.970699e-06 2.122534e-06
-4.388145e-06 1.195332e-05 1.683257e-06
-3.411675e-06 1.078899e-05 -2.298314e-06
-6.842415e-06 1.148776e-05 6.485525e-07
1.331745e-05 -1.983317e-06 -5.641991e-22
-9.891838e-06 -4.890050e-06 -2.300054e-06
-1.183348e-05 1.979408e-06 -2.146038e-06
-7.633400e-06 5.116709e-06 -1.191936e-06
9.840772e-06 3.794405e-06 -2.220222e-06
-5.984009e-06 6.617861e-06 5.427195e-07
-1.052306e-05 -8.256370e-06 -6.336940e-07
-5.866470e-06 1.197239e-05 -7.682653e-07
-8.821098e-06 -8.097373e-07 -6.432289e-08
1.705803e-06 -1.245469e-05 1.821439e-06
-8.822099e-06 -4.005245e-06 -1.771773e-06
1.342755e-05 -9.943742e-07 -5.641991e-22
-6.170294e-06 -8.829294e-06 -2.270412e-06
6.314570e-06 -6.377665e-06 -7.265771e-07
1.199777e-06 -1.019524e-05 -2.122450e-06
-1.166672e-05 -6.499585e-06 -7.011013e-07
9.179651e-06 6.733876e-06 -2.292612e-06
1.113886e-05 -3.879511e-06 2.214460e-06
-7.034901e-06 -5.649161e-06 -8.562829e-07
8.201162e-06 -1.055267e-05 -6.697815e-07
5.506640e-07 9.178595e-06 1.200915e-06
-1.154769e-05 6.711723e-06 -6.964594e-07
1.326517e-05 -3.249030e-21 9.369250e-07
2.096618e-06 1.091754e-05 2.303102e-06
4.019675e-06 8.261179e-06 -1.187909e-06
-9.460083e-06 -8.527888e-06 1.680305e-06
-1.330537e-05 -1.149585e-06 -7.013997e-07
-1.227531e-05 5.191390e-06 7.808590e-07
-8.653311e-06 -2.761448e-06 -9.949641e-07
-2.472290e-07 -1.337670e-05 -6.211703e-07
-1.256641e-05 1.423995e-06 -1.760090e-06
8.842088e-06 9.303026e-06 -1.582516e-06
6.296881e-06 -7.987507e-06 2.080060e-06
1.270216e-05 -3.111131e-21 1.711847e-06
1.166942e-05 -3.678459e-06 -2.037477e-06
5.767946e-06 1.130673e-05 -1.720080e-06
-9.102203e-06 9.746746e-06 7.580708e-07
1.624039e-06 -1.094793e-05 -2.301636e-06
-8.187200e-06 3.722122e-06 -7.805914e-07
-1.216801e-05 -3.918315e-06 -1.635115e-06
1.174089e-05 4.414954e-06 -1.842347e-06
-9.878818e-06 5.948053e-06 2.273531e-06
6.597844e-06 -6.509537e-06 -1.313578e-06
-1.136912e-05 5.587565e-06 1.742009e-06
1.187263e-05 -2.907956e-21 2.190775e-06
1.001082e-05 1.790375e-06 2.079382e-06
5.612604e-06 7.932067e-06 1.794843e-06
7.451107e-06 -6.291321e-06 1.822418e-06
-7.291497e-06 -5.669780e-06 1.266146e-06
1.139227e-05 -5.152139e-06 -1.871988e-06
-8.204995e-07 -9.446409e-06 -1.577254e-06
8.994854e-06 -7.916287e-06 -2.152063e-06
-8.792734e-06 -1.484112e-06 -5.215432e-07
1.085795e-05 7.797273e-06 6.605101e-07
9.805617e-06 -4.649691e-06 2.282749e-06
1.092002e-05 -2.674634e-21 2.290899e-06
9.638037e-06 -1.907719e-06 1.876671e-06
1.842671e-06 1.236409e-05 1.873770e-06
-8.462314e-06 -9.602036e-06 1.619596e-06
5.705878e-06 1.145698e-05 1.619216e-06
-8.453654e-06 1.037390e-05 -6.097523e-07
-8.421057e-06 9.369923e-06 1.800182e-06
6.313881e-07 1.334665e-05 6.803055e-07
6.177559e-06 -6.864002e-06 1.263212e-06
-8.018289e-06 -6.603177e-06 -2.169747e-06
7.756414e-06 -7.076514e-06 -2.206545e-06
1.000905e-05 -2.451509e-21 1.994905e-06
-1.098940e-05 8.206939e-07 -2.299210e-06
-1.757221e-06 -1.180528e-05 -2.169395e-06
-1.323104e-05 1.768349e-06 7.206693e-07
-1.025366e-05 -5.899926e-06 -2.204199e-06
-9.175695e-06 -7.155263e-06 2.254019e-06
-1.815825e-07 -1.276324e-05 1.653558e-06
-9.660506e-06 8.387091e-06 1.625155e-06
1.231430e-05 7.530958e-07 -1.980414e-06
8.065484e-06 1.068043e-05 -6.040766e-07
-1.045564e-05 4.748036e-06 2.280842e-06
9.297219e-06 -2.277162e-21 1.353974e-06
1.332769e-05 7.402312e-07 -7.220528e-07
-1.146684e-05 -4.910168e-06 -1.892611e-06
1.187439e-05 -4.978468e-06 1.537850e-06
-2.228394e-06 8.932385e-06 1.218824e-06
-6.959479e-06 -6.762975e-06 -1.784545e-06
-1.037897e-05 8.395889e-06 -7.176417e-07
-2.464240e-07 1.185434e-05 2.195825e-06
5.254087e-06 -9.756801e-06 -2.302154e-06
2.850402e-06 -9.550099e-06 1.969670e-06
-8.822546e-06 8.307762e-07 -1.404953e-07
8.907624e-06 -2.181739e-21 4.789282e-07
-6.987921e-07 -1.270700e-05 -1.689894e-06
8.839549e-06 6.516911e-06 2.296580e-06
1.290982e-05 -7.285270e-07 1.474738e-06
8.062250e-06 -9.576505e-06 -1.860977e-06
5.383290e-06 -7.336773e-06 1.028998e-06
-1.208232e-05 4.289282e-06 -1.596763e-06
1.142564e-05 5.755721e-06 1.624959e-06
6.309250e-06 7.167561e-06 1.645540e-06
-1.289374e-05 1.087648e-07 -1.517085e-06
-1.274190e-05 -9.946296e-07 1.637758e-06
8.907624e-06 -2.181739e-21 -4.789282e-07
-9.934316e-06 -7.641230e-06 1.850121e-06
-1.046341e-05 5.456830e-06 -2.212813e-06
3.642088e-06 -9.604478e-06 -2.125075e-06
-5.473332e-06 -7.339819e-06 1.134244e-06
7.006470e-06 -5.420815e-06 7.955251e-08
1.172683e-05 5.348598e-06 -1.523009e-06
-2.115214e-06 -9.469621e-06 1.783521e-06
7.615751e-06 7.477968e-06 -2.251344e-06
7.720077e-06 -4.342007e-06 1.682522e-08
-7.954038e-06 -4.102284e-06 6.456002e-07
9.297219e-06 -2.277162e-21 -1.353974e-06
8.978776e-06 -3.997623e-06 1.879137e-06
1.726969e-06 -1.327558e-05 5.901629e-07
-8.304412e-06 -3.357064e-06 -6.713740e-07
9.036553e-06 -3.107623e-06 1.652486e-06
-1.124949e-05 -1.714056e-06 2.293129e-06
-5.967449e-06 -1.198425e-05 -5.888554e-07
2.702729e-06 -1.311199e-05 -5.894034e-07
3.773460e-07 -1.133364e-05 -2.296544e-06
1.100640e-05 7.494288e-06 -8.142882e-07
5.335236e-06 -8.045668e-06 1.742238e-06
1.000905e-05 -2.451509e-21 -1.994905e-06
-8.563571e-06 1.025376e-05 6.871932e-07
8.175561e-06 -8.389300e-06 -2.236081e-06
9.217305e-06 -1.895620e-06 -1.497204e-06
4.843034e-06 1.243848e-05 -7.225710e-07
-1.235368e-06 1.333174e-05 -5.847913e-07
6.416493e-06 -6.293968e-06 7.651290e-07
1.094584e-05 -6.325925e-06 -1.763871e-06
-3.434430e-06 1.152822e-05 -2.133671e-06
8.700955e-06 -5.291975e-06 2.086105e-06
1.326193e-05 -1.567469e-06 7.035833e-07
1.092002e-05 -2.674634e-21 -2.290899e-06
-9.719144e-06 -9.156615e-06 7.071207e-07
1.328677e-05 -1.026744e-06 -7.851616e-07
1.330675e-05 9.231298e-07 7.502198e-07
5.752678e-06 -7.456384e-06 -1.505787e-06
4.263528e-07 -9.867367e-06 1.912314e-06
1.228211e-05 4.097517e-06 -1.453829e-06
-4.478548e-06 1.129547e-05 2.079867e-06
-4.029001e-06 9.412569e-06 -2.110869e-06
-1.661853e-07 1.276999e-05 -1.647194e-06
-2.250388e-06 9.907904e-06 2.074873e-06
1.187263e-05 -2.907956e-21 -2.190775e-06
2.999016e-06 8.358400e-06 -3.236962e-07
-5.027506e-06 -7.465823e-06 -8.003487e-07
-2.184186e-06 -1.184139e-05 2.128661e-06
-8.553425e-06 -7.766516e-06 2.269824e-06
-1.542991e-06 8.722489e-06 -5.376701e-08
3.257114e-06 8.505246e-06 -1.044252e-06
1.145292e-05 3.475205e-06 2.157248e-06
-9.901772e-06 -7.947613e-06 -1.716625e-06
-7.536209e-06 -8.870042e-06 2.253283e-06
-1.111091e-05 -8.361448e-07 -2.303443e-06
1.270216e-05 -3.111131e-21 -1.711847e-06
-1.219098e-05 5.416419e-06 -7.463001e-07
-1.207331e-05 -4.655703e-06 1.463252e-06
8.662161e-06 2.414012e-06 7.768855e-07
-7.671122e-06 -7.527821e-06 2.266182e-06
7.589866e-06 -5.077503e-06 -1.090295e-06
-2.701998e-06 8.723073e-06 -1.090875e-06
3.422319e-06 1.249975e-05 -1.438699e-06
8.913899e-06 5.161474e-06 2.136800e-06
-1.334960e-05 1.010778e-06 -5.887567e-07
1.085608e-05 -7.845266e-06 -5.643064e-07
1.326517e-05 -3.249030e-21 -9.369250e-07
-7.163403e-07 8.946808e-06 7.282699e-07
-5.560947e-06 1.155357e-05 -1.595596e-06
9.603598e-06 -5.520238e-07 -1.711847e-06
8.707273e-07 1.272561e-05 -1.662397e-06
-6.425433e-06 -7.012322e-06 1.607573e-06
-7.486503e-06 1.106369e-05 6.897423e-07
-7.881149e-06 6.970199e-06 2.212946e-06
-4.768412e-06 -8.736603e-06 -1.961596e-06
-1.257940e-05 -2.040657e-06 1.673375e-06
9.657167e-06 8.479196e-06 1.564669e-06
-7.820958e-07 8.822689e-06 0.000000e+00
-5.333586e-06 1.029339e-05 2.262582e-06
-8.126087e-06 -7.439901e-06 -2.299056e-06
2.999268e-06 9.144635e-06 -1.715867e-06
-6.239324e-06 1.120244e-05 1.594992e-06
9.976564e-06 8.872866e-06 7.124145e-07
-1.174730e-05 3.634708e-07 -2.226116e-06
2.985690e-06 1.259829e-05 1.454238e-06
-5.895876e-06 -6.620299e-06 -1.893735e-07
-1.149044e-06 1.332467e-05 6.383083e-07
1.993156e-06 8.900307e-06 1.069759e-06
-8.857399e-06 6.049940e-10 -2.280933e-08
[...]
POINT_DATA 1724
VECTORS 10.000GHz_fone_imag double
-1.731929e+10 -3.099437e+10 -9.179662e+08
-4.117601e+10 -7.707976e+10 -2.084340e+08
3.906039e+10 -4.537423e+10 7.957983e+08
2.623811e+10 7.237333e+10 -2.522189e+09
-4.024771e+10 1.415070e+10 9.485092e+08
-7.740203e+10 4.455275e+10 -8.726007e+08
4.114060e+10 4.089983e+10 2.136410e+08
-9.405464e+10 5.127589e+10 1.816747e+09
9.544192e+10 6.315761e+10 5.630765e+08
-8.233316e+10 7.808613e+09 1.976802e+09
-3.449570e+10 1.410867e+11 -1.381181e+10
-1.548768e+10 -3.348345e+10 -3.372406e+09
1.450361e+10 -6.718532e+10 -3.131413e+09
4.695662e+10 9.981709e+09 1.699125e+06
-4.388315e+10 2.084265e+10 -9.996099e+08
-2.406616e+10 3.463136e+10 -4.606582e+08
-4.420148e+10 2.542006e+09 2.782098e+09
-1.041652e+11 -3.881995e+10 -1.582867e+09
-4.143427e+10 3.617783e+10 -1.661520e+09
5.303351e+10 -1.367646e+10 -2.976431e+09
9.315387e+09 -3.672592e+10 3.834736e+09
1.941622e+10 -8.842006e+10 -4.270172e+08
-1.347963e+10 -3.367386e+10 1.083522e+09
-3.053819e+10 -4.411296e+10 -7.881009e+08
1.562229e+10 -2.919610e+10 -1.083304e+09
2.140775e+10 8.189861e+10 -5.338527e+08
5.796508e+10 -2.759356e+10 1.572507e+09
-2.004988e+10 -3.769918e+10 -1.289616e+09
-2.934541e+10 3.816811e+10 3.978769e+08
6.825031e+10 4.148224e+10 -2.356636e+09
6.391639e+10 -7.911817e+10 1.464488e+08
-7.210454e+09 6.843005e+10 1.032782e+09
3.383877e+10 -1.814228e+10 -1.506200e+09
-1.142166e+10 -3.862555e+10 -4.103366e+09
-1.376366e+10 8.512928e+10 4.381550e+09
6.389707e+10 -1.683001e+10 -6.397864e+08
-2.387782e+10 1.885865e+10 9.470001e+08
-1.704669e+10 -6.046357e+10 -1.689795e+09
-1.709500e+09 8.639170e+10 -1.118302e+09
5.536199e+10 1.267893e+11 -4.176406e+09
-3.322514e+10 -2.386341e+10 -1.245447e+09
8.323476e+10 -1.434556e+10 -5.821208e+09
-1.496700e+10 4.159253e+10 2.053733e+08
-1.559777e+11 -2.763192e+10 -1.517286e+10
-9.093429e+09 -4.180360e+10 1.638572e+09
4.274690e+10 -2.132284e+10 2.626596e+09
5.409948e+10 1.028571e+11 -2.517667e+09
-7.797506e+10 1.197110e+10 -2.109606e+08
-4.131732e+10 6.361407e+10 1.922491e+09
5.844392e+10 3.954759e+09 4.645965e+09
-5.817228e+10 3.661008e+10 -6.033880e+09
-2.330597e+10 4.168159e+10 -8.744496e+08
3.848463e+10 1.431163e+10 -7.389688e+08
5.745088e+10 1.880185e+10 1.709369e+09
3.796686e+10 2.163134e+10 1.064257e+09
-7.292731e+09 -4.495116e+10 -1.997780e+09
-3.496816e+10 6.726604e+10 -5.543619e+08
1.602175e+10 5.653072e+10 -5.066326e+09
6.560176e+10 8.667149e+10 3.992183e+09
2.840167e+10 -7.489034e+10 2.316524e+09
8.535577e+10 7.883247e+10 1.202650e+10
-2.518932e+10 3.048494e+10 1.208681e+09
3.034627e+10 1.518032e+10 1.877766e+09
-1.010910e+10 1.025286e+11 -9.628249e+08
-5.242706e+10 -6.227563e+09 1.699917e+09
-4.272731e+10 1.010061e+11 -5.177367e+09
-3.455230e+09 -4.544689e+10 -8.671488e+08
-8.435420e+10 5.114112e+10 -7.420115e+08
-8.566543e+10 -8.003553e+10 2.805784e+09
-9.424089e+10 -2.125566e+10 -6.811905e+08
-2.252458e+10 4.156049e+10 -2.743323e+09
3.488977e+10 -4.916954e+10 -9.252580e+08
-2.669929e+10 -5.723170e+10 2.833535e+09
-7.673742e+10 8.095249e+10 -7.760161e+09
-2.986294e+10 -2.605259e+10 -1.044029e+09
1.349973e+11 -1.281190e+10 -4.286697e+09
1.769503e+10 3.243485e+10 -4.744003e+09
9.299681e+07 -4.662890e+10 -1.443316e+08
7.939244e+10 -9.563523e+09 -1.866730e+08
9.379060e+10 -4.348584e+10 -1.854489e+09
-3.614851e+10 3.530701e+10 -3.982803e+09
-5.882015e+09 4.193140e+10 4.422401e+09
1.649562e+10 4.041289e+10 -3.839417e+09
-4.126373e+10 1.284326e+11 3.939340e+09
-3.489654e+10 1.251768e+09 1.958424e+09
6.225414e+09 5.575123e+10 2.520749e+09
3.709654e+10 -3.576875e+10 1.731830e+08
-7.897404e+10 -5.662122e+10 1.917696e+09
-2.067531e+09 -4.835773e+10 2.308594e+09
-1.964742e+10 -5.275736e+10 -3.243502e+09
4.250073e+10 -2.099292e+10 7.258357e+08
2.647435e+10 2.637488e+10 -1.177301e+09
-6.056087e+10 -6.711815e+09 -2.054707e+07
4.409486e+10 1.030539e+11 -5.896762e+09
-1.270335e+10 3.924898e+10 -1.575205e+09
1.845562e+10 -4.944394e+10 3.958899e+08
3.153164e+10 4.288113e+10 1.709752e+09
-1.007071e+11 -9.660600e+10 9.852278e+08
2.050681e+10 4.609735e+10 -8.629930e+08
1.213611e+09 -5.033176e+10 1.533043e+09
7.158349e+09 -8.368858e+10 -2.823640e+09
8.321009e+10 -6.112128e+10 1.206616e+09
-6.476428e+10 -8.821575e+10 1.327289e+10
-6.725072e+10 8.665994e+10 -3.228712e+07
-1.857815e+10 -4.714129e+10 5.319116e+08
-1.017923e+11 2.710303e+09 2.231598e+09
-4.451019e+10 -4.369322e+10 -2.653879e+09
-2.891193e+10 1.265704e+11 -6.556404e+09
2.438818e+10 -3.245171e+10 5.034092e+08
-3.527459e+10 -7.593800e+10 3.615236e+09
5.569111e+09 -7.457264e+10 5.195415e+08
-1.897390e+10 -9.327632e+10 -1.091708e+09
4.208329e+10 -9.519288e+09 4.073521e+09
-3.020064e+10 2.697058e+10 1.420215e+09
3.312466e+10 -1.946434e+10 3.282527e+09
2.601098e+10 1.997642e+10 1.788463e+07
3.901311e+10 3.372184e+10 -1.608458e+08
4.197832e+10 -2.040600e+09 2.505291e+09
-7.622327e+10 -6.506224e+10 -1.151469e+09
-5.657340e+10 6.646193e+10 6.749113e+08
-4.806342e+10 -5.694436e+10 -3.362616e+09
9.896450e+09 -9.870629e+10 3.382810e+09
1.408035e+10 7.221111e+10 1.904306e+09
-4.271861e+10 9.594443e+09 -2.232124e+09
5.321128e+09 4.294600e+10 -3.687087e+09
-3.072031e+10 5.521989e+10 3.960650e+09
-3.901244e+10 4.954969e+10 -1.061996e+09
-3.910295e+10 -9.395510e+08 -3.425531e+09
2.656008e+10 3.130648e+10 3.811277e+08
1.626197e+09 -4.599899e+10 8.836396e+07
3.094067e+10 -2.289339e+10 1.306811e+09
2.046100e+10 5.125751e+10 -1.023140e+08
1.111193e+09 -1.005267e+11 -9.872103e+08
2.799438e+09 -4.726565e+10 1.241379e+09
-1.714875e+10 4.908030e+10 -2.786178e+09
-2.121251e+10 -4.905327e+10 1.277860e+09
9.791635e+10 2.473504e+10 -1.427035e+09
-6.042367e+10 6.399105e+10 -6.770707e+08
2.093732e+10 2.396035e+10 1.493341e+09
5.539753e+10 -2.933191e+09 1.728414e+08
-5.722278e+10 -3.202095e+10 -8.287866e+07
-7.862286e+10 -2.736101e+10 1.343485e+09
2.091577e+10 1.523322e+11 1.496674e+10
2.376682e+08 -1.297293e+11 -6.613123e+09
-5.005929e+10 7.184680e+09 -3.109879e+08
4.676555e+10 -6.302136e+10 8.375801e+08
-2.477827e+09 -3.842737e+10 -2.570381e+08
-3.467686e+10 -2.876706e+10 -6.818974e+08
-1.141341e+11 -8.882549e+10 2.290982e+09
1.903637e+10 5.200213e+10 -1.962767e+08
2.035068e+10 -3.471197e+10 -4.661301e+08
9.083050e+10 -5.671376e+10 4.515045e+09
-4.128968e+08 3.960867e+10 -3.644622e+08
-2.862528e+09 4.289948e+10 -4.988153e+08
2.626269e+08 -1.031836e+11 8.288077e+08
-2.609482e+10 3.399111e+10 2.096717e+07
2.683794e+10 5.248147e+10 2.899977e+08
-7.552401e+10 -3.020805e+10 -2.681474e+09
-9.061427e+10 5.587893e+10 5.107010e+09
-5.749648e+10 -9.242509e+10 5.814395e+09
1.968227e+10 -4.433787e+10 -2.281176e+09
-1.080421e+11 2.089877e+10 -1.096217e+09
5.567130e+10 -5.997931e+10 -2.022673e+09
-8.628591e+10 -1.504454e+11 1.995378e+09
-6.642534e+10 1.219915e+11 7.003493e+09
-3.007995e+09 -1.494551e+11 1.016693e+09
-3.834948e+10 -8.294544e+10 -1.286869e+09
-3.419276e+10 -3.412601e+09 3.292611e+09
-3.517168e+10 9.157737e+10 1.060304e+09
-3.245952e+10 -1.046978e+11 1.866928e+09
-8.003351e+09 5.620992e+10 3.087897e+09
-3.951526e+10 2.001298e+10 -9.994442e+08
-3.553232e+10 -8.566677e+09 2.045898e+09
-7.999686e+10 -3.725739e+09 9.080500e+08
1.968260e+10 -2.756093e+10 -3.227381e+08
-8.068130e+10 -5.819866e+10 1.508302e+09
-7.280670e+08 -8.621879e+10 -4.467018e+08
3.637646e+10 2.889020e+10 2.080288e+09
-5.280405e+10 -5.192633e+10 5.972886e+08
-1.845422e+10 -9.349925e+10 2.345426e+09
3.435639e+10 -1.260061e+10 2.802084e+08
3.946622e+10 2.614175e+09 -6.247284e+09
-1.031276e+11 -9.868788e+10 -9.721818e+09
-2.793897e+10 -5.464273e+10 2.946469e+09
5.595849e+10 1.349112e+10 4.756687e+08
-4.952623e+10 -7.080185e+10 -5.998032e+09
-5.330289e+09 -3.702409e+10 2.128042e+09
-9.887590e+09 -8.231243e+10 4.293418e+08
-2.850146e+10 3.321606e+10 3.244668e+09
-1.556013e+09 -3.808997e+10 2.115704e+09
1.518150e+09 -4.424709e+10 1.418088e+09
-9.725592e+10 -7.242401e+10 4.094826e+09
-8.718330e+10 7.496329e+08 2.090523e+08
1.262265e+10 -4.441369e+10 2.070841e+09
4.539485e+10 1.666674e+10 -7.524501e+08
7.844813e+10 3.163619e+10 -3.813722e+09
5.701863e+10 8.274666e+08 -2.067275e+09
8.816003e+10 2.176095e+10 -1.235317e+09
4.488742e+09 -6.037187e+10 3.195716e+09
1.266501e+11 -4.782964e+10 -7.162039e+09
-1.205320e+11 7.907643e+10 2.774063e+09
-5.945839e+10 1.067626e+10 -5.584138e+08
-3.863774e+10 4.756513e+10 6.827490e+07
1.336285e+11 2.550676e+10 2.518806e+09
9.451825e+10 -3.800346e+10 5.711456e+08
1.688962e+10 -5.959200e+10 3.384085e+09
-2.743064e+10 3.588794e+10 2.285091e+09
-5.833715e+10 4.278411e+10 -2.096112e+09
-1.202379e+10 7.202612e+10 -4.840497e+07
2.305708e+08 -4.112698e+10 8.721841e+08
1.433187e+10 3.467057e+10 5.699052e+09
-1.292271e+10 3.286119e+10 -2.255840e+08
3.431314e+10 -1.124593e+11 9.512747e+09
-5.933132e+10 5.902983e+10 4.482483e+08
-7.456508e+10 -1.154983e+11 -5.498484e+09
1.433133e+11 4.993207e+10 -2.646534e+09
3.899266e+10 -1.074010e+10 -1.581576e+08
3.169980e+10 -5.894781e+10 -2.783290e+09
3.367508e+09 4.605186e+10 9.631272e+08
-2.250385e+10 -2.954944e+10 3.317484e+09
-2.046643e+09 -4.487026e+10 -1.655092e+09
1.339001e+11 1.728210e+10 -2.705746e+09
4.060262e+10 1.898009e+10 -6.856582e+08
7.514126e+09 -1.120689e+11 -5.476861e+09
5.651595e+10 -5.826107e+09 5.274450e+06
-8.435376e+10 7.835174e+10 8.410518e+09
2.573055e+10 1.933761e+10 6.635692e+08
4.775291e+10 5.233772e+10 -4.627723e+09
-8.388189e+10 4.948294e+10 -6.768964e+09
-9.265991e+09 4.901791e+10 -4.623412e+08
3.630210e+10 -4.045633e+10 -1.678597e+09
1.280435e+11 1.660298e+10 3.347062e+08
6.673569e+10 3.367892e+10 1.682347e+08
-6.175299e+10 6.461116e+10 -4.803416e+08
1.255837e+11 -4.005814e+10 -2.670009e+09
3.677050e+10 2.090155e+10 -7.290496e+08
2.469783e+10 -3.073813e+10 4.424293e+07
-2.948373e+08 6.933976e+10 3.096407e+08
4.643727e+10 -9.562203e+09 1.396030e+09
-1.105337e+11 1.003813e+11 4.645435e+08
3.356923e+10 2.044360e+09 -1.647640e+08
1.046813e+11 -2.516930e+10 -5.103087e+09
5.937394e+09 1.151580e+11 1.299487e+09
-3.195009e+10 -2.213518e+10 -4.027316e+09
4.505017e+10 6.669261e+10 -3.565739e+08
2.896857e+10 -1.092127e+11 -3.237326e+08
-3.687434e+10 -6.185312e+10 -5.918261e+09
-7.683707e+10 5.968328e+09 1.372804e+09
-6.574012e+08 3.200405e+10 1.338263e+09
6.334364e+10 3.594575e+10 -2.765691e+09
-4.907640e+10 -8.642188e+10 -6.120683e+08
8.414792e+09 1.329935e+11 5.366316e+09
5.185227e+10 -2.992173e+10 -1.223663e+09
-1.041554e+11 -3.160423e+10 6.433901e+09
1.119084e+10 -4.935667e+10 1.490415e+08
3.074090e+10 -4.486418e+10 -3.175214e+08
4.757494e+10 2.647453e+10 -1.600182e+09
1.450218e+10 3.427208e+10 -1.162082e+09
-5.265005e+10 -3.799768e+09 -3.702435e+08
2.774030e+08 9.463808e+10 -3.861224e+09
1.356084e+11 -2.625847e+10 1.476418e+10
-5.047005e+10 -1.232973e+11 -1.346173e+09
-8.845355e+09 3.575142e+10 4.853639e+09
-5.213957e+09 -5.461355e+10 -2.207079e+09
5.822296e+10 -5.928025e+10 -3.142404e+08
-9.702978e+10 -2.069882e+10 1.139045e+10
-7.348719e+10 8.390807e+10 -3.043788e+09
2.666980e+10 -1.008838e+11 -1.402212e+09
-2.161109e+10 1.195246e+11 1.744894e+09
2.523998e+10 5.194223e+10 2.401249e+09
5.335740e+10 -1.191111e+11 -1.499322e+09
3.204511e+10 -2.699852e+10 -1.193005e+09
4.026184e+10 3.489158e+10 -2.001132e+09
-7.239483e+09 -5.044169e+10 1.019029e+09
8.542190e+09 -4.159246e+10 -6.602709e+08
-3.475477e+10 2.905142e+10 -1.670227e+09
-2.205527e+08 -4.604508e+10 -9.118960e+08
-1.524960e+09 -4.354608e+10 2.590720e+08
5.754075e+10 4.181390e+10 -3.575258e+07
3.439933e+10 -3.395719e+10 -2.331401e+09
-6.965956e+10 1.247223e+11 -1.511924e+09
-1.242650e+11 -7.362765e+08 7.334828e+08
1.722504e+10 -8.321592e+10 -2.285861e+09
3.368055e+10 4.239391e+10 -9.912034e+08
-1.393742e+10 3.291246e+10 -2.381176e+09
-7.648963e+10 -1.132825e+09 1.555479e+09
-5.025036e+10 9.712145e+10 7.429000e+08
9.883608e+10 3.981717e+10 -6.799036e+09
-6.811926e+10 -8.303051e+10 1.840130e+10
-1.476080e+10 6.610338e+10 2.311079e+08
1.358469e+10 4.292848e+10 -5.003786e+06
3.777693e+10 9.515550e+10 2.082170e+09
-3.275665e+10 1.793131e+10 -4.388058e+09
1.673195e+10 -3.843683e+10 -9.171765e+08
-4.666283e+10 -4.547485e+10 -1.257973e+09
-1.873808e+10 -4.054501e+10 -6.923527e+08
1.883716e+10 7.634109e+10 -4.908447e+08
-4.367607e+10 -5.188502e+10 4.373548e+09
3.141558e+10 2.925915e+10 2.017375e+09
-3.673296e+10 -4.554148e+10 -9.717104e+08
-6.648743e+10 -4.630093e+10 -1.741411e+09
4.748195e+10 -4.713734e+10 1.965426e+09
-2.649703e+10 4.015478e+10 -1.219006e+09
2.680591e+10 -2.105656e+10 6.944910e+08
3.968813e+10 -6.239129e+09 2.978294e+09
-3.608497e+10 1.044632e+11 3.687798e+09
7.218101e+10 -1.378354e+11 7.491701e+09
4.642977e+10 5.241353e+10 -3.761638e+09
-4.287253e+10 -5.983738e+10 8.907145e+08
6.247124e+10 -1.297577e+11 -2.813371e+09
1.073678e+09 6.322030e+10 1.793154e+09
-5.965939e+10 7.567501e+10 -1.193241e+09
2.477534e+10 -4.093807e+10 3.338744e+09
-3.335921e+10 1.095860e+11 -2.202564e+09
-1.069222e+11 -4.166301e+10 4.298593e+09
-3.640484e+10 -2.306442e+10 4.688253e+09
7.519487e+10 1.034885e+11 2.856847e+09
8.361820e+10 -6.423430e+10 -4.490904e+08
-2.799951e+10 -4.223826e+10 2.282992e+09
3.998115e+10 -7.025619e+10 -2.235728e+09
1.464671e+10 1.285710e+11 -4.267485e+09
-2.203757e+10 -5.791008e+10 -3.415205e+09
2.666226e+10 1.096621e+11 -2.058297e+09
-3.297821e+10 -3.308598e+10 2.659664e+08
-8.228414e+10 5.889265e+10 2.476014e+09
-8.648629e+10 -2.298771e+10 1.151953e+09
8.199834e+10 3.758641e+10 2.680910e+09
4.048651e+10 -3.395014e+10 2.161442e+09
-8.304823e+10 -2.197798e+10 -8.105076e+08
6.117246e+10 8.227073e+10 1.664441e+09
-1.157219e+11 3.268023e+10 4.220980e+09
3.432082e+10 3.362319e+10 -8.636757e+08
4.229505e+10 6.085915e+10 -4.214771e+09
-6.957540e+09 6.456376e+10 -4.139494e+08
-3.903110e+10 2.042515e+10 1.742796e+09
-4.734652e+10 -2.203288e+10 -2.313221e+09
-4.953254e+10 3.885609e+10 1.446233e+09
-1.429991e+10 -5.765527e+10 5.334732e+08
1.116054e+11 -5.894462e+10 -4.329056e+09
6.192731e+10 -3.951866e+09 -1.575924e+09
6.504467e+09 1.093782e+11 -1.008187e+09
7.976807e+10 9.176851e+10 -3.006251e+09
-7.281766e+10 -1.231827e+11 1.103834e+10
-1.048217e+11 5.139098e+10 9.572489e+09
-1.164035e+11 7.401398e+10 -3.939750e+09
1.269641e+10 -5.241440e+10 -2.483131e+09
6.699249e+10 -3.404224e+09 -5.980958e+09
-3.977039e+10 -1.038954e+10 1.802525e+09
9.958415e+10 3.565479e+10 7.301783e+08
-3.188469e+10 -3.725090e+10 4.609239e+08
2.496411e+10 6.533623e+10 2.346510e+09
8.748271e+09 2.879354e+10 -1.741327e+09
1.112186e+11 -1.194949e+10 2.217667e+09
-5.602555e+10 -2.640244e+10 -4.488335e+07
8.517762e+10 -8.625544e+09 2.635659e+09
7.787456e+10 5.865819e+10 -1.311253e+09
7.299140e+10 9.182064e+10 2.279031e+09
9.101391e+10 -1.194325e+10 5.575323e+08
9.203337e+10 5.165664e+10 -4.641828e+09
5.155149e+10 -1.145562e+11 -5.470204e+09
-3.282564e+10 -3.360979e+10 6.312854e+08
3.849100e+10 1.772778e+10 1.635700e+09
-1.262849e+10 -3.526925e+10 1.791128e+09
2.308817e+10 -4.251925e+10 -5.839741e+08
-2.330276e+10 3.016189e+10 -4.517852e+08
-2.173046e+10 -4.007411e+10 -3.553694e+09
-3.752994e+09 1.130777e+11 4.892910e+09
5.172019e+10 -3.441843e+10 -9.523960e+08
-1.070823e+10 1.006474e+11 3.838532e+09
-1.110257e+10 4.348602e+10 1.881895e+09
8.361045e+09 -6.006608e+10 -8.811967e+08
-6.949873e+10 -7.199785e+10 -1.618659e+09
7.155842e+10 -1.011768e+11 -3.329343e+09
-2.466385e+10 4.352054e+10 1.226611e+09
1.006999e+11 -4.781361e+10 3.854443e+09
-1.681443e+10 -3.087729e+10 2.849666e+08
7.206630e+10 -7.410681e+10 -3.224595e+09
5.322913e+10 -1.852905e+10 1.016207e+09
7.276806e+10 6.008046e+10 -1.607366e+09
4.034340e+10 1.220308e+10 1.702822e+09
-7.439757e+10 6.082928e+10 -5.328829e+09
1.731086e+10 3.184189e+10 -5.813236e+08
-5.419613e+10 -1.834602e+10 9.370262e+07
6.746396e+09 -5.113504e+10 4.472552e+08
-4.817616e+10 7.942811e+09 3.082695e+06
-1.707300e+10 -4.273434e+10 -4.071063e+08
2.574406e+10 -5.616906e+10 1.323740e+09
1.044675e+11 -7.761774e+10 5.790831e+09
-3.928984e+10 -2.773924e+10 4.570155e+09
5.117411e+10 7.017912e+09 7.033156e+08
-1.070371e+11 1.535693e+10 1.314834e+08
1.572266e+10 -3.663099e+10 3.901405e+09
-4.622410e+10 2.063895e+10 -2.234441e+09
-8.069327e+09 -9.503724e+10 1.183075e+08
1.060220e+11 6.040499e+10 7.877201e+08
1.120423e+11 3.914799e+10 2.690028e+09
-1.237244e+11 -5.077866e+10 -6.175109e+09
5.916926e+10 -1.824642e+10 1.055844e+09
2.768362e+10 1.161231e+11 -3.180494e+09
7.368438e+10 -7.005360e+10 -8.504637e+08
3.536108e+10 -5.718788e+10 5.316025e+08
6.936552e+08 -6.253135e+09 1.059209e+08
4.687756e+09 -3.404875e+09 2.191950e+08
2.244942e+09 4.879160e+09 6.681796e+08
-5.240779e+09 -2.995808e+09 2.761801e+08
2.568121e+09 -6.749121e+09 1.018860e+07
4.648531e+09 3.926609e+09 -1.244702e+08
-8.555848e+10 -5.452573e+10 1.145317e+09
-2.461103e+09 5.759583e+09 -4.777545e+08
-5.032931e+09 3.493534e+09 3.063334e+08
4.374669e+07 5.865685e+09 -7.152625e+07
-5.902296e+09 8.648705e+08 2.138144e+07
-3.172370e+09 -5.072490e+09 6.889823e+07
-2.343600e+09 -5.344460e+09 -2.690411e+08
-4.919272e+09 -5.179519e+09 2.413937e+08
3.029080e+09 -4.859435e+09 -6.545743e+07
6.432428e+09 2.499007e+09 3.886523e+08
5.885676e+09 3.585194e+08 3.052696e+08
-1.109288e+10 -3.857342e+10 1.494877e+09
-3.890834e+09 3.739644e+09 2.078746e+08
-1.148949e+09 -4.991939e+09 -2.620816e+08
-6.046392e+09 2.300219e+09 -1.338863e+08
5.420420e+09 -1.243261e+09 -2.708971e+08
-6.201488e+09 -8.878085e+08 -1.582824e+08
4.900481e+09 3.130139e+09 -1.714863e+08
9.680246e+08 5.045231e+09 -1.170187e+07
3.618306e+09 -4.303616e+09 1.046256e+08
-1.575863e+09 5.598904e+09 1.622602e+08
-3.354287e+09 5.559516e+09 -3.082471e+08
1.224137e+10 -3.530845e+10 1.543387e+08
-6.319852e+09 -2.030168e+09 -2.046592e+08
1.867735e+09 4.506991e+09 1.857350e+08
6.257666e+09 -1.877836e+09 -1.538594e+08
5.677193e+09 2.484331e+08 4.454610e+07
8.689441e+08 2.902536e+09 -7.295703e+08
8.078038e+09 5.485134e+09 8.307118e+08
-2.288880e+09 2.422617e+10 -4.152070e+08
1.004659e+10 -1.730925e+09 -4.316811e+08
-3.049168e+10 -3.921112e+10 3.190309e+09
1.613346e+10 -8.267742e+09 -5.228167e+07
-7.863424e+10 6.501208e+10 4.419546e+09
-5.151089e+09 1.110191e+10 -2.265935e+08
-2.975822e+10 2.561135e+10 1.599584e+09
1.055049e+10 4.995849e+10 1.129539e+08
4.749028e+10 3.519003e+10 -1.251205e+09
-7.790398e+09 -1.037519e+10 1.016747e+09
5.319055e+09 -1.869283e+10 2.807901e+08
2.289622e+10 -3.094504e+10 3.139540e+08
2.092575e+10 -1.977726e+10 -1.107098e+09
-1.758332e+10 -9.909535e+09 -1.682020e+08
-3.622950e+10 3.056691e+10 1.371317e+09
-5.231930e+10 -1.051989e+11 -2.546492e+09
-1.728256e+10 3.681598e+10 -1.633934e+09
3.875408e+09 -2.054319e+10 -1.176539e+09
-1.026781e+10 4.562356e+10 -2.895346e+08
1.456139e+10 -2.713881e+10 4.156138e+08
-6.644065e+08 -2.279854e+10 -5.020501e+07
2.611691e+10 -4.594295e+09 4.166408e+08
-1.171190e+10 -9.101984e+09 -9.301640e+08
-1.925070e+10 -8.972834e+09 1.939297e+08
-9.697275e+09 1.338829e+10 2.583876e+06
3.860567e+10 8.326037e+09 -5.202535e+07
-9.155392e+10 1.843474e+09 -2.454743e+09
2.752778e+10 -2.065584e+10 -1.812624e+08
1.779429e+10 3.238539e+10 -8.402231e+08
4.368452e+09 7.580973e+09 -1.188977e+09
2.946075e+10 4.026319e+08 -1.432705e+09
-1.024796e+09 1.910096e+10 -8.796397e+08
-3.721250e+10 -3.053053e+10 7.794739e+08
1.705705e+10 -9.619674e+09 -1.667865e+08
-1.475416e+10 2.228547e+09 8.499385e+08
-1.512659e+10 1.915575e+10 -2.994846e+08
-1.169236e+10 8.563151e+09 1.776163e+08
7.849679e+10 4.166502e+10 2.531874e+09
1.060533e+10 -8.533975e+09 6.332134e+08
-3.607280e+10 -9.758347e+09 -6.019899e+08
-8.799546e+09 -1.692971e+10 -6.452013e+08
-2.598217e+10 -8.612560e+09 4.803363e+08
2.067587e+10 2.789613e+10 2.394396e+09
-3.538727e+10 -1.709233e+10 -2.572109e+08
3.179435e+10 -5.886888e+10 -6.318502e+08
-3.908789e+10 -1.600955e+09 1.769596e+09
-2.584002e+10 -1.976617e+10 1.454020e+07
1.507514e+10 2.282328e+10 -1.993898e+08
4.084690e+10 1.084744e+11 9.377563e+08
-2.945970e+09 1.490982e+10 -5.510197e+08
-5.354695e+09 -2.369510e+10 3.565362e+08
-4.730734e+10 6.791160e+09 -1.382989e+09
3.172902e+10 3.223076e+10 -1.381419e+09
1.204730e+10 1.264375e+10 2.568993e+08
-2.115379e+10 -4.371620e+10 -5.621797e+08
-2.457292e+10 1.364284e+09 8.216413e+08