# vtk DataFile Version 2.0
Electric current density generated by TTH
ASCII
DATASET UNSTRUCTURED_GRID
POINTS 2065 double
-2.040389e-05 -8.249669e-06 -4.254878e-22
-8.109078e-06 -1.734800e-05 1.326519e-06
7.455213e-06 -1.952899e-05 -1.618037e-06
-3.967168e-06 -1.846556e-05 1.049342e-06
-4.018376e-06 1.845594e-05 -1.051223e-06
-1.860853e-05 1.132874e-05 8.511846e-07
-1.860853e-05 -1.132874e-05 -8.511846e-07
-2.795536e-06 -2.160604e-05 -8.504368e-07
8.084735e-06 2.020938e-05 8.844632e-07
-2.125596e-05 4.561490e-06 9.280089e-07
1.941396e-05 -1.001506e-06 1.525219e-06
-2.001027e-05 -9.163241e-06 -4.254878e-22
1.947583e-05 1.082613e-06 1.559448e-06
-1.497980e-05 1.095298e-05 2.807098e-07
-1.497980e-05 -1.095298e-05 -2.807098e-07
-3.719392e-06 -2.147292e-05 8.387189e-07
-1.686218e-05 9.459307e-06 -1.462724e-06
-1.687936e-05 -9.418877e-06 1.459672e-06
-2.072198e-05 6.833682e-06 -7.876714e-07
-1.947027e-05 2.408576e-07 1.542224e-06
-6.331508e-06 1.804868e-05 1.307022e-06
-6.331508e-06 -1.804868e-05 -1.307022e-06
-1.957577e-05 -1.005809e-05 -4.254878e-22
1.818782e-05 -3.832857e-06 4.263120e-07
1.818782e-05 3.832857e-06 4.263120e-07
2.053310e-05 4.201036e-06 1.595529e-06
2.053310e-05 -4.201036e-06 1.595529e-06
1.410175e-05 -1.291965e-05 -1.305504e-06
-1.860733e-05 1.701644e-06 7.079596e-07
1.794285e-05 5.417499e-06 -8.255481e-07
1.794285e-05 -5.417499e-06 -8.255481e-07
1.204557e-05 1.650997e-05 1.729262e-06
1.690096e-06 -2.024945e-05 -1.736509e-06
-1.910127e-05 -1.093240e-05 -4.254878e-22
-8.311620e-06 -1.822813e-05 -1.720848e-06
-8.311734e-06 1.822803e-05 1.720842e-06
5.119429e-06 1.863139e-05 1.454792e-06
-1.984931e-05 8.960604e-06 8.645214e-07
-1.985130e-05 -8.959315e-06 -8.622812e-07
-1.936297e-05 6.315755e-06 1.734553e-06
-1.936301e-05 -6.315884e-06 -1.734548e-06
-7.323219e-06 2.049818e-05 -8.835635e-07
-7.323219e-06 -2.049818e-05 8.835635e-07
9.203293e-06 1.835425e-05 -1.717462e-06
-1.858776e-05 -1.178437e-05 -4.254878e-22
-1.200132e-05 1.541434e-05 -1.573610e-06
-1.200132e-05 -1.541434e-05 1.573610e-06
-1.780937e-05 6.944666e-06 1.296839e-06
1.534226e-05 1.179183e-05 -1.472883e-06
-2.075581e-05 -2.082408e-06 1.634412e-06
7.224936e-06 1.771788e-05 1.313396e-06
1.386478e-05 1.515341e-05 -1.716417e-06
1.095283e-05 -1.583764e-05 -1.409598e-06
4.824424e-06 2.017793e-05 1.670898e-06
1.493183e-05 1.130988e-05 8.043452e-07
-1.803626e-05 -1.261226e-05 -4.254878e-22
1.535584e-05 -1.176587e-05 -1.469724e-06
-1.780250e-05 -6.983947e-06 -1.303846e-06
9.469746e-06 -1.679889e-05 -1.429424e-06
-1.815140e-05 1.209132e-05 -8.065862e-07
-1.815140e-05 -1.209132e-05 8.065862e-07
1.072574e-06 1.916063e-05 -1.360090e-06
-1.118190e-05 -1.871831e-05 -8.180119e-07
-1.117087e-05 1.872176e-05 8.230170e-07
1.581508e-05 1.231066e-05 1.721936e-06
1.184198e-05 -1.698950e-05 1.681075e-06
-1.744793e-05 -1.341439e-05 -4.254878e-22
-6.660092e-06 1.967705e-05 1.662995e-06
-6.660092e-06 -1.967705e-05 -1.662995e-06
-1.116377e-05 1.691198e-05 -1.737172e-06
-1.116377e-05 -1.691198e-05 1.737172e-06
-9.629024e-06 -1.950557e-05 9.072334e-07
-9.629024e-06 1.950557e-05 -9.072334e-07
1.480470e-06 -2.171613e-05 8.844571e-07
1.847695e-05 -2.318590e-06 5.449412e-07
1.847695e-05 2.318590e-06 5.449412e-07
4.736858e-06 1.792959e-05 -1.915037e-07
-1.682394e-05 -1.418911e-05 -4.254878e-22
2.450062e-06 -1.862569e-05 -9.010881e-07
-1.859949e-05 -1.669708e-06 -6.834939e-07
1.779203e-05 7.232684e-06 -1.372116e-06
1.779203e-05 -7.232684e-06 -1.372116e-06
-2.179644e-05 -9.859313e-07 7.895857e-07
2.166077e-05 -2.222908e-06 -8.707833e-07
2.166077e-05 2.222908e-06 -8.707833e-07
1.879435e-05 7.656845e-07 -9.391936e-07
1.879435e-05 -7.656845e-07 -9.391936e-07
-1.765280e-05 1.108328e-05 -1.640190e-06
-1.616559e-05 -1.493485e-05 -4.254878e-22
-1.765280e-05 -1.108328e-05 1.640190e-06
8.045313e-06 1.709220e-05 -1.054730e-06
6.385493e-06 -1.814392e-05 -1.394022e-06
1.482014e-05 -1.215454e-05 1.340879e-06
7.826039e-06 1.940305e-05 1.610784e-06
-1.100916e-06 -1.929153e-05 -1.455428e-06
-2.084917e-05 5.640443e-07 -1.635566e-06
-1.110905e-05 -1.734462e-05 -1.706343e-06
-1.110905e-05 1.734462e-05 1.706343e-06
-2.321724e-06 1.900033e-05 -1.319695e-06
-1.547421e-05 -1.565007e-05 -4.254878e-22
-1.918074e-05 -1.040961e-05 7.803718e-07
-1.918074e-05 1.040961e-05 -7.803718e-07
1.412270e-05 1.297099e-05 -1.347877e-06
1.146212e-05 -1.512361e-05 1.157977e-06
-2.100121e-05 1.030377e-06 1.564484e-06
-1.877557e-05 6.802494e-08 8.836379e-07
-1.710016e-05 1.186790e-05 1.649942e-06
-1.710016e-05 -1.186790e-05 -1.649942e-06
1.058719e-05 1.907999e-05 -7.860911e-07
-2.209352e-06 2.069684e-05 1.650118e-06
-1.475122e-05 -1.633333e-05 -4.254878e-22
-3.978635e-06 2.045098e-05 1.643412e-06
-3.974965e-06 -2.045270e-05 -1.643073e-06
-1.748256e-05 1.059719e-05 1.728627e-06
-1.748256e-05 -1.059719e-05 -1.728627e-06
-2.166627e-05 2.313101e-06 8.446179e-07
9.483818e-06 1.679305e-05 -1.430686e-06
-2.028653e-05 -2.132402e-06 -1.732542e-06
2.162152e-05 -2.668483e-06 8.514503e-07
2.162152e-05 2.668483e-06 8.514503e-07
-2.207598e-06 -2.070027e-05 -1.649054e-06
-1.399809e-05 -1.698321e-05 -4.254878e-22
1.050122e-05 1.528909e-05 -2.195288e-07
6.985359e-06 -1.886953e-05 1.730666e-06
-5.827935e-07 1.870966e-05 -7.792158e-07
1.061919e-05 1.907478e-05 7.640406e-07
-2.070295e-05 2.303291e-06 -1.644681e-06
-9.552335e-06 -1.851958e-05 1.642175e-06
-9.552335e-06 1.851958e-05 -1.642175e-06
3.019749e-06 1.830610e-05 2.583642e-07
4.183176e-06 -2.137466e-05 -8.610217e-07
-7.986806e-06 1.928269e-05 -1.630302e-06
-1.321636e-05 -1.759840e-05 -4.254878e-22
-7.986806e-06 -1.928269e-05 1.630302e-06
6.952448e-07 -1.958841e-05 -1.602527e-06
1.095376e-05 1.592719e-05 -1.460211e-06
1.562563e-05 -1.327677e-05 -1.721476e-06
1.562563e-05 1.327677e-05 -1.721476e-06
-1.158640e-05 -1.458108e-05 5.513116e-07
-1.158640e-05 1.458108e-05 -5.513116e-07
1.047302e-05 -1.628080e-05 1.477964e-06
1.733695e-05 -6.553724e-06 -2.305208e-08
1.733695e-05 6.553724e-06 -2.305208e-08
-1.240764e-05 -1.817764e-05 -4.254878e-22
-4.852013e-06 1.920562e-05 -1.674537e-06
1.138552e-05 1.499868e-05 9.705412e-07
8.303958e-06 -1.660488e-05 -3.284202e-07
-1.269606e-05 -1.776063e-05 -7.633152e-07
-1.269606e-05 1.776063e-05 7.633152e-07
-1.910809e-05 3.371021e-06 1.504680e-06
-1.907533e-05 -3.383696e-06 -1.486934e-06
-9.272229e-06 -1.973972e-05 -8.084421e-07
-9.331793e-06 1.971257e-05 8.068350e-07
1.813242e-05 4.696439e-06 8.027181e-07
-1.157356e-05 -1.871974e-05 -4.254878e-22
1.813242e-05 -4.696439e-06 8.027181e-07
-1.360433e-05 -1.626016e-05 1.467684e-06
-1.364139e-05 1.622850e-05 -1.467969e-06
-2.000981e-05 5.836018e-06 -1.640264e-06
1.487810e-05 -1.131884e-05 7.283350e-07
-1.667403e-05 1.110537e-05 -1.720864e-06
-1.667403e-05 -1.110537e-05 1.720864e-06
-1.246003e-05 -1.391116e-05 -6.862346e-07
-1.246003e-05 1.391116e-05 6.862346e-07
-2.148009e-05 3.589582e-06 -8.648625e-07
-1.071585e-05 -1.922360e-05 -4.254878e-22
1.938245e-05 -7.138586e-06 -1.694241e-06
1.938245e-05 7.138586e-06 -1.694241e-06
9.913060e-07 -2.082026e-05 1.640144e-06
-1.915730e-05 -1.369346e-06 1.372302e-06
7.741153e-07 2.088849e-05 -1.618351e-06
1.071948e-05 -1.779269e-05 -1.663401e-06
1.079525e-05 -1.900329e-05 -7.129770e-07
1.048484e-05 1.781988e-05 1.689501e-06
-2.045959e-05 4.785764e-06 -1.571455e-06
-1.843646e-05 -3.037743e-06 7.081091e-07
-9.836236e-06 -1.968818e-05 -4.254878e-22
1.661905e-05 -9.771441e-06 1.425740e-06
1.653975e-05 9.847184e-06 1.404612e-06
1.747774e-05 7.544117e-06 1.221775e-06
1.747774e-05 -7.544117e-06 1.221775e-06
1.643576e-05 -8.757784e-06 5.497583e-07
1.643690e-05 8.755635e-06 5.497399e-07
4.208629e-06 1.855141e-05 1.207869e-06
1.161493e-05 1.455903e-05 -5.528783e-07
-2.130749e-05 -4.680694e-06 -7.957968e-07
1.296940e-05 -1.426765e-05 -1.427493e-06
-8.936531e-06 -2.011254e-05 -4.254878e-22
1.251922e-05 1.663199e-05 -1.649218e-06
-1.856894e-05 -7.986094e-07 -4.215943e-07
1.247283e-05 1.574833e-05 1.727623e-06
-2.084152e-05 6.328743e-06 8.591350e-07
-2.084152e-05 -6.328743e-06 -8.591350e-07
-2.068858e-05 3.092120e-06 -1.612199e-06
-1.966909e-05 7.540348e-06 -1.545352e-06
-2.811082e-06 2.164456e-05 -7.745020e-07
-2.121753e-05 -5.162897e-06 7.534461e-07
2.328241e-06 -1.838736e-05 2.241902e-09
-8.018569e-06 -2.049582e-05 -4.254878e-22
-1.133127e-06 -2.175265e-05 -8.575151e-07
-9.435125e-06 1.628024e-05 9.496047e-07
-9.435125e-06 -1.628024e-05 -9.496047e-07
-2.150223e-05 -3.477497e-06 8.584464e-07
-1.340665e-06 -2.085558e-05 -1.619985e-06
1.172448e-05 -1.445318e-05 -5.099121e-07
-1.686006e-05 -8.241299e-06 -8.678450e-07
-1.686006e-05 8.241299e-06 8.678450e-07
2.250900e-07 -1.873764e-05 8.183293e-07
-1.527230e-05 1.552463e-05 8.657414e-07
-7.084226e-06 -2.083722e-05 -4.254878e-22
-1.531731e-05 -1.549836e-05 -8.429105e-07
-1.106684e-05 -1.599022e-05 -1.528808e-06
-1.106684e-05 1.599022e-05 1.528808e-06
-2.009865e-05 -5.758554e-06 -1.616585e-06
-2.009865e-05 5.758554e-06 1.616585e-06
-1.996482e-06 1.849551e-05 4.839811e-07
1.252721e-05 -1.661943e-05 -1.650937e-06
-1.065438e-05 1.572693e-05 -1.179644e-06
-1.065438e-05 -1.572693e-05 1.179644e-06
1.439684e-05 -1.641365e-05 7.611171e-07
-6.135411e-06 -2.113605e-05 -4.254878e-22
1.240682e-05 1.376938e-05 -2.968770e-08
-8.157289e-06 -1.683351e-05 -7.529785e-07
-8.157289e-06 1.683351e-05 7.529785e-07
2.179157e-05 1.437598e-06 7.486743e-07
2.179157e-05 -1.437598e-06 7.486743e-07
1.559551e-05 -1.005081e-05 2.595580e-07
-6.017891e-06 1.900644e-05 1.704586e-06
-6.017891e-06 -1.900644e-05 -1.704586e-06
-2.093025e-05 -4.096979e-07 1.605731e-06
-1.742566e-05 -8.823671e-06 -1.572137e-06
-5.174061e-06 -2.139171e-05 -4.254878e-22
-1.742566e-05 8.823671e-06 1.572137e-06
-1.283479e-05 1.524805e-05 1.703467e-06
-1.283479e-05 -1.524805e-05 -1.703467e-06
2.810426e-06 1.892643e-05 1.313065e-06
-1.822966e-05 -7.760964e-06 1.675613e-06
-1.543007e-05 -1.180925e-05 -1.520141e-06
-1.543007e-05 1.180925e-05 1.520141e-06
2.163140e-06 2.172017e-05 7.719283e-07
1.844947e-05 -2.385665e-06 -4.843885e-07
1.844947e-05 2.385665e-06 -4.843885e-07
[...]
POINT_DATA 2065
VECTORS 10.000GHz_fone_imag double
-8.651060e+09 1.776477e+10 -5.485022e+07
-4.610117e+10 2.211375e+10 -8.781673e+08
-3.255594e+10 -1.012291e+10 -2.007319e+09
-4.040353e+10 6.810616e+09 2.664848e+09
4.940952e+10 8.847495e+09 5.484630e+08
1.579799e+10 2.557110e+10 -2.490151e+09
-1.347791e+10 2.196426e+10 -1.460761e+09
-2.396743e+10 3.078952e+09 8.559678e+07
2.141848e+10 -8.764823e+09 -8.781104e+08
7.778180e+09 2.306300e+10 -5.759796e+08
-2.235674e+09 -4.782370e+10 1.113142e+09
-7.618940e+09 2.240618e+10 6.447867e+08
1.993241e+09 -4.199154e+10 -8.531966e+08
2.205964e+10 2.984082e+10 -1.772156e+09
-2.141277e+10 2.967201e+10 1.731437e+09
-2.671545e+10 2.380218e+09 -1.148573e+09
1.736749e+10 3.516905e+10 -9.111484e+08
-2.438913e+10 4.037941e+10 9.674209e+08
8.115720e+09 2.460886e+10 1.716624e+08
5.163673e+09 3.440422e+10 1.306558e+08
3.190882e+10 1.069439e+10 1.106949e+09
-4.506205e+10 1.475283e+10 1.058974e+09
-1.212611e+10 2.639735e+10 2.423321e+09
-1.050975e+10 -5.704425e+10 6.002472e+08
1.060379e+10 -5.717692e+10 -5.247342e+08
1.182996e+09 -2.566993e+10 -8.619052e+08
-1.431403e+09 -2.606527e+10 1.477591e+09
-3.193147e+10 -3.515743e+10 1.481805e+08
1.409537e+09 4.272872e+10 -2.444351e+07
1.345983e+10 -5.015084e+10 1.654619e+09
-1.340518e+10 -4.986727e+10 -1.622055e+09
2.370980e+10 -1.905583e+10 -2.536077e+09
-3.216730e+10 -3.139448e+09 -2.147797e+08
-1.627011e+10 2.852314e+10 6.184313e+08
-3.845368e+10 1.928947e+10 -1.609730e+07
3.698178e+10 1.722297e+10 -5.569336e+08
4.830578e+10 -1.599426e+10 -8.026749e+08
1.281244e+10 2.896659e+10 1.041954e+09
-7.743441e+09 2.201166e+10 -2.581989e+09
9.089782e+09 3.548549e+10 2.598984e+08
-1.040368e+10 3.541418e+10 8.064848e+08
3.271156e+10 1.276111e+10 7.839852e+08
-1.995647e+10 6.077042e+09 1.024173e+09
2.968032e+10 -1.438420e+10 -2.010174e+09
-1.468595e+10 2.032083e+10 -1.588968e+09
2.992978e+10 1.990184e+10 3.971621e+08
-2.774174e+10 2.331367e+10 3.768645e+08
1.918033e+10 4.208932e+10 2.961334e+07
2.851580e+10 -3.150391e+10 -2.080497e+09
-4.967272e+09 2.810156e+10 1.195354e+09
4.705623e+10 -1.820928e+10 4.207489e+08
2.635129e+10 -2.742079e+10 -7.059696e+08
-4.104173e+10 -2.793954e+10 1.264606e+09
3.585402e+10 -9.677571e+09 8.481893e+08
3.107529e+10 -3.340817e+10 4.197330e+09
-1.633561e+10 2.422064e+10 7.094252e+08
-2.834395e+10 -3.513526e+10 4.355089e+08
-1.038095e+10 3.093539e+10 -5.416882e+08
-2.919366e+10 -1.628830e+10 -1.403756e+08
1.474756e+10 2.347491e+10 5.006185e+08
-1.731915e+10 2.638101e+10 1.102791e+09
4.692517e+10 -3.965683e+09 -3.610141e+08
-2.860366e+10 1.704177e+10 -1.667922e+09
2.755726e+10 1.608937e+10 -1.152835e+09
1.633501e+10 -2.357653e+10 5.153179e+08
-3.129049e+10 -1.972368e+10 5.641726e+08
-1.532750e+10 1.966976e+10 2.263126e+08
3.553869e+10 1.065946e+10 -8.966255e+08
-2.268424e+10 8.153622e+09 -3.531594e+09
2.827648e+10 1.933490e+10 5.669114e+07
-2.250163e+10 1.576262e+10 8.573513e+08
-2.965324e+10 1.356659e+10 -8.128372e+08
2.813731e+10 1.357451e+10 -1.473661e+08
-2.075505e+10 -6.783048e+08 3.459469e+08
-8.325730e+09 -3.969837e+10 4.600783e+09
4.288275e+09 -4.996095e+10 -1.665155e+09
4.829930e+10 -1.288847e+10 1.356744e+09
-1.819631e+10 2.130109e+10 9.418506e+07
-5.318134e+10 -4.047270e+09 2.528546e+09
-4.765954e+09 5.095631e+10 -1.085267e+09
1.493832e+10 -3.981894e+10 -1.430271e+09
-1.291357e+10 -3.651357e+10 2.068278e+09
-1.813935e+08 2.416376e+10 -1.665238e+09
-1.433933e+09 -2.257451e+10 -2.588006e+09
1.533312e+09 -2.437099e+10 8.186321e+08
3.427735e+09 -4.591626e+10 -2.413303e+09
7.634794e+08 -4.669921e+10 -2.928930e+09
1.569878e+10 2.379808e+10 4.888209e+07
-1.931830e+10 2.103082e+10 1.302641e+08
-1.239592e+10 2.021933e+10 -2.011795e+08
3.098835e+10 -1.811584e+10 1.966750e+09
-3.872719e+10 -1.481657e+10 1.329836e+08
-2.052135e+10 -2.572351e+10 3.633990e+08
3.010293e+10 -1.475369e+10 9.507875e+08
-4.213286e+10 4.290618e+09 1.193215e+09
1.425666e+09 3.715558e+10 8.037539e+08
-2.215559e+10 1.445347e+10 -1.008745e+07
2.276343e+10 1.152967e+10 2.819969e+08
4.353135e+10 9.033953e+09 -2.274104e+09
-1.857084e+10 1.533616e+10 6.040603e+08
-1.217971e+10 2.074772e+10 1.906690e+08
1.187352e+10 2.256076e+10 1.083977e+09
2.176566e+10 -2.386618e+10 3.193582e+08
-3.765724e+10 -2.877955e+10 -1.463992e+09
2.957172e+09 3.315876e+10 1.626983e+09
-1.139348e+09 3.739978e+10 1.177894e+09
1.527767e+10 2.378262e+10 1.238451e+09
-1.584724e+10 2.115254e+10 -5.721509e+08
1.708555e+10 -1.147789e+10 2.124562e+09
3.166331e+10 7.640214e+09 -1.890740e+09
-1.448435e+10 1.591544e+10 -1.207050e+08
2.875135e+10 4.299648e+09 1.798296e+08
-2.739591e+10 5.692835e+09 1.740648e+09
1.955551e+10 3.455908e+10 5.077080e+08
-1.639834e+10 2.325239e+10 -2.740190e+09
3.653735e+09 2.479688e+10 9.108164e+07
2.710705e+10 -1.392095e+10 1.727952e+09
-3.867203e+09 4.284783e+10 5.442860e+08
-7.431664e+08 -2.023526e+10 -2.746343e+08
1.802328e+09 -1.995843e+10 1.165802e+08
-3.114191e+10 6.427480e+09 -8.805205e+08
-1.741613e+10 1.370896e+10 -2.401185e+08
4.423867e+10 -2.927348e+10 8.581674e+08
-3.253100e+10 -1.138517e+10 3.466971e+08
3.730955e+10 9.659898e+08 -1.429475e+09
2.827443e+10 -1.466974e+10 -8.606242e+08
6.566639e+09 3.664309e+10 -1.054668e+09
-2.421589e+10 1.563071e+10 1.337825e+08
2.236462e+10 1.335659e+10 -8.063558e+08
4.350025e+10 -7.209834e+09 3.000545e+09
-2.479534e+10 -7.627547e+09 9.299217e+08
2.251611e+10 8.463584e+09 1.962873e+09
-2.606382e+10 1.945134e+10 -8.125352e+08
-2.759278e+10 1.158427e+10 -2.806018e+09
-3.743617e+10 -3.808390e+09 -5.438224e+08
4.111580e+10 -2.515912e+10 -2.724009e+09
-1.709704e+10 -2.106120e+10 -3.615652e+08
2.785088e+10 -3.395310e+10 -4.250483e+08
-3.191802e+10 2.632708e+10 -2.674482e+09
2.889532e+10 2.182035e+10 -1.387666e+09
-2.466711e+10 -1.363593e+10 1.632588e+09
-9.674196e+09 -2.928350e+10 1.024946e+08
9.687243e+09 -2.971102e+10 4.108727e+07
-2.587965e+10 1.857925e+10 7.842501e+08
4.056600e+10 8.321824e+09 5.520089e+08
2.838266e+10 -2.019863e+10 1.399602e+09
-3.897948e+10 -2.183376e+10 7.977623e+06
-2.116456e+10 1.424565e+10 8.634655e+08
2.412995e+10 1.678496e+10 2.453253e+08
9.485881e+09 4.623784e+10 -8.000606e+08
-7.834164e+09 4.126967e+10 -5.496484e+08
-2.048663e+10 7.362334e+09 2.402567e+08
2.663687e+10 1.327165e+10 -5.828013e+08
9.999064e+09 -4.272812e+10 -1.969633e+09
-2.129680e+10 1.261462e+10 8.939819e+08
-9.959785e+09 -4.266470e+10 2.158127e+09
-3.035466e+10 2.784508e+10 9.273129e+08
2.675958e+10 2.238104e+10 7.187538e+07
1.012787e+10 3.794119e+10 5.032681e+08
-3.190756e+10 -3.909171e+10 -3.049011e+09
2.139066e+10 3.445581e+10 -3.579731e+07
-2.373694e+10 3.168875e+10 5.422330e+08
-3.505722e+10 2.482544e+10 -2.752328e+08
3.781567e+10 3.188927e+10 -1.064297e+09
5.300271e+09 3.037791e+10 -4.059873e+08
-2.669985e+10 1.572142e+10 -3.416071e+09
-8.448236e+09 -2.932479e+10 2.290787e+09
9.273401e+09 -3.103368e+10 -1.885251e+09
-2.826679e+10 -3.070299e+09 -1.395236e+09
-3.566338e+09 3.289494e+10 -6.905930e+08
3.854027e+10 -6.670325e+08 -3.078286e+08
-2.359156e+10 -1.507212e+10 -9.805832e+08
-2.429848e+10 -1.559654e+10 3.752539e+08
2.551811e+10 -1.629726e+10 -2.977163e+08
6.462224e+09 2.723047e+10 -3.135671e+09
-1.004204e+10 4.623770e+10 -6.547343e+08
-2.973503e+10 1.506400e+10 -2.181273e+08
-1.794836e+10 -2.950548e+10 -1.027139e+09
1.922418e+10 -3.209290e+10 1.065879e+08
1.681071e+10 -3.907688e+10 -3.088451e+07
-1.721725e+10 -4.055889e+10 2.567671e+08
-2.953273e+10 -5.336357e+10 1.938974e+09
2.863614e+10 -5.079288e+10 -2.340585e+09
4.572882e+10 -1.181183e+10 1.210323e+09
2.588475e+10 -2.539710e+10 1.617020e+09
-7.176100e+09 2.811033e+10 5.767820e+08
-3.070415e+10 -3.146042e+10 -1.983714e+09
-2.358374e+10 7.257617e+09 1.458497e+09
2.104710e+10 -1.533151e+10 -1.732992e+09
-1.939857e+09 4.803915e+10 2.252011e+07
2.295907e+10 -1.997166e+10 2.365759e+09
7.571490e+09 3.072897e+10 1.296268e+07
-6.097590e+09 2.262820e+10 7.027591e+08
2.945170e+09 2.782018e+10 1.339713e+09
1.008863e+10 2.568313e+10 -2.596906e+08
2.787751e+10 4.772928e+09 7.096939e+08
-6.088113e+09 2.433367e+10 -1.718805e+09
-3.960243e+10 -2.414184e+09 5.548770e+08
-1.915433e+10 1.045870e+10 5.135248e+08
-2.544381e+10 4.412643e+08 -1.207819e+09
3.963967e+10 2.581369e+10 1.496797e+09
-3.858148e+10 2.558172e+10 1.720068e+09
-4.742332e+09 2.451776e+10 -6.370696e+08
-3.686343e+10 -1.053016e+09 7.321848e+08
-3.506729e+10 -2.113929e+10 -1.930920e+08
-1.935499e+10 3.548077e+10 9.266211e+08
2.129411e+10 3.801852e+10 -5.742940e+09
-5.443147e+10 -1.422742e+09 -5.435638e+09
1.688997e+10 1.570759e+10 8.164728e+05
-2.280154e+10 7.696931e+09 -1.754343e+09
-1.799006e+10 1.736023e+10 1.159934e+09
-3.811044e+10 2.644397e+10 8.364636e+07
3.838633e+10 2.491185e+10 -2.886657e+08
-6.817964e+09 3.461937e+10 -1.691310e+09
4.368104e+09 2.700179e+10 -1.104676e+09
4.522533e+10 4.846617e+09 1.027566e+09
-2.916670e+10 -1.714014e+10 -1.954230e+09
3.066672e+10 2.113576e+10 -3.761708e+08
-3.257750e+10 2.252458e+10 -2.143030e+09
-2.257190e+10 -2.080344e+10 1.129887e+08
-3.013647e+10 8.189100e+09 7.172151e+08
2.606948e+10 -2.675524e+10 1.554651e+09
-3.535833e+10 1.914656e+10 1.383984e+09
3.750435e+10 1.783738e+10 3.509321e+09
1.851024e+09 -2.170972e+10 1.460883e+09
-4.191906e+09 -2.492407e+10 -3.104369e+08
-3.051295e+10 -4.722666e+10 3.012700e+09
3.881289e+10 9.858314e+09 -6.565486e+08
-2.977503e+10 8.684694e+09 1.944387e+08
5.860005e+08 2.643101e+10 -3.475525e+09
-2.257365e+10 3.602665e+10 -1.131763e+09
-3.201885e+10 9.098928e+09 1.207676e+09
1.969958e+10 3.660923e+10 1.815902e+09
2.082991e+10 1.897649e+10 -2.213135e+09
-2.706888e+10 1.963144e+10 -2.644076e+09
4.496227e+10 -8.739320e+09 -1.181127e+09
-1.029317e+10 2.540746e+10 3.362630e+09
-3.056016e+10 3.829461e+10 -2.664414e+09
2.563208e+10 3.733163e+10 -7.138257e+07
1.979597e+10 -1.452883e+09 6.216735e+08
-3.977616e+09 -2.714725e+10 -5.786231e+08
1.447702e+09 -3.062545e+10 -8.398760e+07
-3.480499e+10 5.621107e+09 -1.978457e+08
-1.376604e+10 -4.729960e+10 -2.835487e+06
1.379893e+10 -4.703671e+10 1.355450e+08
1.520128e+10 2.875158e+10 1.201730e+09
-1.488826e+10 2.700865e+10 3.532760e+09
7.834374e+09 3.897083e+10 2.263388e+09
-1.612203e+09 3.198508e+10 -9.585725e+08
5.760180e+09 -3.986985e+10 3.385110e+09
-3.680770e+09 -3.437302e+10 -1.132063e+09
-2.062936e+10 -5.484234e+09 -2.186656e+08
1.049604e+10 -1.902914e+10 2.357647e+08
-2.720880e+10 2.613445e+09 -1.002280e+09
-1.664243e+10 -2.658710e+10 -1.183583e+09
-3.247002e+10 -1.555773e+10 -1.929471e+09
1.098725e+10 4.315937e+10 1.624590e+09
-1.183177e+10 4.699566e+10 1.914250e+09
-8.695492e+08 3.731733e+10 8.583996e+08
1.655399e+10 1.970403e+10 -2.342815e+09
-1.494945e+10 1.763238e+10 -1.109274e+08
3.596107e+10 1.497875e+10 5.664271e+08
-3.893956e+10 9.628648e+09 -3.145347e+09
-3.762300e+10 -1.278860e+10 1.316222e+09
-2.003128e+10 2.393920e+09 -8.580622e+07
-9.210937e+09 3.190508e+10 2.254008e+09
-2.491153e+10 -1.273752e+10 1.493480e+09
3.071815e+10 1.940188e+10 3.360849e+08
-3.305761e+10 1.776107e+10 -8.510086e+08
-3.968285e+10 1.607494e+09 -7.365517e+08
-4.380910e+10 -2.715621e+10 -2.542954e+09
-2.261536e+10 1.049624e+10 5.211974e+08
1.917376e+10 9.377501e+09 -3.109827e+07
-4.171463e+10 -2.660382e+10 -6.319689e+08
2.838000e+10 7.445819e+08 -1.735143e+09
-2.608642e+10 1.492966e+09 -3.915228e+09
-2.101777e+10 2.944655e+10 1.660553e+09
2.360621e+10 2.813552e+10 1.451368e+09
1.940276e+10 2.767405e+10 -3.678313e+09
-3.350073e+10 4.242306e+10 -1.562364e+09
3.575066e+10 2.050705e+09 -8.504640e+08
2.386615e+10 -1.108912e+10 -1.352710e+09
7.046773e+09 -2.125641e+10 -7.168965e+08
-6.806297e+09 -2.078460e+10 6.092838e+08
-1.684544e+10 -2.613821e+10 3.832105e+08
-8.523372e+06 -5.345939e+10 2.431364e+09
-2.427513e+10 -9.636885e+08 1.236633e+09
1.604987e+09 -5.623123e+10 1.631804e+09
1.740877e+10 -2.583237e+10 -1.530720e+09
3.420334e+10 5.146648e+09 1.951016e+09
-2.523027e+10 2.456809e+09 1.639308e+09
-2.591841e+10 -9.874263e+08 1.029069e+09
-1.771343e+10 -1.759055e+10 2.581245e+09
-1.911019e+10 -1.156357e+10 -4.683650e+08
-3.583429e+10 -1.732527e+09 2.045601e+09
-4.350321e+10 1.083866e+10 -2.636822e+07
-3.500099e+10 -8.176464e+09 2.854616e+08
-2.434328e+10 9.010522e+08 8.309265e+08
-3.455059e+09 3.455519e+10 -4.098457e+09
-3.710521e+10 -1.208316e+10 6.751367e+08
1.051632e+10 -2.719476e+10 -2.663182e+09
-9.749747e+09 -2.339114e+10 7.581412e+08
2.448187e+08 -2.775369e+10 -1.115478e+09
-4.974385e+07 -3.222768e+10 1.827556e+09
2.302079e+10 4.157286e+10 -5.596304e+08
-1.374655e+10 2.759926e+10 -2.151781e+09
-2.210751e+10 -2.965486e+10 -2.871349e+09
1.712257e+10 -3.602321e+10 4.323114e+09
-3.198900e+10 -2.311312e+09 1.277519e+09
-1.678173e+10 -3.629051e+10 -4.838736e+09
2.578371e+10 -9.721120e+09 -7.057426e+08
-3.049101e+10 8.110357e+09 8.602579e+08
2.805233e+10 4.129653e+09 1.102818e+08
-2.862503e+10 8.100191e+09 -9.047688e+06
-2.813550e+10 1.194472e+09 -4.511870e+08
1.769912e+10 2.659064e+10 1.556950e+09
-1.525762e+10 2.146852e+10 1.891932e+07
-3.629306e+10 -1.091386e+10 -7.280961e+08
1.569847e+10 -1.389471e+10 3.076436e+08
-2.486681e+10 -2.181743e+09 3.016227e+08
-1.618209e+10 -1.348829e+10 -2.171494e+09
7.552074e+09 -3.371702e+10 4.370863e+08
-7.570994e+09 -3.400533e+10 -4.618786e+07
-2.512407e+10 2.719412e+10 2.284004e+09
3.078487e+10 2.405156e+10 -1.759319e+08
5.158220e+09 -2.717189e+10 1.469458e+09
-5.177641e+09 -2.579432e+10 -1.031372e+09
8.102194e+09 -3.612788e+10 1.608327e+08
-7.489422e+09 -3.877784e+10 2.419205e+08
2.668278e+10 -3.917903e+10 1.193975e+09
-3.080849e+10 -6.026466e+09 -2.125790e+09
-1.681448e+10 -2.831770e+10 -7.074851e+08
-2.284714e+10 -1.722715e+10 2.216187e+09
3.309399e+10 -3.708081e+10 1.465628e+09
6.585792e+09 4.489174e+10 1.940997e+08
-3.854490e+10 -3.273488e+10 -1.588630e+09
1.621202e+10 -1.960035e+10 -1.313021e+09
2.628366e+10 -2.532621e+09 9.307406e+06
-1.961011e+10 -2.463063e+10 1.949236e+09
3.494557e+09 4.259866e+10 -3.538483e+09
1.933615e+10 -1.541169e+10 -9.392788e+08
-2.025574e+10 -4.160783e+09 -1.767994e+09
1.514932e+10 3.758687e+10 8.402611e+08
2.270594e+10 -7.256825e+09 3.424315e+09
-6.924754e+09 -1.570879e+10 -2.717471e+08
8.451376e+09 -2.608180e+10 1.325358e+09
1.026036e+09 4.594537e+10 1.004856e+09
6.336307e+09 2.851669e+10 -1.066951e+09
-3.888013e+10 -1.536161e+10 -5.081534e+08
-3.020981e+10 4.172746e+09 -1.779614e+09
-2.040741e+10 4.208707e+10 -1.683182e+09
1.433844e+10 1.257892e+10 5.758146e+08
-2.254575e+10 -6.305577e+09 2.331057e+09
-2.661395e+10 1.790828e+10 -1.377975e+09
2.573709e+09 -3.231545e+10 2.862607e+09
-2.775510e+09 -3.203035e+10 -2.942636e+09
-2.841069e+10 8.863720e+09 1.745371e+09
3.037809e+10 2.049953e+09 4.334964e+09
-1.059217e+10 2.266276e+10 1.098989e+09
1.180952e+10 2.697958e+10 -7.765454e+08
-3.181653e+10 1.882310e+10 -2.274643e+09
4.623516e+10 1.862304e+10 6.795742e+08
-7.751096e+09 -3.201519e+10 2.074529e+08
-2.366633e+10 -6.708777e+09 -1.903440e+09
7.232104e+09 -3.151041e+10 -2.809919e+08
1.977294e+10 2.230154e+10 1.660884e+09
-1.968772e+10 2.286770e+10 2.394318e+09
-1.892043e+10 -1.138254e+10 4.834916e+08
-1.336359e+10 -1.559165e+10 3.412705e+08
2.305962e+10 -2.846473e+10 2.518389e+09
4.471555e+10 3.978195e+09 -2.958423e+08
-2.822831e+10 -1.581060e+10 -3.354341e+08
-2.319523e+10 2.949684e+10 5.241124e+08
3.188225e+10 3.993192e+10 1.725011e+09
-2.249969e+10 -8.654074e+09 1.631783e+09
-2.854773e+10 -4.649160e+09 8.091864e+08
-5.862969e+10 4.262323e+09 -1.420325e+09
-2.341727e+10 -1.341878e+10 6.276747e+08
2.034960e+09 4.824864e+10 -1.278739e+09
2.382565e+10 -3.404100e+10 2.446488e+08
-1.110366e+10 2.473841e+10 -4.204449e+09
9.310936e+09 2.332035e+10 -1.162569e+09
2.161418e+10 6.744566e+08 -7.495172e+08
-3.456982e+10 -3.811033e+10 -3.920311e+09
1.778204e+10 -3.202907e+10 -1.215303e+08
-2.881598e+10 -1.043238e+10 1.270896e+09
-1.254511e+10 -2.779311e+10 1.646933e+09
2.801879e+10 5.761225e+09 -4.877683e+08
1.743109e+10 -2.951127e+10 1.294085e+09
-2.361196e+10 -3.425411e+10 1.697559e+09
1.847466e+10 -1.179091e+10 -8.577810e+08
5.234161e+10 1.253301e+10 5.393951e+08
-3.482842e+10 1.074993e+10 5.387400e+08
2.906719e+10 -1.357088e+10 5.174379e+08
1.904491e+10 3.136960e+10 -2.243882e+09
-2.471049e+10 3.006362e+10 -4.698808e+09
-2.765083e+10 -1.360963e+10 3.652987e+08
2.444620e+10 9.982506e+07 -9.873952e+08
-4.897564e+10 1.209843e+10 3.520825e+09
5.000580e+10 1.091728e+10 2.545735e+09
5.502492e+09 2.923816e+10 -2.966127e+07
-3.518627e+10 -2.812829e+10 3.126237e+09
8.687283e+09 2.134902e+10 6.521812e+08
-1.002351e+10 2.663859e+10 2.351337e+09
3.187473e+10 -2.956129e+10 -9.445925e+08
2.264726e+10 -2.274884e+10 -2.049853e+09
-1.562372e+10 -2.453455e+10 -1.417292e+09
-2.952241e+10 -1.546117e+10 1.479675e+09
1.683932e+10 2.906593e+10 3.552073e+07
-1.619133e+10 3.156406e+10 4.953990e+08
-1.599290e+10 -2.894193e+10 9.809256e+08
1.879855e+10 -3.118206e+10 -5.720059e+08
-9.807843e+08 -2.531754e+10 1.096403e+09
1.960756e+09 -2.760962e+10 1.643687e+09
3.892193e+10 -3.641785e+09 -7.385291e+08
4.047944e+10 1.171891e+10 1.677978e+09
-3.788287e+10 1.158848e+10 -1.434217e+09
1.534143e+09 -4.448166e+10 -4.255504e+08
-1.681136e+10 -1.236465e+10 3.744874e+08
-2.375021e+09 -3.885966e+10 4.230516e+08
4.784128e+10 -2.390526e+10 -2.567677e+09
-4.653050e+09 -3.263641e+10 2.449946e+08
4.588547e+09 -3.265696e+10 -2.454012e+08
-2.955961e+10 -4.298478e+09 -3.667213e+08
2.224530e+10 1.146508e+10 4.329299e+08
-2.811782e+10 1.728169e+10 1.643653e+09
8.578427e+09 3.017158e+10 -2.395471e+09
-1.163324e+10 -2.243539e+10 -7.837140e+08
3.492200e+10 2.320824e+10 -5.967010e+08
-1.890171e+10 -9.998043e+09 -3.146827e+09
-3.257158e+10 2.061670e+10 2.918425e+07
-5.124360e+10 -1.265680e+10 -3.981815e+09
2.851796e+10 -2.309963e+10 -4.495106e+09
3.951369e+10 7.326945e+09 1.047249e+08
-3.971892e+10 7.040224e+09 -1.180294e+09
3.011067e+10 -4.860115e+10 2.040535e+09
3.413792e+10 -1.959172e+10 -2.188494e+09
-4.250766e+10 1.798765e+10 -1.320561e+09
4.030265e+10 1.841197e+10 -5.854150e+08
1.111270e+10 -1.597521e+10 8.689721e+08
-2.172382e+10 -1.466285e+10 2.439051e+09
-5.609211e+10 -1.597857e+10 2.792696e+09
-1.583251e+10 4.233085e+10 8.300848e+08
3.645616e+10 -1.544904e+10 1.046452e+08
-2.034874e+10 1.929351e+10 2.471099e+09
2.808106e+10 2.845240e+10 -9.733370e+08
2.070614e+10 4.765118e+10 -2.406670e+09
-2.794796e+10 2.001653e+10 1.629411e+08
2.804893e+10 1.826152e+10 8.480917e+08
-3.595985e+10 -1.867262e+10 -1.845394e+09
-1.814814e+10 -2.075575e+10 -3.017947e+08
-2.339169e+10 -1.817695e+10 6.065841e+07
-3.079406e+10 4.662535e+10 -5.293298e+07
2.380033e+10 3.703550e+10 -1.735018e+09
-5.366249e+10 6.772661e+09 2.390612e+09
4.739380e+10 -3.089840e+09 -3.671641e+08
-5.436153e+10 -1.567132e+10 -4.574148e+08
2.672932e+10 -1.362749e+10 -2.993665e+08
3.402622e+10 3.658655e+10 -6.752292e+08
-3.966247e+10 3.603958e+10 2.378662e+09
-4.276577e+10 -1.277778e+10 -1.150739e+09
1.680082e+10 -2.666125e+10 9.351066e+07
-1.822620e+10 -1.553474e+10 -1.931361e+09
-1.687339e+10 -3.635628e+10 6.567159e+08
2.393377e+10 -2.425314e+10 2.432078e+09
4.877217e+10 1.355795e+10 1.125861e+09
-5.375104e+10 1.176153e+10 -2.046860e+09
3.325520e+10 -2.159475e+10 -1.373155e+09
-1.700339e+10 -3.494748e+10 1.925850e+08
2.683628e+10 -9.786347e+09 -2.405005e+09
2.154774e+10 -1.000741e+10 4.349225e+08
1.938331e+10 -2.637689e+10 2.288515e+08
-1.107663e+10 3.758297e+10 6.004973e+08
-2.351510e+10 -2.170297e+10 -1.920072e+08
1.050096e+10 3.123516e+10 3.053680e+08
-1.194103e+10 2.991244e+10 2.800330e+09
4.551114e+10 3.755994e+09 -6.266341e+09
1.672168e+10 -2.243875e+10 4.270508e+07
-2.447827e+10 8.263206e+09 1.439818e+09
2.627581e+10 1.022570e+10 -2.628161e+08
2.290536e+10 -1.566195e+10 1.349406e+09
-2.111285e+10 -4.168149e+10 1.818166e+09
1.136440e+10 -2.854711e+10 -1.894611e+09
-4.084238e+10 5.380058e+09 2.089723e+09
-1.517732e+10 -1.485902e+10 1.195371e+09
4.172647e+10 9.623027e+09 -2.509745e+09
-1.776263e+10 -1.491821e+10 -9.892415e+08
-3.556516e+10 -1.999350e+10 -3.883988e+08
-2.446318e+10 3.786728e+08 1.398263e+09
2.814507e+10 2.247537e+09 1.348563e+09
-1.591982e+10 -3.100522e+10 -2.652617e+09
1.671993e+10 -3.549102e+10 -1.098700e+08