# vtk DataFile Version 2.0
Electric current density generated by TTH
ASCII
DATASET UNSTRUCTURED_GRID
POINTS 22947 double
4.450251e-05 -1.089997e-20 -6.030924e-23
4.448075e-05 1.391675e-06 -6.030924e-23
4.189456e-05 1.501065e-05 -6.030924e-23
-4.209917e-05 -1.442684e-05 -6.030924e-23
2.358883e-05 3.766606e-05 -1.607117e-07
2.589732e-05 -3.611778e-05 1.607117e-07
3.929004e-05 -2.076972e-05 -1.617168e-07
8.291218e-06 -4.366258e-05 -1.607117e-07
2.134616e-05 -3.881774e-05 -2.423478e-07
2.134610e-05 3.881778e-05 2.423470e-07
2.102941e-05 3.892242e-05 2.457021e-07
-4.222788e-05 1.389960e-05 -1.431304e-07
-4.360237e-05 -8.673281e-06 -1.431304e-07
-4.392606e-05 -6.847937e-06 -1.431304e-07
-4.204878e-05 -1.457306e-05 -6.030924e-23
-4.316148e-05 1.064155e-05 -1.467903e-07
-3.468164e-05 -2.781324e-05 -1.431304e-07
-2.584283e-05 3.617376e-05 -1.431304e-07
-4.246302e-05 -1.316378e-05 -1.431304e-07
-1.779492e-05 4.073983e-05 -1.431304e-07
-9.881993e-06 4.334442e-05 -1.431304e-07
-8.056745e-06 4.371778e-05 -1.467903e-07
-2.538602e-06 4.438143e-05 -1.467903e-07
-3.399514e-05 2.864827e-05 -1.431304e-07
-3.968972e-05 -2.002204e-05 -1.467903e-07
-4.199788e-05 -1.471910e-05 -6.030924e-23
-3.827996e-05 2.260614e-05 -1.431304e-07
3.010148e-06 4.435461e-05 -1.431304e-07
-2.731951e-05 3.506851e-05 -1.467903e-07
-8.494528e-07 -4.444852e-05 -1.431304e-07
-3.678450e-05 2.496110e-05 -1.467903e-07
-4.320287e-05 -1.048354e-05 -1.431304e-07
-3.148189e-05 3.138545e-05 -1.467903e-07
-1.764366e-05 -4.080266e-05 -1.467903e-07
-3.027266e-05 -3.255337e-05 -1.467903e-07
-4.438901e-05 2.402430e-06 -1.467903e-07
-4.194647e-05 -1.486496e-05 -6.030924e-23
-2.719747e-05 -3.516324e-05 -1.467903e-07
4.282959e-05 -1.118311e-05 2.460580e-07
2.215833e-05 -3.853110e-05 -1.543365e-07
2.215833e-05 3.853110e-05 1.543365e-07
-5.945253e-06 -4.365890e-05 1.510738e-07
-2.798861e-05 -3.403063e-05 1.510738e-07
-3.201625e-05 -3.027219e-05 1.510738e-07
1.386295e-06 -4.404003e-05 1.510738e-07
-1.356559e-05 -4.192160e-05 1.510738e-07
-4.307727e-05 9.262562e-06 1.510738e-07
-4.189456e-05 -1.501065e-05 -6.030924e-23
1.675558e-06 4.402997e-05 1.510738e-07
-4.398447e-05 -2.609990e-06 1.510738e-07
-3.858916e-05 2.126788e-05 1.510738e-07
-4.253174e-05 1.151073e-05 1.510738e-07
-1.671239e-05 4.076938e-05 1.510738e-07
-3.508561e-05 2.665419e-05 1.510738e-07
1.164226e-05 4.249593e-05 1.510738e-07
-3.851501e-05 -2.140186e-05 1.510738e-07
-2.086442e-05 3.880879e-05 1.510738e-07
-3.049398e-05 3.180508e-05 1.510738e-07
-4.184214e-05 -1.515615e-05 -6.030924e-23
1.298155e-05 4.210612e-05 1.510738e-07
-5.185773e-06 4.375561e-05 1.510738e-07
-4.034404e-05 -1.771452e-05 1.510738e-07
-3.325048e-05 -2.891110e-05 1.510738e-07
-7.005457e-06 4.350137e-05 1.510738e-07
-1.180606e-05 -4.245071e-05 1.510738e-07
-3.212126e-05 3.016074e-05 1.510738e-07
-4.142495e-05 1.501397e-05 1.510738e-07
-1.571577e-05 -4.116383e-05 1.510738e-07
-4.076300e-05 1.672794e-05 1.510738e-07
-4.178922e-05 -1.530147e-05 -6.030924e-23
-2.844611e-05 3.364914e-05 1.510738e-07
-4.383742e-05 -4.441454e-06 1.510738e-07
-3.733864e-05 -2.339384e-05 1.510738e-07
-3.204373e-06 -4.394517e-05 1.510738e-07
2.063869e-05 3.908608e-05 -2.398105e-07
4.399040e-05 -1.390786e-06 -3.377291e-08
4.399040e-05 1.390786e-06 3.377291e-08
3.255301e-05 2.990745e-05 2.410039e-07
1.974765e-05 3.960437e-05 -2.462259e-07
2.204278e-05 -3.809304e-05 -2.105365e-08
-4.173579e-05 -1.544660e-05 -6.030924e-23
2.204381e-05 3.809250e-05 2.161652e-08
7.054772e-06 4.361885e-05 2.358910e-07
-3.928440e-05 2.022388e-05 2.355347e-07
1.054370e-05 4.295708e-05 2.450429e-07
1.939739e-05 3.998718e-05 1.598267e-07
3.678306e-05 2.457055e-05 -2.452803e-07
3.353010e-05 2.885201e-05 -2.452812e-07
-2.289222e-05 3.766157e-05 1.646623e-07
4.915502e-06 4.379824e-05 1.646623e-07
-8.246462e-06 -4.329484e-05 1.646623e-07
-4.168186e-05 -1.559155e-05 -6.030924e-23
-4.386233e-05 4.306214e-06 1.646623e-07
-4.407231e-05 -2.818165e-07 1.646623e-07
-2.276120e-05 -3.774090e-05 1.646623e-07
-1.953795e-05 -3.950590e-05 1.646630e-07
-2.116798e-05 -3.865701e-05 1.646630e-07
-2.035739e-05 -3.908995e-05 1.646630e-07
-2.196937e-05 -3.820726e-05 1.646630e-07
-2.818980e-05 -3.413378e-05 -2.458814e-07
-3.129843e-06 -4.415862e-05 -2.458814e-07
9.819309e-06 4.316667e-05 -2.458814e-07
-4.162742e-05 -1.573631e-05 -6.030924e-23
-3.881423e-05 2.128933e-05 -2.458814e-07
-4.403477e-05 -4.551766e-06 -2.458814e-07
-4.270853e-05 1.165167e-05 -2.458814e-07
6.924184e-06 4.390315e-05 1.571732e-07
-3.943271e-05 2.050592e-05 1.571732e-07
2.389932e-05 -3.699095e-05 -1.174053e-07
3.914832e-05 2.017854e-05 -1.226289e-07
2.504513e-05 3.622853e-05 1.226289e-07
3.914832e-05 -2.017854e-05 1.226289e-07
4.033318e-05 -1.769179e-05 1.226289e-07
4.184214e-05 1.515615e-05 -6.030924e-23
-4.157248e-05 -1.588087e-05 -6.030924e-23
4.033318e-05 1.769179e-05 -1.226289e-07
2.726090e-05 3.459202e-05 1.226289e-07
2.726090e-05 -3.459202e-05 -1.226289e-07
1.017030e-05 -4.285242e-05 1.226289e-07
3.445436e-06 -4.412541e-05 2.462071e-07
1.245972e-05 4.241795e-05 2.418487e-07
1.224733e-05 4.249902e-05 2.446636e-07
3.029550e-05 3.192293e-05 -5.986124e-09
4.298957e-05 9.572703e-06 1.221330e-07
4.298957e-05 -9.572703e-06 -1.221330e-07
-4.151704e-05 -1.602525e-05 -6.030924e-23
4.443580e-05 1.158441e-06 1.508428e-07
4.443580e-05 -1.158441e-06 -1.508428e-07
3.634626e-05 2.522796e-05 2.459069e-07
3.373660e-05 2.862319e-05 2.458740e-07
3.232129e-05 3.021281e-05 2.458947e-07
3.241546e-05 3.011210e-05 2.459069e-07
3.441002e-05 -2.781099e-05 -2.459069e-07
3.572185e-05 -2.610459e-05 -2.459069e-07
-3.222839e-05 -3.034932e-05 -2.458991e-07
-4.418593e-05 -2.711801e-06 -2.458991e-07
-4.146110e-05 -1.616943e-05 -6.030924e-23
-3.873964e-05 -2.142406e-05 -2.458991e-07
-2.088349e-05 3.903370e-05 -2.458991e-07
1.593800e-06 4.424037e-05 -2.458991e-07
1.161047e-05 4.271940e-05 -2.458991e-07
1.312830e-05 4.227763e-05 -2.458991e-07
-5.121075e-06 4.397186e-05 -2.458991e-07
-5.884322e-06 -4.387625e-05 -2.458991e-07
-1.194798e-05 -4.262623e-05 -2.458991e-07
3.695949e-05 2.431921e-05 2.458633e-07
4.428084e-06 -4.379618e-05 -6.743935e-08
-4.140466e-05 -1.631342e-05 -6.030924e-23
-4.417338e-05 -1.810916e-06 2.419346e-07
-2.165943e-05 3.856186e-05 2.446426e-07
-6.776386e-06 -4.370616e-05 2.446426e-07
1.238060e-05 -4.253849e-05 2.416560e-07
2.913379e-05 3.337702e-05 2.416546e-07
2.913379e-05 -3.337702e-05 -2.416546e-07
4.141389e-05 1.573838e-05 -2.416456e-07
4.141389e-05 -1.573838e-05 2.416456e-07
3.463154e-05 2.785530e-05 -1.594521e-07
3.321879e-05 -2.952580e-05 1.594521e-07
-4.134772e-05 -1.645721e-05 -6.030924e-23
5.025359e-06 -4.375002e-05 1.133496e-07
1.587842e-05 -4.105398e-05 -6.069748e-08
-6.549227e-06 -4.372282e-05 2.419568e-07
-4.418148e-05 -2.038147e-06 2.446552e-07
-2.145250e-05 3.865705e-05 2.419568e-07
-3.704397e-05 -2.457336e-05 1.475406e-07
-1.478136e-05 -4.192395e-05 1.475406e-07
5.347220e-07 4.445020e-05 1.475406e-07
2.553560e-06 -4.438001e-05 1.475406e-07
2.051186e-05 -3.922682e-05 2.460387e-07
-4.129028e-05 -1.660081e-05 -6.030924e-23
3.452803e-05 -2.798239e-05 1.602722e-07
9.695296e-06 -4.322617e-05 2.422979e-07
2.698731e-05 -3.513097e-05 -2.422979e-07
2.698731e-05 3.513097e-05 2.422979e-07
4.034543e-05 1.829608e-05 -2.422979e-07
4.034543e-05 -1.829608e-05 2.422979e-07
3.912021e-05 -2.078360e-05 2.426014e-07
2.473390e-05 -3.674871e-05 -2.428239e-07
6.975579e-06 -4.375119e-05 2.416061e-07
5.607734e-06 -4.394202e-05 2.426028e-07
-4.123233e-05 -1.674420e-05 -6.030924e-23
2.473839e-05 3.674932e-05 2.422979e-07
3.912278e-05 2.078241e-05 -2.422978e-07
2.356293e-05 3.750601e-05 2.434053e-07
2.357707e-05 -3.750496e-05 -2.422979e-07
3.974663e-05 -1.955141e-05 2.431594e-07
3.974663e-05 1.955141e-05 -2.431594e-07
2.586818e-05 3.595677e-05 2.431594e-07
2.586146e-05 -3.595966e-05 -2.434053e-07
8.325239e-06 -4.350405e-05 2.434053e-07
2.271623e-05 -3.769428e-05 2.768501e-09
-4.117390e-05 -1.688739e-05 -6.030924e-23
4.089111e-05 -1.702848e-05 2.431591e-07
4.089111e-05 1.702848e-05 -2.431591e-07
2.806535e-05 3.426935e-05 2.431591e-07
2.806535e-05 -3.426935e-05 -2.431591e-07
1.103584e-05 -4.289828e-05 2.431591e-07
3.725114e-05 2.423927e-05 1.603890e-07
3.707627e-05 2.450371e-05 1.617986e-07
-1.093322e-05 -4.309147e-05 -1.428534e-07
-4.390223e-05 7.000358e-06 -1.428534e-07
-4.086195e-05 -1.751303e-05 -1.429313e-07
-4.111496e-05 -1.703037e-05 -6.030924e-23
-4.150219e-05 1.593672e-05 -1.428534e-07
-2.946699e-05 3.328824e-05 -1.428534e-07
-1.257401e-05 4.264153e-05 -1.429313e-07
-1.608084e-05 4.144655e-05 -1.428534e-07
-2.030677e-05 3.954801e-05 -1.428534e-07
-3.516115e-05 2.720476e-05 -1.429313e-07
1.272212e-05 4.259757e-05 -1.429313e-07
-4.395967e-06 4.423896e-05 -1.428534e-07
2.317462e-07 4.445623e-05 -1.428534e-07
1.033120e-05 4.323970e-05 -1.429313e-07
-4.105553e-05 -1.717315e-05 -6.030924e-23
-6.236488e-06 4.401723e-05 -1.428534e-07
-4.080169e-05 1.765310e-05 -1.428534e-07
-3.287542e-05 -2.992686e-05 -1.428534e-07
-2.444138e-05 -3.713528e-05 -1.428534e-07
-2.139650e-05 3.896916e-05 -1.429313e-07
-3.866797e-05 -2.193612e-05 -1.429313e-07
-4.440025e-05 -2.241264e-06 -1.429313e-07
-6.387423e-06 -4.399553e-05 -1.429313e-07
1.006154e-06 -4.444539e-05 -1.429313e-07
-4.432100e-05 -3.472643e-06 -1.428534e-07
4.178922e-05 1.530147e-05 -6.030924e-23
-4.099560e-05 -1.731573e-05 -6.030924e-23
-1.506794e-05 -4.182544e-05 -1.428534e-07
-3.624636e-06 -4.430877e-05 -1.429313e-07
-3.203216e-05 -3.082769e-05 -1.429313e-07
-3.722000e-05 -2.431218e-05 -1.428534e-07
-4.187683e-05 -1.492437e-05 -1.429313e-07
-1.272021e-05 -4.259820e-05 -1.428534e-07
3.882791e-05 2.164074e-05 1.501720e-07
3.602126e-05 -2.603040e-05 -1.613930e-07
3.584582e-05 -2.627313e-05 -1.602561e-07
3.471473e-05 -2.774748e-05 -1.623951e-07
-4.093518e-05 -1.745809e-05 -6.030924e-23
3.332946e-05 2.939978e-05 1.602561e-07
3.382929e-05 2.882123e-05 1.617693e-07
3.312375e-05 2.963136e-05 1.602561e-07
3.403473e-05 2.858037e-05 1.602561e-07
3.260766e-05 3.019531e-05 1.626435e-07
3.239320e-05 3.042829e-05 1.602561e-07
[...]
POINT_DATA 22947
VECTORS 10.000GHz_fone_imag double
9.987716e-06 -4.971530e-05 3.088168e-02
3.130061e-04 1.350812e-05 3.081906e-02
-1.668814e-04 -4.161279e-04 3.072339e-02
-5.435535e-04 -2.720501e-04 3.089202e-02
1.069335e-02 1.717748e-02 2.347726e-02
-1.172431e-02 1.648230e-02 2.348585e-02
1.808711e-02 -9.386725e-03 2.309050e-02
3.717437e-03 -1.989770e-02 2.347831e-02
1.495421e-02 -2.736943e-02 4.876068e-03
-1.491925e-02 -2.735376e-02 4.867156e-03
-1.472037e-02 -2.758738e-02 -2.234224e-03
-1.770164e-02 5.813419e-03 2.514632e-02
-1.830323e-02 -3.680907e-03 2.509113e-02
-1.842057e-02 -2.877981e-03 2.512334e-02
1.664674e-04 -2.838540e-04 3.072972e-02
-1.855998e-02 4.558888e-03 2.456679e-02
-1.457617e-02 -1.170539e-02 2.509636e-02
-1.084307e-02 1.516417e-02 2.511390e-02
-1.784673e-02 -5.518392e-03 2.508336e-02
-7.352784e-03 1.711277e-02 2.501062e-02
-4.129327e-03 1.820244e-02 2.513018e-02
-3.472432e-03 1.881001e-02 2.466797e-02
-1.102042e-03 1.909668e-02 2.467365e-02
-1.428943e-02 1.200789e-02 2.511512e-02
-1.701222e-02 -8.639294e-03 2.476725e-02
6.838649e-04 -9.698405e-05 3.077480e-02
-1.605479e-02 9.491986e-03 2.511516e-02
1.394702e-03 1.856528e-02 2.501462e-02
-1.172533e-02 1.501379e-02 2.475840e-02
-3.474830e-04 -1.863883e-02 2.511497e-02
-1.585145e-02 1.067087e-02 2.468129e-02
-1.813250e-02 -4.439576e-03 2.510075e-02
-1.353650e-02 1.347276e-02 2.457828e-02
-7.561021e-03 -1.748481e-02 2.458845e-02
-1.294381e-02 -1.395138e-02 2.473527e-02
-1.911533e-02 1.010223e-03 2.466318e-02
5.294731e-04 4.029515e-04 3.092236e-02
-1.170369e-02 -1.513691e-02 2.468996e-02
-3.072885e-02 7.879642e-03 9.706032e-04
9.893097e-03 -1.726793e-02 2.390577e-02
-9.857832e-03 -1.725005e-02 2.395182e-02
2.598435e-03 1.911158e-02 -2.529346e-02
1.228598e-02 1.501041e-02 -2.530564e-02
1.407671e-02 1.332322e-02 -2.528353e-02
-5.990163e-04 1.938443e-02 -2.522402e-02
5.936961e-03 1.852540e-02 -2.522087e-02
1.903198e-02 -4.171914e-03 -2.520479e-02
2.317230e-04 2.206286e-04 3.083840e-02
-7.570013e-04 -1.936000e-02 -2.528032e-02
1.929850e-02 1.145563e-03 -2.527120e-02
1.694908e-02 -9.388215e-03 -2.532230e-02
1.874535e-02 -5.017467e-03 -2.531374e-02
7.453849e-03 -1.799291e-02 -2.520133e-02
1.543309e-02 -1.174135e-02 -2.524671e-02
-5.083715e-03 -1.861067e-02 -2.530107e-02
1.694112e-02 9.443684e-03 -2.526716e-02
9.170296e-03 -1.703849e-02 -2.528177e-02
1.346679e-02 -1.400307e-02 -2.527409e-02
-6.601429e-05 1.259144e-04 3.056354e-02
-5.687230e-03 -1.843812e-02 -2.529382e-02
2.295763e-03 -1.922806e-02 -2.530347e-02
1.778293e-02 7.752628e-03 -2.530459e-02
1.464660e-02 1.281022e-02 -2.522545e-02
3.172197e-03 -1.921569e-02 -2.519898e-02
5.190430e-03 1.865823e-02 -2.529456e-02
1.414691e-02 -1.338947e-02 -2.520443e-02
1.834684e-02 -6.567246e-03 -2.520806e-02
7.024421e-03 1.817657e-02 -2.521784e-02
1.803620e-02 -7.327359e-03 -2.519501e-02
-2.994445e-05 -9.286558e-05 3.096512e-02
1.260968e-02 -1.482038e-02 -2.521447e-02
1.928372e-02 1.913282e-03 -2.532585e-02
1.654539e-02 1.027727e-02 -2.520548e-02
1.454492e-03 1.932857e-02 -2.533529e-02
1.421382e-02 2.712237e-02 -7.420111e-03
4.598226e-03 -1.773692e-04 -3.171912e-02
-4.592208e-03 -1.793255e-04 -3.169760e-02
-2.252294e-02 -2.093444e-02 -7.054642e-03
1.403486e-02 2.798650e-02 -8.142754e-04
1.235467e-03 -2.415831e-03 -3.200271e-02
2.938194e-04 -1.297609e-06 3.069810e-02
-1.200653e-03 -2.384209e-03 -3.203516e-02
-4.626291e-03 -2.984791e-02 -9.718132e-03
2.676615e-02 -1.397761e-02 -9.874199e-03
-7.354107e-03 -3.025275e-02 -3.804727e-03
-8.601461e-03 -1.830427e-02 2.357231e-02
2.617962e-02 1.754456e-02 -3.234439e-03
2.386316e-02 2.059868e-02 -3.230308e-03
1.082429e-02 -1.790519e-02 -2.427760e-02
-2.347221e-03 -2.069849e-02 -2.432472e-02
3.862311e-03 2.056213e-02 -2.426274e-02
1.997482e-04 1.822862e-04 3.070119e-02
2.073873e-02 -2.060339e-03 -2.431507e-02
2.082454e-02 1.357414e-04 -2.436704e-02
1.077251e-02 1.783336e-02 -2.433508e-02
9.215372e-03 1.878193e-02 -2.424942e-02
1.002980e-02 1.840012e-02 -2.428766e-02
9.609267e-03 1.859067e-02 -2.426439e-02
1.040176e-02 1.815529e-02 -2.428765e-02
-1.996807e-02 -2.440562e-02 9.733294e-04
-2.358078e-03 -3.144604e-02 1.021129e-03
6.975815e-03 3.082731e-02 8.297624e-04
7.315437e-05 3.938616e-05 3.070306e-02
-2.758572e-02 1.528093e-02 9.724799e-04
-3.138694e-02 -3.112656e-03 9.777298e-04
-3.046279e-02 8.180120e-03 1.013161e-03
-2.978889e-03 -1.966983e-02 2.365854e-02
1.763627e-02 -9.278073e-03 2.363255e-02
8.051183e-03 -1.262160e-02 -2.821456e-02
1.394296e-02 7.146484e-03 -2.770655e-02
-8.955368e-03 -1.284053e-02 -2.780010e-02
-1.394988e-02 7.112038e-03 -2.781877e-02
-1.437346e-02 6.228542e-03 -2.780357e-02
9.906555e-05 -1.395830e-05 3.080794e-02
2.806611e-04 2.143439e-05 3.075264e-02
1.436096e-02 6.254435e-03 -2.769951e-02
-9.742674e-03 -1.225789e-02 -2.780969e-02
9.727296e-03 -1.227772e-02 -2.769445e-02
-3.686700e-03 1.522566e-02 -2.779684e-02
-2.473541e-03 3.122442e-02 1.617763e-04
-8.473071e-03 -2.938868e-02 -6.419890e-03
-8.850925e-03 -2.958873e-02 -3.976731e-03
6.718945e-04 4.826704e-04 -3.216905e-02
-1.517926e-02 -3.426741e-03 -2.809399e-02
1.518557e-02 -3.430968e-03 -2.809960e-02
-1.872910e-04 3.358496e-04 3.072142e-02
-1.921252e-02 -4.290814e-04 2.436946e-02
1.921693e-02 -4.302199e-04 2.436957e-02
-2.585616e-02 -1.790389e-02 -2.592581e-03
-2.388886e-02 -2.038839e-02 -2.365539e-03
-2.304917e-02 -2.134479e-02 -2.287233e-03
-2.298244e-02 -2.136581e-02 -2.241021e-03
2.443756e-02 -1.972940e-02 -2.513477e-03
2.534307e-02 -1.854068e-02 -2.544832e-03
-2.296683e-02 -2.156084e-02 1.034642e-03
-3.141977e-02 -1.992793e-03 1.021186e-03
-9.948844e-05 -3.236247e-04 3.073691e-02
-2.756349e-02 -1.528407e-02 1.025687e-03
-1.486411e-02 2.776628e-02 1.018407e-03
1.171677e-03 3.149164e-02 1.017823e-03
8.241479e-03 3.039763e-02 9.711318e-04
9.353822e-03 3.007617e-02 9.729558e-04
-3.676720e-03 3.130963e-02 1.025788e-03
-4.171459e-03 -3.122738e-02 9.781389e-04
-8.548023e-03 -3.031435e-02 1.036392e-03
-2.617865e-02 -1.737869e-02 -2.485287e-03
8.122743e-04 -8.659834e-03 -3.083900e-02
1.653365e-04 1.201548e-05 3.073631e-02
3.075020e-02 1.343122e-03 -6.371861e-03
1.497742e-02 -2.710741e-02 -3.920737e-03
4.538974e-03 3.062100e-02 -3.906791e-03
-8.584954e-03 2.966478e-02 5.407207e-03
-2.027430e-02 -2.330080e-02 5.403872e-03
2.028214e-02 -2.332601e-02 5.404357e-03
2.878486e-02 1.099894e-02 5.366040e-03
-2.877935e-02 1.099620e-02 5.360631e-03
1.584322e-02 1.271103e-02 2.344163e-02
-1.517431e-02 1.345966e-02 2.350304e-02
5.514871e-04 2.512294e-05 3.084006e-02
-1.830815e-03 1.444391e-02 -2.861343e-02
2.920316e-03 -7.133245e-03 -3.117700e-02
4.723565e-03 3.023296e-02 -6.336516e-03
3.078792e-02 1.055307e-03 -3.940469e-03
1.501967e-02 -2.666966e-02 -6.347222e-03
1.556653e-02 1.029799e-02 2.467151e-02
6.110620e-03 1.762166e-02 2.467884e-02
-4.068166e-04 -1.871336e-02 2.468939e-02
-9.284829e-04 1.855288e-02 2.475378e-02
-1.456964e-02 2.811765e-02 1.430564e-03
-4.496231e-05 2.280974e-04 3.077523e-02
-1.550492e-02 1.280024e-02 2.352060e-02
-6.749720e-03 3.019642e-02 5.001318e-03
1.880146e-02 -2.460465e-02 4.916934e-03
-1.880546e-02 -2.461454e-02 4.908814e-03
2.816778e-02 1.285987e-02 4.911192e-03
-2.816643e-02 1.280787e-02 5.009744e-03
-2.744179e-02 1.461451e-02 4.655712e-03
1.730053e-02 -2.581371e-02 4.743168e-03
-4.806714e-03 3.052751e-02 5.445192e-03
-3.971186e-03 3.073020e-02 4.792824e-03
-7.428340e-05 2.542815e-05 3.075100e-02
-1.723006e-02 -2.574350e-02 4.911066e-03
2.731177e-02 1.453482e-02 4.738478e-03
-1.650448e-02 -2.624280e-02 4.256909e-03
1.655971e-02 -2.639844e-02 4.927400e-03
-2.791286e-02 1.365506e-02 4.514395e-03
2.791461e-02 1.368349e-02 4.487223e-03
-1.820592e-02 -2.518670e-02 4.511674e-03
1.811230e-02 -2.516562e-02 4.266532e-03
-5.839490e-03 3.044005e-02 4.249817e-03
-4.247295e-04 4.364490e-04 -3.181135e-02
-4.181868e-04 1.536557e-04 3.085260e-02
-2.871557e-02 1.188428e-02 4.504225e-03
2.873863e-02 1.190593e-02 4.462913e-03
-1.974228e-02 -2.400007e-02 4.515910e-03
1.973022e-02 -2.402835e-02 4.480048e-03
-7.804694e-03 3.008019e-02 4.510761e-03
-1.696178e-02 -1.118893e-02 2.337656e-02
-1.694878e-02 -1.103840e-02 2.328426e-02
-4.530981e-03 -1.798925e-02 2.517516e-02
-1.839372e-02 2.886425e-03 2.514639e-02
-1.690022e-02 -7.192759e-03 2.524180e-02
-5.895460e-04 -3.586566e-04 3.093043e-02
-1.747021e-02 6.614577e-03 2.497327e-02
-1.236040e-02 1.388689e-02 2.515479e-02
-5.064486e-03 1.761928e-02 2.521332e-02
-6.799016e-03 1.733039e-02 2.511449e-02
-8.561077e-03 1.664537e-02 2.508598e-02
-1.443800e-02 1.124772e-02 2.523363e-02
5.201892e-03 1.762929e-02 2.512988e-02
-1.864134e-03 1.861724e-02 2.509275e-02
-1.870624e-05 1.853546e-02 2.519491e-02
4.254658e-03 1.786959e-02 2.510034e-02
2.478192e-04 -2.333292e-04 3.076674e-02
-2.693944e-03 1.848131e-02 2.498492e-02
-1.716571e-02 7.349995e-03 2.510550e-02
-1.376593e-02 -1.259516e-02 2.494124e-02
-1.019974e-02 -1.562665e-02 2.503661e-02
-8.897063e-03 1.610608e-02 2.510733e-02
-1.595754e-02 -9.071889e-03 2.526120e-02
-1.836292e-02 -9.170106e-04 2.511680e-02
-2.696342e-03 -1.820376e-02 2.511695e-02
4.057481e-04 -1.836639e-02 2.521314e-02
-1.862656e-02 -1.402406e-03 2.496053e-02
1.342529e-04 -1.303389e-05 3.068288e-02
7.279047e-04 -1.313428e-04 3.073679e-02
-6.387741e-03 -1.742861e-02 2.519145e-02
-1.506903e-03 -1.832805e-02 2.522044e-02
-1.314973e-02 -1.273352e-02 2.521840e-02
-1.567552e-02 -1.011439e-02 2.503762e-02
-1.730816e-02 -6.057290e-03 2.520809e-02
-5.293831e-03 -1.789683e-02 2.495276e-02
-1.618156e-02 -9.218351e-03 2.461696e-02
1.645585e-02 -1.197439e-02 2.324321e-02
1.651982e-02 -1.203867e-02 2.279078e-02
1.582778e-02 -1.283537e-02 2.309548e-02
6.487885e-04 4.979629e-04 3.088765e-02
-1.543675e-02 -1.380329e-02 2.282630e-02
-1.549093e-02 -1.299618e-02 2.326445e-02
-1.525206e-02 -1.367731e-02 2.332260e-02
-1.547602e-02 -1.320490e-02 2.339638e-02
-1.486688e-02 -1.388516e-02 2.303247e-02
-1.481835e-02 -1.379361e-02 2.338806e-02
1.568899e-02 -1.257016e-02 2.349084e-02
-1.660838e-02 -1.149468e-02 2.343872e-02
-1.015132e-02 1.810454e-02 2.321477e-02
1.017211e-02 1.811825e-02 2.328736e-02
2.856092e-04 2.339739e-04 3.081931e-02
-1.700239e-02 -1.181689e-02 2.285753e-02
8.719403e-03 -2.465594e-02 -1.817207e-02
2.715841e-04 -6.962084e-04 -3.192247e-02
-5.138602e-04 5.029993e-04 -3.189058e-02
-7.381893e-03 -6.965842e-03 -3.043477e-02
2.420595e-02 1.980740e-02 -3.493126e-03
1.422467e-02 1.400537e-02 2.348995e-02
-1.617290e-02 1.208557e-02 2.342846e-02
-1.667083e-02 -1.043823e-02 2.404073e-02
-7.796412e-03 1.235592e-03 -3.124659e-02
9.438188e-05 1.454961e-04 3.054839e-02
7.810039e-03 1.234990e-03 -3.124230e-02
1.472563e-02 -2.761024e-02 -2.365950e-03
8.174172e-03 -1.844480e-02 2.353538e-02
2.669513e-02 -1.692586e-02 -2.041971e-03
1.871817e-02 -2.719319e-03 2.457083e-02
-1.972743e-02 -2.879081e-03 2.376635e-02
-9.075275e-04 -2.135265e-02 2.289735e-02
-3.630275e-03 -2.100718e-02 2.279921e-02
-5.961279e-03 -1.912911e-02 2.352276e-02
-1.861682e-02 7.424865e-03 2.353607e-02
1.542361e-04 1.296285e-04 3.090662e-02
-1.497113e-02 -1.330579e-02 2.351595e-02
-1.407886e-02 -1.607893e-02 2.288798e-02
-2.637559e-03 -2.170943e-02 2.246519e-02
-2.119742e-02 -2.802759e-03 2.290360e-02
-1.953992e-02 4.299946e-03 2.356788e-02
3.228026e-04 -2.008041e-02 2.345965e-02
-1.201835e-02 1.767868e-02 2.289631e-02
-1.308729e-02 1.518279e-02 2.350925e-02
-1.701202e-02 -1.054336e-02 2.356055e-02
5.131498e-04 2.185674e-02 2.246426e-02
5.175070e-05 1.360384e-05 3.065636e-02
-6.728356e-04 2.131122e-02 2.279305e-02
-1.452379e-02 1.376886e-02 2.356110e-02
-7.262876e-03 2.009434e-02 2.289072e-02
6.735994e-03 2.079219e-02 2.246403e-02
-2.190549e-02 6.446627e-04 2.245232e-02
-1.883192e-02 6.675263e-03 2.359028e-02
-2.113746e-02 3.183509e-03 2.288438e-02
5.469203e-03 2.115684e-02 2.247893e-02
-1.724273e-02 -1.255102e-02 2.278954e-02
-7.677415e-03 1.849019e-02 2.357392e-02
3.916435e-05 3.223141e-05 3.064416e-02
-1.586137e-02 1.237271e-02 2.340775e-02
-2.293387e-03 2.179457e-02 2.244168e-02
-3.313878e-03 1.970391e-02 2.358186e-02
-1.397099e-02 1.439389e-02 2.350354e-02
-7.233680e-03 -1.865738e-02 2.355487e-02
-1.605923e-02 -1.482539e-02 2.241214e-02
-2.045150e-02 6.209769e-03 2.289671e-02
-1.011593e-02 1.943779e-02 2.243928e-02
-1.927846e-02 -1.035329e-02 2.245698e-02
-1.807198e-02 8.605429e-03 2.348957e-02
8.199435e-05 -4.923083e-05 3.072733e-02
-1.849073e-02 -7.893913e-03 2.343427e-02
-9.096979e-03 -1.926525e-02 2.281699e-02
-2.001236e-02 -7.397890e-03 2.280804e-02
-2.180719e-02 -1.560791e-03 2.242355e-02
-1.194096e-02 -1.835411e-02 2.244412e-02
-6.107522e-03 -2.098841e-02 2.242163e-02
-5.089855e-03 -2.072419e-02 2.288519e-02
-2.988192e-02 5.519492e-03 -8.835126e-03
2.985586e-02 5.517601e-03 -8.830545e-03
1.043447e-02 2.804614e-02 -1.077654e-02
2.216117e-04 -7.695969e-06 3.075318e-02
-1.219293e-02 -2.846684e-02 4.286738e-03
1.836930e-03 3.480615e-03 -3.190211e-02
-1.841706e-02 1.892514e-02 -1.799019e-02
4.342872e-04 5.263379e-04 -3.192330e-02
-1.239881e-02 -2.144635e-03 -2.959166e-02
1.241151e-02 -2.147040e-03 -2.959099e-02
2.161536e-03 5.654508e-03 -3.166692e-02
-2.356891e-02 -2.024163e-02 2.985622e-03
-2.587889e-02 -1.717567e-02 2.956115e-03
-1.654963e-02 1.134686e-02 2.356934e-02
2.505268e-04 4.126938e-04 3.097779e-02
1.565668e-02 1.187782e-02 2.394341e-02
1.843130e-02 -8.657303e-03 2.305708e-02
2.500734e-02 -1.734178e-02 -9.332052e-03
-1.618765e-02 1.142946e-02 2.384132e-02
1.559498e-02 1.218817e-02 2.383766e-02
-1.472478e-02 1.333628e-02 2.389018e-02
1.692032e-02 9.866238e-03 2.398717e-02
-2.411371e-02 -1.855353e-02 -9.316756e-03
1.559838e-02 -1.175609e-02 2.401722e-02
-1.516160e-02 -1.303122e-02 2.388431e-02
9.022983e-05 1.638408e-04 3.081772e-02
-2.338120e-04 -1.305848e-04 3.069901e-02
-1.435157e-02 -1.322338e-02 2.398295e-02
-1.659129e-02 -1.108674e-02 2.393716e-02
1.126843e-02 -2.935651e-02 9.730818e-04
-7.871503e-03 -4.849328e-03 -3.076971e-02
2.182572e-02 2.147251e-02 -7.603157e-03
-1.481692e-02 2.639430e-02 -8.333020e-03
1.467823e-02 2.646954e-02 -8.400997e-03
-4.604918e-04 1.285287e-05 -3.183767e-02
-1.419200e-02 -1.362703e-02 2.397186e-02
1.793337e-02 1.144638e-02 -2.421209e-02
1.997965e-04 -1.130205e-04 3.078999e-02
2.943904e-04 -4.748141e-03 -3.190338e-02
1.578895e-02 2.660175e-02 -5.047092e-03
-1.520506e-02 -2.595515e-02 -9.838063e-03
-1.570118e-02 -2.564334e-02 -9.899340e-03
-3.005425e-02 6.264204e-06 -9.834248e-03
-1.596774e-02 2.582343e-02 -8.818858e-03
3.545301e-03 2.986784e-02 -9.879259e-03
-2.990734e-02 3.129396e-03 -9.875147e-03
2.559281e-02 1.811386e-02 -3.375142e-03
-6.071295e-03 -3.097183e-02 1.195380e-03
6.180701e-04 -1.429172e-05 3.079746e-02
6.270988e-03 3.106759e-02 8.820175e-04
5.722021e-03 3.111587e-02 8.838528e-04
4.242553e-03 3.110837e-02 1.726179e-03
-9.869740e-03 2.979552e-02 1.716378e-03
-3.116362e-02 3.814773e-03 1.718622e-03
-2.793581e-02 1.464345e-02 9.664778e-04
-1.412533e-02 -2.823884e-02 1.154497e-03
-1.471035e-02 -2.793162e-02 1.160428e-03
-1.969406e-02 -3.679073e-03 2.380722e-02
1.970434e-02 -3.664154e-03 2.377887e-02
2.171273e-04 5.312836e-04 3.083908e-02
-2.571567e-02 2.023205e-05 1.751617e-02
2.572677e-02 -2.196825e-05 1.750469e-02
-4.208481e-03 -2.406221e-02 -2.069329e-02
-2.556148e-02 -1.843418e-02 1.181113e-03
-2.951329e-02 -1.106699e-02 1.181250e-03
-3.125083e-02 4.436725e-03 9.749717e-04
-1.350463e-02 -2.849869e-02 1.138860e-03
-1.580497e-03 -3.150901e-02 9.883607e-04
-8.508781e-04 3.150586e-02 1.185637e-03
-1.049615e-02 2.975191e-02 9.907820e-04
2.337988e-04 7.163155e-05 3.084801e-02
-2.839956e-02 1.391125e-02 6.490862e-04
-3.137941e-02 5.662934e-04 1.689457e-03
-3.132449e-02 -3.865729e-03 9.492207e-04
-1.750996e-02 2.625008e-02 9.542595e-04
-3.025559e-02 8.927848e-03 9.913958e-04
-1.685867e-02 -2.646741e-02 1.682764e-03
-2.056960e-02 -2.392274e-02 9.469068e-04
-7.219855e-03 -3.072885e-02 9.425014e-04
-5.381323e-03 -3.106724e-02 1.151192e-03
1.448112e-03 -3.920705e-03 -3.193265e-02
-6.865214e-05 2.197061e-04 3.082977e-02
-8.638130e-03 1.719278e-02 2.450827e-02
-7.031261e-03 1.715901e-02 2.471889e-02
9.489630e-03 -1.758592e-02 2.343152e-02
2.738634e-03 -1.753102e-03 -3.179297e-02
-1.503653e-02 -9.442912e-03 2.534659e-02
-1.893109e-03 -1.113180e-04 -3.227445e-02
1.911885e-03 -7.117798e-05 -3.225293e-02
8.564431e-03 1.492575e-02 -2.685783e-02
-8.501615e-03 1.491016e-02 -2.690863e-02
-5.600228e-03 1.382094e-02 -2.811966e-02
-2.337269e-04 -8.307081e-05 3.103212e-02
-3.145278e-02 -3.935369e-03 -2.059898e-03
3.152083e-02 -3.937092e-03 -2.115660e-03
-1.388565e-02 2.799193e-02 -2.287800e-04
3.121158e-02 2.845242e-03 2.486483e-03
-3.122487e-02 2.814330e-03 2.483193e-03
1.960270e-02 3.786888e-03 2.362420e-02
-1.965274e-02 3.774317e-03 2.348145e-02
3.076807e-02 1.415930e-03 3.898451e-03
-3.076021e-02 1.388753e-03 3.873031e-03
9.997513e-04 2.195259e-03 -3.200940e-02
2.881584e-04 2.049442e-05 3.089789e-02
-2.545496e-02 -1.775290e-02 -5.496615e-03
-1.951525e-02 -3.577791e-03 2.377409e-02
1.942975e-02 -3.594082e-03 2.385265e-02
1.360315e-02 1.164775e-02 2.531436e-02
1.491654e-02 9.909568e-03 2.533159e-02
-9.470405e-03 -1.772659e-02 2.289125e-02
2.690807e-03 -2.190566e-03 -3.182897e-02
-1.777635e-02 -1.120345e-02 -2.441802e-02
-2.245411e-03 1.951635e-02 2.393975e-02
1.218017e-02 1.265831e-03 -2.962802e-02
1.827168e-04 2.895991e-06 3.069926e-02
7.800442e-03 9.432167e-03 -2.962505e-02
6.644547e-03 -1.032012e-02 -2.960699e-02
1.074030e-02 -5.887213e-03 -2.961189e-02
1.199604e-02 -1.427412e-03 -2.956802e-02
3.762900e-03 -1.147970e-02 -2.957670e-02
-1.587967e-03 -1.196137e-02 -2.956774e-02
8.676460e-04 1.205302e-02 -2.959382e-02
1.166058e-02 -3.165640e-03 -2.959663e-02
8.320055e-03 -8.760860e-03 -2.967552e-02
2.534106e-03 1.200782e-02 -2.959208e-02
5.245504e-05 1.328931e-04 3.089912e-02
1.104127e-02 4.912939e-03 -2.966382e-02
7.867226e-03 -1.689723e-02 -2.585490e-02
-1.850519e-02 -6.207966e-03 2.375784e-02
1.847137e-02 -6.275507e-03 2.360007e-02
-3.235282e-04 -1.914345e-02 2.466920e-02
-1.559214e-02 1.008491e-02 2.512332e-02
-1.088724e-03 1.852088e-02 2.521156e-02
-1.859770e-02 -4.561629e-03 2.467255e-02
-1.828895e-02 -5.780843e-03 2.468700e-02
-7.741143e-03 1.681799e-02 2.518099e-02
8.835514e-05 -2.277549e-04 3.066378e-02
1.467494e-04 -2.376961e-05 3.090280e-02
-1.891575e-02 -2.988286e-03 2.467432e-02
-1.470341e-02 1.220358e-02 2.477006e-02
-1.877634e-02 -3.781107e-03 2.467833e-02
-3.386708e-03 1.824863e-02 2.520888e-02
-4.678752e-03 1.856656e-02 2.467217e-02
-1.114154e-02 -1.556851e-02 2.466305e-02
-1.116106e-02 1.555276e-02 2.466143e-02
-1.352141e-02 -1.355657e-02 2.468199e-02
-1.403135e-02 -1.431703e-02 2.378469e-02
6.241878e-03 -2.032810e-02 -2.418502e-02
-1.652801e-04 1.032189e-04 3.083881e-02
6.508484e-04 -2.126925e-02 -2.414580e-02
1.995304e-02 7.390643e-03 -2.414102e-02
1.721573e-02 1.251756e-02 -2.415386e-02
1.071125e-02 -1.838350e-02 -2.417470e-02
2.121599e-02 -1.699616e-03 -2.417814e-02
-1.997223e-03 -2.119970e-02 -2.419853e-02
-9.255111e-03 1.557569e-02 2.503900e-02
3.177513e-03 1.789485e-02 2.514695e-02
8.771544e-03 -2.915759e-02 -8.631329e-03
-2.026971e-02 2.276284e-02 -8.749550e-03
2.700031e-04 -1.314665e-04 3.107907e-02
2.025420e-02 2.277670e-02 -8.640651e-03
-1.841780e-02 9.277543e-04 2.529646e-02
-1.256783e-02 -1.357311e-02 2.523525e-02
-1.479412e-02 -1.196668e-02 2.485279e-02
-1.142366e-02 1.456336e-02 2.525796e-02
-1.827140e-02 -5.288837e-03 2.473186e-02
-1.534043e-02 1.044651e-02 2.512127e-02
-1.812398e-02 6.066090e-03 2.467037e-02
-1.140917e-02 -1.454562e-02 2.511197e-02
-1.318069e-02 1.295383e-02 2.510082e-02
7.549648e-05 1.663143e-04 3.087293e-02
-1.146100e-02 -1.531494e-02 2.467197e-02
-1.658021e-02 -8.359718e-03 2.516401e-02
1.199839e-03 1.908189e-02 2.457936e-02
-7.682459e-03 1.731865e-02 2.477382e-02
-7.440373e-03 -1.691464e-02 2.510575e-02
-1.651384e-02 9.641113e-03 2.468217e-02
-1.797383e-02 4.291120e-03 2.510494e-02
-4.338144e-03 1.864469e-02 2.473654e-02
-1.745553e-02 7.946093e-03 2.465731e-02
6.268632e-03 1.800248e-02 2.482204e-02
8.036495e-05 9.889889e-05 3.094099e-02
-1.786481e-03 -1.830858e-02 2.526960e-02