# vtk DataFile Version 2.0
Electric current density generated by TTH
ASCII
DATASET UNSTRUCTURED_GRID
POINTS 1890 double
2.462412e-05 -6.031170e-21 -3.830252e-22
2.306378e-05 8.626097e-06 -3.830252e-22
-1.723792e-05 -1.758412e-05 -3.830252e-22
-9.461806e-06 2.013166e-05 -1.334051e-06
-9.912474e-07 2.222417e-05 -1.335244e-06
1.205785e-05 -2.120820e-05 8.127988e-07
1.258648e-05 2.081498e-05 9.204613e-07
2.102073e-05 -9.176941e-06 1.558919e-06
1.028016e-06 2.194589e-05 -1.121018e-06
-1.497161e-05 -1.554961e-05 -5.204453e-07
1.858445e-05 1.223226e-05 1.336796e-06
-1.149681e-05 2.010702e-05 -1.560522e-06
-7.461559e-06 2.182072e-05 1.563819e-06
-1.652521e-05 -1.825554e-05 -3.830252e-22
3.687276e-06 2.409977e-05 -8.386646e-07
2.101672e-05 9.216100e-06 1.559826e-06
-1.593937e-06 -2.302065e-05 -1.563743e-06
1.148323e-06 -2.428918e-05 9.316483e-07
8.971354e-06 -2.259934e-05 9.335176e-07
3.689929e-08 -2.285797e-05 -1.550679e-06
1.979195e-05 -8.639813e-06 5.477556e-07
2.006646e-05 9.220495e-06 -1.221216e-06
-1.627320e-05 -1.581708e-05 1.520204e-06
1.977371e-05 8.719262e-06 5.868311e-07
-1.578637e-05 -1.889809e-05 -3.830252e-22
5.171165e-06 2.094758e-05 -4.935929e-07
-2.401360e-05 -4.176281e-06 -8.482916e-07
1.427717e-05 1.777013e-05 -1.541162e-06
1.427717e-05 -1.777013e-05 -1.541162e-06
2.008031e-05 -9.211549e-06 -1.228245e-06
-2.416261e-05 3.203572e-06 -8.482797e-07
-1.976295e-05 1.425794e-05 -8.555961e-07
-2.090930e-05 5.886978e-06 8.093893e-07
7.816977e-06 2.192720e-05 -1.548465e-06
-2.131410e-05 -8.339911e-06 -1.554260e-06
-1.502256e-05 -1.951076e-05 -3.830252e-22
-8.737897e-06 2.200082e-05 -1.439009e-06
4.479231e-07 2.366583e-05 -1.440041e-06
-1.720029e-05 1.625551e-05 -1.441648e-06
2.033113e-05 7.140722e-06 -4.005803e-07
-1.370353e-05 -2.019400e-05 -7.989981e-07
1.715309e-05 1.601886e-05 1.509246e-06
1.715309e-05 -1.601886e-05 1.509246e-06
2.131592e-05 -8.403853e-06 1.556841e-06
2.252316e-05 -5.963847e-06 -1.545439e-06
2.133747e-05 8.393103e-06 1.558284e-06
-1.423501e-05 -2.009258e-05 -3.830252e-22
-1.913855e-05 1.014115e-05 6.948557e-07
7.690988e-06 -2.030856e-05 -7.991490e-07
-1.922846e-05 1.496611e-05 8.601253e-07
-2.004012e-05 7.975290e-06 -4.699632e-07
7.238421e-06 -2.199540e-05 1.560899e-06
-2.160576e-05 -9.952165e-06 -1.384351e-06
1.765332e-05 -1.239471e-05 4.740977e-07
9.907359e-06 2.077526e-05 -1.563210e-06
-9.399030e-07 -2.437624e-05 8.159868e-07
8.199678e-06 -1.999064e-05 5.773234e-07
-1.342494e-05 -2.064263e-05 -3.830252e-22
-2.299842e-05 -3.652819e-06 1.547345e-06
2.151151e-05 -2.469311e-06 6.814601e-07
4.961883e-06 -2.112502e-05 -7.713073e-07
2.151203e-05 2.466480e-06 6.818599e-07
-9.590232e-07 -2.280165e-05 1.545527e-06
-1.506748e-06 2.333349e-05 -1.530355e-06
-1.560760e-05 1.741055e-05 -1.530343e-06
-1.740574e-05 -1.704494e-05 8.671994e-07
1.032100e-05 2.211237e-05 -8.025799e-07
2.536684e-06 -2.222085e-05 1.400829e-06
-1.259365e-05 -2.116004e-05 -3.830252e-22
2.035704e-05 -7.072782e-06 -4.082780e-07
-1.042132e-05 2.092526e-05 -1.531476e-06
9.239660e-06 -2.003999e-05 -1.208212e-06
-1.871618e-05 -1.129968e-05 1.005641e-06
4.740545e-06 -2.390606e-05 -8.521538e-07
-2.169362e-05 -4.029670e-07 -7.667677e-07
-2.294784e-05 -8.220633e-06 -8.454893e-07
2.268329e-05 9.001826e-06 7.996810e-07
3.774994e-06 -2.275574e-05 -1.563806e-06
2.268337e-05 -9.001857e-06 7.995406e-07
-1.174244e-05 -2.164399e-05 -3.830252e-22
4.820699e-06 -2.392437e-05 7.979575e-07
1.287432e-05 -2.074046e-05 7.875037e-07
1.182470e-05 1.847518e-05 -1.086195e-06
-2.115405e-05 1.200175e-05 9.245966e-07
2.095445e-05 -6.152793e-06 -9.768228e-07
7.054981e-06 2.132450e-05 1.444522e-06
-1.628561e-05 -1.535238e-05 -1.408655e-06
-2.383850e-05 -5.261219e-06 7.861064e-07
-8.481980e-06 2.028136e-05 1.134099e-06
-2.166006e-05 -2.413693e-06 -9.177956e-07
-1.087267e-05 -2.209372e-05 -3.830252e-22
-1.252675e-05 -1.864943e-05 1.446486e-06
1.349731e-05 1.902094e-05 -1.541555e-06
1.349731e-05 -1.902094e-05 -1.541555e-06
-5.030688e-06 2.384113e-05 8.604649e-07
-1.387110e-05 2.003247e-05 8.604630e-07
1.104527e-05 2.017425e-05 1.562655e-06
2.092419e-05 6.147649e-06 -9.374369e-07
-2.435616e-05 -1.329487e-06 8.191438e-07
6.355336e-06 2.090384e-05 -9.885805e-07
1.900445e-05 -1.059783e-05 8.682586e-07
-9.985704e-06 -2.250851e-05 -3.830252e-22
2.327443e-05 7.268975e-06 8.340544e-07
-8.312581e-07 2.437204e-05 8.291525e-07
2.169823e-05 3.365153e-06 -1.108888e-06
2.326799e-05 -7.285264e-06 8.360970e-07
1.109205e-05 -2.029681e-05 1.562268e-06
2.162669e-05 -4.909951e-06 1.290497e-06
2.170860e-05 -3.343961e-06 -1.115822e-06
2.426339e-05 -2.324396e-06 -8.476401e-07
2.427041e-05 2.165748e-06 -8.593374e-07
1.896499e-05 1.063439e-05 8.428667e-07
2.270260e-05 9.536212e-06 -3.830252e-22
-9.082950e-06 -2.288771e-05 -3.830252e-22
-1.138280e-05 -2.154419e-05 -8.600607e-07
3.751711e-06 -2.133629e-05 7.034331e-07
3.477677e-06 -2.194068e-05 1.315402e-06
-7.420041e-06 -2.321006e-05 -8.587014e-07
1.734312e-08 2.193799e-05 1.089015e-06
9.527493e-06 2.246252e-05 8.074347e-07
2.148649e-05 8.611952e-06 -1.561352e-06
2.162749e-05 4.908864e-06 1.290867e-06
-2.101523e-05 -1.238459e-05 8.182132e-07
-2.043207e-05 1.130085e-05 1.536928e-06
-8.165833e-06 -2.323072e-05 -3.830252e-22
-2.304425e-05 4.166954e-06 -1.522369e-06
2.148936e-05 -4.762596e-06 -1.159336e-06
-2.335051e-05 7.178473e-06 -7.564071e-07
-1.198963e-05 -2.003748e-05 -1.536634e-06
-2.191894e-05 1.078666e-05 -7.558458e-07
-7.641420e-06 2.320349e-05 -7.557916e-07
1.416914e-05 -1.978454e-05 9.059047e-07
-5.924327e-06 -2.258973e-05 -1.536057e-06
2.084829e-05 5.365488e-06 3.106392e-07
-1.540007e-05 -1.890185e-05 8.371338e-07
-7.235805e-06 -2.353700e-05 -3.830252e-22
2.385982e-05 5.289154e-06 -7.379946e-07
-2.431127e-05 -2.424960e-06 -7.511453e-07
-6.805520e-06 -2.238652e-05 -1.526898e-06
-2.438902e-05 1.456545e-06 -7.501059e-07
-3.488461e-06 2.122168e-05 -1.766281e-07
-1.143477e-05 1.821469e-05 -1.765943e-07
8.830005e-06 1.962926e-05 2.913955e-07
-6.353913e-06 2.251226e-05 -1.528289e-06
1.941171e-06 2.435533e-05 -7.499479e-07
2.151018e-05 -8.584981e-06 -1.560632e-06
-6.294335e-06 -2.380606e-05 -3.830252e-22
-2.110376e-05 -6.155184e-06 1.133613e-06
-1.875172e-05 1.566410e-05 -7.484250e-07
9.654223e-06 1.980567e-05 1.179370e-06
-7.444738e-06 2.078397e-05 -1.216065e-06
-1.340433e-05 -1.912807e-05 -1.535375e-06
-1.943275e-05 -1.265629e-05 -1.558364e-06
1.935656e-05 -1.139088e-05 -1.443797e-06
1.874305e-05 -1.565685e-05 -7.687879e-07
-2.265550e-05 -9.111297e-06 -7.742651e-07
1.507389e-05 -1.917112e-05 -8.269532e-07
-5.342912e-06 -2.403748e-05 -3.830252e-22
1.507389e-05 1.917112e-05 -8.269532e-07
6.653474e-06 -2.060231e-05 6.757791e-07
1.874356e-05 1.565728e-05 -7.676185e-07
5.195638e-06 -2.101508e-05 6.711344e-07
1.052810e-05 -2.199264e-05 8.347066e-07
1.933595e-05 1.138703e-05 -1.435434e-06
-2.096480e-05 6.144761e-06 -9.863271e-07
-1.034633e-05 -2.212394e-05 7.660110e-07
-6.362644e-06 -2.066418e-05 6.128177e-07
1.181683e-05 -1.953000e-05 1.546274e-06
-4.383042e-06 -2.423089e-05 -3.830252e-22
-1.946982e-05 9.940073e-06 -1.002931e-06
-2.242110e-06 -2.164964e-05 -8.768340e-07
-5.032683e-06 2.145473e-05 -1.182612e-06
-2.381358e-05 -1.077364e-06 -1.356763e-06
-2.437074e-05 -1.399837e-06 -7.882763e-07
-1.488930e-05 -1.923914e-05 -9.161302e-07
2.339081e-05 -2.087257e-06 -1.505396e-06
2.339081e-05 2.087257e-06 -1.505396e-06
-1.297105e-05 1.775004e-05 -1.134849e-06
-1.979113e-05 -1.172967e-05 -1.562875e-06
-3.416240e-06 -2.438599e-05 -3.830252e-22
7.641447e-06 -2.320358e-05 -7.556301e-07
-2.156714e-05 -3.457548e-06 9.811005e-07
2.082605e-05 -5.437741e-06 2.934146e-07
-1.122536e-05 -2.053451e-05 -1.525931e-06
-1.366621e-05 -1.720262e-05 1.121386e-06
1.187180e-05 -1.844386e-05 -1.085251e-06
-2.357922e-05 6.320760e-06 7.869080e-07
-1.335495e-05 -2.033030e-05 9.206552e-07
-2.340460e-05 -6.772343e-06 8.625526e-07
-9.622647e-06 -2.114860e-05 -1.554046e-06
-2.444038e-06 -2.450253e-05 -3.830252e-22
-5.088790e-06 -2.388434e-05 7.717437e-07
1.481661e-05 1.569665e-05 -5.189609e-07
1.481661e-05 -1.569665e-05 -5.189609e-07
-2.441580e-05 4.250748e-07 -7.733713e-07
-1.886548e-05 1.142963e-05 -1.200145e-06
2.272836e-05 8.909364e-06 -7.860821e-07
-2.689814e-06 2.139516e-05 4.531677e-07
-1.076613e-05 1.868240e-05 4.495932e-07
2.387830e-05 -5.195663e-06 -7.417315e-07
5.272495e-06 2.302124e-05 1.461262e-06
-1.467970e-06 -2.458033e-05 -3.830252e-22
-1.714694e-05 1.301216e-05 2.982788e-07
2.297753e-05 4.173600e-06 1.536088e-06
-2.301797e-05 8.157434e-06 -7.712639e-07
2.297862e-05 -4.174498e-06 1.535852e-06
-1.259360e-05 -1.828873e-05 -1.309404e-06
-8.270712e-06 -2.169850e-05 -1.555508e-06
7.723934e-06 2.315973e-05 -7.833637e-07
2.243302e-05 4.918581e-06 -1.560968e-06
-2.115529e-05 3.965267e-06 2.904770e-07
-1.839422e-05 -1.157336e-05 -8.256907e-07
-4.895814e-07 -2.461925e-05 -3.830252e-22
2.315668e-05 -3.635623e-06 -1.516937e-06
-1.806070e-05 1.643871e-05 -7.694825e-07
9.043347e-07 2.440497e-05 -7.694648e-07
-8.617576e-06 2.285077e-05 -7.694627e-07
2.318136e-05 3.710804e-06 -1.507421e-06
-2.235050e-05 9.842695e-06 -7.693454e-07
-2.232805e-05 8.413695e-06 -1.343475e-06
1.001232e-05 -1.978443e-05 1.288161e-06
2.273352e-05 -8.901732e-06 -7.825874e-07
-2.331401e-05 -2.604432e-06 -1.512132e-06
2.230552e-05 1.043125e-05 -3.830252e-22
4.895814e-07 -2.461925e-05 -3.830252e-22
-1.544181e-05 -1.582735e-05 -1.243724e-06
8.261901e-06 -2.294727e-05 8.242577e-07
-1.782961e-05 -1.539852e-05 -1.482292e-06
1.822652e-05 -1.199404e-05 -9.509846e-07
-2.908533e-06 -2.426402e-05 7.404357e-07
-1.325474e-05 1.943121e-05 1.494269e-06
-4.698638e-06 2.304815e-05 1.494044e-06
-2.181999e-05 -7.726722e-07 9.699947e-07
8.021059e-06 -2.130036e-05 1.534822e-06
-8.561241e-06 2.289037e-05 7.380832e-07
1.467970e-06 -2.458033e-05 -3.830252e-22
2.096241e-06 2.320547e-05 1.545346e-06
1.781903e-05 -1.505974e-05 1.540293e-06
1.781903e-05 1.505974e-05 1.540293e-06
-1.115583e-05 2.176443e-05 -7.034728e-07
-2.250905e-05 6.652930e-06 -1.508746e-06
1.821346e-05 1.202679e-05 -9.602090e-07
[...]
POINT_DATA 1890
VECTORS 10.000GHz_fone_imag double
-1.335989e-03 -1.852143e-04 1.827861e-02
1.766492e-04 2.151159e-04 1.818219e-02
3.503346e-04 1.818729e-04 1.823390e-02
-9.316693e-03 1.977903e-02 -1.437096e-02
-9.272277e-04 2.225319e-02 -1.488269e-02
-4.695813e-03 9.228473e-03 1.568569e-02
-5.828431e-03 -9.896963e-03 1.572406e-02
-2.244266e-02 9.569750e-03 -3.475871e-03
1.099552e-03 1.950286e-02 -1.928782e-02
-6.991698e-03 -6.300958e-03 -2.651415e-02
-1.855204e-02 -1.208668e-02 -1.462843e-02
-1.105577e-02 1.961590e-02 3.319373e-04
7.793197e-03 -2.189088e-02 -4.417486e-04
3.453412e-05 3.890212e-04 1.848073e-02
2.019867e-03 1.051313e-02 1.535261e-02
-2.214890e-02 -9.758656e-03 -3.591402e-03
-1.601768e-03 -2.289887e-02 -1.616008e-03
-8.162349e-04 1.178164e-02 1.474316e-02
-5.136189e-03 1.077539e-02 1.509222e-02
1.908974e-04 -2.349302e-02 -4.370553e-03
-7.752932e-03 5.051471e-03 -2.581025e-02
1.859082e-02 8.580377e-03 -1.838093e-02
1.705148e-02 1.589508e-02 -7.120722e-03
-1.036972e-02 -4.338712e-03 -2.466433e-02
2.070560e-04 2.502077e-04 1.811412e-02
1.446627e-03 8.246244e-03 -2.757212e-02
-9.929375e-03 -1.472792e-03 1.439338e-02
1.487518e-02 1.750886e-02 -5.029549e-03
1.470225e-02 -1.863224e-02 -4.859281e-03
1.848297e-02 -8.511270e-03 -1.801745e-02
-1.053273e-02 1.320700e-03 1.570337e-02
-8.788333e-03 6.487558e-03 1.537095e-02
1.274205e-02 -4.814279e-03 -2.480970e-02
7.995309e-03 2.082764e-02 1.914141e-03
-2.245287e-02 -7.514105e-03 -3.192886e-03
-4.298146e-04 5.777120e-05 1.810109e-02
-7.176065e-03 1.844988e-02 7.312058e-03
4.295910e-04 1.980811e-02 8.149703e-03
-1.517348e-02 1.335933e-02 6.988230e-03
5.945076e-03 1.452283e-03 -2.824443e-02
-6.364952e-03 -8.652980e-03 1.634018e-02
-1.568948e-02 -1.431197e-02 4.896769e-03
-1.598113e-02 1.378242e-02 4.291079e-03
-2.265766e-02 8.712854e-03 -3.715973e-03
2.155227e-02 -4.670733e-03 3.200092e-03
-2.245669e-02 -8.484251e-03 -3.497145e-03
7.086294e-04 5.117872e-04 1.839998e-02
1.064932e-02 -5.754815e-03 -2.628319e-02
4.710246e-03 -1.412063e-02 -2.426786e-02
9.062492e-03 -6.519891e-03 1.538723e-02
-7.804900e-03 3.252065e-03 -2.744664e-02
-7.569325e-03 2.104514e-02 -1.872769e-04
-1.541431e-02 -7.377114e-03 8.330135e-03
-6.362748e-03 5.164958e-03 -2.782098e-02
1.018189e-02 2.078435e-02 -2.205467e-03
-3.327915e-04 9.447664e-03 1.534750e-02
-2.873014e-03 9.794992e-03 -2.759661e-02
-3.020584e-04 3.272614e-04 1.893803e-02
2.274176e-02 3.661523e-03 1.988557e-03
-1.171737e-02 3.873786e-04 -2.825574e-02
2.428554e-03 -1.352932e-02 -2.489923e-02
-1.172373e-02 -1.391308e-03 -2.678582e-02
1.733805e-03 2.318016e-02 -4.932116e-03
-1.863099e-03 2.263500e-02 4.189806e-03
-1.477842e-02 1.576489e-02 3.019719e-03
7.649795e-03 7.361003e-03 1.521090e-02
3.871536e-03 9.113645e-03 1.589702e-02
-2.164271e-03 2.250342e-02 -1.215757e-02
1.562306e-05 -2.481415e-04 1.854182e-02
7.041856e-03 -1.168017e-03 -2.859068e-02
-1.010630e-02 1.933691e-02 2.794910e-03
6.756236e-03 -1.625617e-02 -1.839586e-02
1.483785e-02 9.120528e-03 -2.157928e-02
2.622572e-03 -1.080450e-02 1.469424e-02
-1.422222e-02 -6.895595e-04 -2.697653e-02
-9.707969e-03 -3.691027e-03 1.542474e-02
-9.530546e-03 -3.993800e-03 1.607364e-02
3.809224e-03 -2.270238e-02 -8.268154e-05
-9.006035e-03 3.657896e-03 1.641995e-02
-1.560589e-04 1.277832e-04 1.832650e-02
-1.699362e-03 1.022240e-02 1.657513e-02
-5.693794e-03 8.728403e-03 1.575676e-02
9.886082e-03 1.539242e-02 -1.993027e-02
1.031915e-02 -6.168359e-03 1.484064e-02
1.638257e-02 -5.819771e-03 -2.038265e-02
-8.086841e-03 -2.110289e-02 -1.195148e-02
-1.675922e-02 -1.508915e-02 -1.204309e-02
9.776047e-03 2.040768e-03 1.627195e-02
7.079608e-03 -1.789660e-02 -1.922744e-02
-1.627623e-02 -1.586302e-03 -2.368722e-02
2.219923e-04 -5.421124e-04 1.814482e-02
1.364757e-02 2.010367e-02 -1.011833e-02
1.167890e-02 1.824993e-02 2.424898e-03
1.310678e-02 -1.729838e-02 3.147822e-03
1.957375e-03 -1.083767e-02 1.574417e-02
6.218960e-03 -9.525002e-03 1.555445e-02
-1.106347e-02 -2.082397e-02 -3.898334e-03
1.602480e-02 4.524773e-03 -2.225989e-02
1.122211e-02 1.415901e-04 1.565737e-02
4.445027e-03 1.610546e-02 -2.246445e-02
-1.356355e-02 7.511373e-03 -2.362590e-02
2.765509e-04 -7.630187e-05 1.831886e-02
-1.012428e-02 -3.152982e-03 1.577263e-02
4.217034e-04 -1.023711e-02 1.597400e-02
1.945591e-02 2.178680e-03 -1.891874e-02
-1.109310e-02 2.849783e-03 1.381886e-02
-1.128481e-02 2.007569e-02 -5.312600e-04
-2.072498e-02 4.582827e-03 -1.619158e-02
1.761593e-02 -3.049259e-03 -1.826262e-02
1.113060e-02 -1.201697e-03 1.588005e-02
1.131141e-02 1.263392e-03 1.550942e-02
-1.317156e-02 -6.829915e-03 -2.448255e-02
7.723886e-04 -5.722948e-04 1.796925e-02
1.962566e-04 3.827972e-04 1.819538e-02
-5.211909e-03 -9.966710e-03 1.541914e-02
-2.612304e-03 1.246454e-02 -2.595606e-02
-4.002801e-03 2.143670e-02 -1.510933e-02
-3.953287e-03 -1.064323e-02 1.567901e-02
-1.337469e-03 -1.827726e-02 -1.897953e-02
-3.717980e-03 -9.859292e-03 1.550253e-02
2.032969e-02 9.385504e-03 9.878843e-04
-2.059954e-02 -4.490643e-03 -1.604354e-02
9.448919e-03 5.440711e-03 1.566916e-02
1.887706e-02 -1.092334e-02 3.222046e-03
9.693494e-05 9.266016e-04 1.812934e-02
-2.143436e-02 3.806748e-03 4.377335e-03
1.868332e-02 -3.927106e-03 -1.903094e-02
-9.289457e-03 2.919262e-03 1.616342e-02
-1.083102e-02 -1.869941e-02 3.402156e-03
-9.304132e-03 3.989528e-03 1.572183e-02
-3.041272e-03 9.257856e-03 1.648972e-02
-6.934558e-03 8.907816e-03 1.517620e-02
-5.080840e-03 -1.992925e-02 4.454762e-03
-5.067747e-03 -1.359502e-03 -2.871041e-02
6.666064e-03 8.203949e-03 1.538445e-02
3.216106e-04 2.699475e-05 1.826740e-02
9.222059e-03 2.301905e-03 1.608856e-02
-1.000834e-02 -1.364610e-03 1.648797e-02
-6.458064e-03 -1.987481e-02 4.211640e-03
-9.470270e-03 9.001011e-04 1.627992e-02
-5.047543e-04 3.510594e-03 -2.871556e-02
-1.614284e-03 2.736131e-03 -2.930430e-02
-1.683204e-03 -4.722669e-03 -2.848714e-02
-5.403904e-03 2.094311e-02 3.487653e-03
8.943877e-04 9.930186e-03 1.581939e-02
2.122678e-02 -8.674693e-03 1.753179e-04
-1.403875e-04 6.378491e-04 1.924096e-02
1.667423e-02 5.285695e-03 -2.026504e-02
-7.092082e-03 6.060211e-03 1.614673e-02
-8.557846e-03 -1.779164e-02 -1.877021e-02
-7.263983e-03 1.922238e-02 -1.690595e-02
-1.344265e-02 -1.744684e-02 1.977823e-03
-1.911380e-02 -1.195575e-02 6.847345e-04
2.040874e-02 -1.196946e-02 -9.930317e-03
7.601370e-03 -6.019232e-03 1.572344e-02
-9.115215e-03 -3.339366e-03 1.603776e-02
6.397435e-03 -7.783130e-03 1.553758e-02
2.127308e-04 -7.610680e-05 1.848564e-02
6.929795e-03 8.513230e-03 1.538380e-02
-3.853834e-03 1.198094e-02 -2.660992e-02
7.601419e-03 5.960696e-03 1.571792e-02
-2.833708e-03 1.245068e-02 -2.652108e-02
-3.449420e-03 8.698208e-03 1.521811e-02
1.921448e-02 1.130743e-02 -1.230236e-02
-1.587420e-02 4.544590e-03 -2.219389e-02
4.285536e-03 8.780163e-03 1.593510e-02
3.361032e-03 1.035717e-02 -2.677460e-02
-1.243810e-02 2.029145e-02 -4.680682e-03
3.474627e-04 5.342818e-04 1.730273e-02
-1.501540e-02 7.664485e-03 -2.168963e-02
-1.531408e-03 -1.595518e-02 -2.318627e-02
-5.105095e-03 1.944657e-02 -1.955827e-02
-1.777997e-02 -4.154110e-04 9.337649e-03
-1.010077e-02 3.028995e-04 1.565366e-02
-7.424235e-03 -9.065738e-03 1.505940e-02
2.122513e-02 -2.472493e-03 4.800644e-03
2.063708e-02 6.136535e-04 4.861293e-03
-1.170903e-02 1.594723e-02 -1.919882e-02
-2.019933e-02 -1.215305e-02 -2.250732e-03
-8.084404e-04 2.445495e-04 1.761693e-02
3.072475e-03 -9.401908e-03 1.605610e-02
1.476088e-02 1.936278e-03 -2.105094e-02
-4.553006e-03 1.034184e-03 -2.894602e-02
-1.029902e-02 -1.868451e-02 3.619908e-03
1.202457e-02 1.497228e-02 -1.949715e-02
1.025583e-02 -1.472903e-02 -2.006475e-02
8.762150e-03 -1.752563e-03 1.513555e-02
6.768226e-03 1.038039e-02 1.517613e-02
1.064289e-02 3.014654e-03 1.576229e-02
-9.196199e-03 -2.052893e-02 1.732324e-03
1.265490e-03 4.124283e-04 1.774773e-02
1.524193e-03 1.000786e-02 1.551524e-02
6.328743e-03 7.291605e-03 -2.715198e-02
6.482352e-03 -7.013127e-03 -2.787943e-02
-1.047362e-02 4.088131e-04 1.623455e-02
-1.591834e-02 1.054341e-02 -1.762511e-02
9.080435e-03 3.687199e-03 1.583240e-02
9.472993e-04 -8.024963e-03 -2.761695e-02
3.628215e-03 -6.131217e-03 -2.772567e-02
9.255717e-03 -1.433582e-03 1.620347e-02
-4.312969e-03 -1.991403e-02 6.799144e-03
-5.063952e-04 7.260605e-04 1.858119e-02
3.903769e-03 -3.549090e-03 -2.844997e-02
-2.140294e-02 -3.111160e-03 2.500402e-03
-9.063616e-03 3.238017e-03 1.617066e-02
-2.139526e-02 2.859729e-03 2.948903e-03
-1.119037e-02 -1.741590e-02 -1.249887e-02
-7.726798e-03 -2.148444e-02 1.233191e-03
2.789943e-03 8.727350e-03 1.660331e-02
2.256958e-02 5.300646e-03 -2.597227e-03
5.019691e-03 -2.882107e-04 -2.888852e-02
-1.171199e-02 -7.976180e-03 -2.441674e-02
1.316625e-04 -5.587076e-05 1.825461e-02
2.111248e-02 -3.332842e-03 4.065432e-03
-7.199797e-03 6.648612e-03 1.649595e-02
-4.878867e-04 9.289325e-03 1.557913e-02
-3.303356e-03 9.257760e-03 1.604985e-02
2.017668e-02 3.279321e-03 4.452143e-03
-8.955784e-03 3.699853e-03 1.587318e-02
-1.704468e-02 6.470327e-03 9.510797e-03
-9.054225e-03 1.922831e-02 -1.632599e-02
8.352302e-03 -3.078640e-03 1.568427e-02
-1.972865e-02 -2.154341e-03 3.956918e-03
6.835548e-04 1.005523e-03 1.820332e-02
2.499311e-04 4.668079e-04 1.810469e-02
-1.403105e-02 -1.455274e-02 -1.705295e-02
-3.774382e-03 1.063379e-02 1.586752e-02
-1.539122e-02 -1.374613e-02 6.335184e-03
1.393831e-02 -9.052532e-03 -2.264681e-02
1.266066e-03 8.551701e-03 1.615606e-02
1.195008e-02 -1.751180e-02 5.383366e-03
4.286177e-03 -2.075837e-02 5.732530e-03
1.686026e-02 4.204106e-04 -2.163507e-02
-7.383958e-03 2.210467e-02 -3.843289e-03
3.329980e-03 -8.386723e-03 1.625176e-02
-3.918523e-04 2.003248e-04 1.795497e-02
-2.445149e-03 -2.228164e-02 2.213649e-03
-1.670895e-02 1.404135e-02 3.272915e-03
-1.662770e-02 -1.414046e-02 3.430744e-03
-3.890505e-03 7.912973e-03 1.645122e-02
-2.034619e-02 6.174947e-03 5.085253e-03
1.211767e-02 9.453242e-03 -2.252275e-02
2.114412e-02 5.859323e-03 4.844705e-03
-1.260040e-02 1.785852e-02 3.089462e-03
1.558245e-02 -9.405958e-03 -2.061776e-02
9.542667e-03 -1.787432e-03 1.546548e-02
-1.711520e-04 -2.920998e-04 1.819254e-02
2.165845e-02 4.864686e-03 2.796396e-03
1.839163e-02 -5.630780e-04 -1.880338e-02
8.367980e-03 -3.581864e-03 1.604213e-02
1.963190e-02 3.287013e-03 -1.875328e-02
5.110812e-03 -7.140253e-03 -2.776722e-02
1.247214e-02 -1.489598e-02 -1.945969e-02
4.949565e-03 8.141356e-03 -2.670681e-02
1.209908e-02 1.479374e-02 -1.901188e-02
1.813289e-02 3.814191e-03 -1.974835e-02
-1.035044e-02 -1.354490e-02 -2.453067e-02
-1.959985e-04 -5.605522e-04 1.812817e-02
-1.000860e-02 1.204551e-02 -2.309805e-02
-1.907600e-02 9.176330e-03 4.887261e-03
1.029207e-04 -1.106187e-02 1.535914e-02
1.576213e-03 2.092587e-02 5.111001e-03
-1.431631e-02 8.528517e-03 -2.174086e-02
1.870037e-02 1.109876e-02 3.892441e-03
1.595874e-02 -1.087201e-02 6.046102e-03
3.831201e-03 -8.387160e-03 1.633031e-02
1.235946e-02 1.814635e-02 1.378139e-03
-1.294327e-02 -1.675741e-02 4.680647e-03
2.329284e-04 -1.312869e-03 1.805004e-02
-1.802823e-02 -7.690127e-03 8.325210e-03
2.158194e-02 5.081676e-04 3.352341e-03
-1.933851e-02 -7.232560e-03 5.822798e-03
-1.769089e-02 6.901419e-03 8.174169e-03
-2.136854e-02 6.060452e-03 2.341089e-03
1.765833e-02 -1.390052e-02 2.704297e-03
4.900654e-04 -1.907612e-02 -2.001089e-02
-1.111761e-02 1.320346e-02 -1.962061e-02
1.773479e-02 1.398945e-02 2.700145e-03
-5.311111e-03 1.627041e-02 -2.153627e-02
7.636250e-04 -4.669933e-04 1.821464e-02
1.054196e-02 1.445569e-03 1.628346e-02
-2.521714e-03 3.341530e-03 -2.912340e-02
-2.403253e-03 4.030197e-03 -2.792136e-02
-2.164737e-02 -5.452082e-03 2.922069e-03
-6.013217e-03 6.639143e-03 1.748189e-02
-9.613849e-04 8.395007e-03 1.483407e-02
8.819481e-03 -1.120657e-03 1.655243e-02
-2.278464e-02 6.987133e-03 -1.243887e-03
3.467135e-03 2.253962e-02 1.975477e-03
-7.204758e-04 -9.250330e-03 1.625731e-02
1.231127e-04 5.158758e-05 1.869632e-02
2.193774e-02 -4.632960e-03 3.301377e-03
4.885560e-03 -1.802275e-02 -1.923673e-02
1.100986e-02 -1.629875e-02 -1.623156e-02
1.327640e-02 1.462733e-02 -1.835056e-02
1.372009e-02 -1.470410e-02 -1.862082e-02
2.022652e-02 -8.021866e-03 3.058131e-03
-3.514348e-03 -9.362803e-03 1.613160e-02
-2.035607e-03 4.457370e-03 -2.941085e-02
4.344498e-03 8.418395e-03 1.592561e-02
4.826908e-03 -8.030234e-03 1.634473e-02
-2.167577e-04 -3.040028e-04 1.830345e-02
1.446302e-03 -8.953815e-03 1.636538e-02
-2.232266e-02 -6.718849e-03 -2.271635e-03
6.901210e-03 -7.383889e-03 1.470924e-02
3.022263e-04 -4.848760e-03 -2.692868e-02
1.773785e-03 -1.657417e-03 -2.909492e-02
9.811403e-04 -2.634195e-03 -2.894926e-02
1.381444e-03 -1.603224e-02 -2.288626e-02
-3.955161e-03 9.295677e-04 -2.933179e-02
-9.353653e-03 1.815067e-03 1.572995e-02
1.432318e-03 1.755236e-02 -2.108162e-02
6.225067e-05 3.347417e-04 1.866856e-02
1.052063e-02 8.219028e-03 -2.530552e-02
-9.364028e-03 -2.483783e-03 1.571798e-02
7.624130e-04 -2.113240e-02 5.999923e-03
1.079954e-02 -8.258380e-03 -2.518734e-02
-4.318702e-03 -6.761535e-04 -2.914699e-02
1.175763e-02 1.039838e-02 -2.361071e-02
-1.302282e-02 -1.545417e-02 -1.690297e-02
-1.079143e-02 -8.414076e-03 -2.411468e-02
1.912280e-02 -1.231131e-02 -1.426915e-02
-8.274572e-03 -4.895933e-03 1.677893e-02
8.545267e-05 -7.393593e-05 1.852840e-02
-8.061516e-03 4.489886e-03 1.738270e-02
3.450718e-03 1.843228e-02 -1.977514e-02
1.377787e-02 -1.591086e-02 5.685906e-03
1.410316e-02 1.520664e-02 5.161372e-03
2.071353e-02 -3.944798e-03 4.419714e-03
5.427060e-03 2.118393e-02 1.838123e-03
2.059054e-03 -2.273497e-02 5.231113e-04
8.468095e-03 6.770426e-03 -2.632026e-02
8.667286e-03 -7.027117e-03 -2.648649e-02
2.212347e-02 1.535948e-03 -8.645827e-03
1.290289e-04 1.967214e-04 1.905354e-02
6.099812e-05 5.316518e-04 1.749002e-02
-2.067166e-02 -4.519697e-03 4.716628e-03
-1.286733e-02 -1.553681e-02 5.886746e-03
2.275651e-02 1.115013e-03 -1.253189e-02
2.216768e-02 -1.787617e-03 -1.201023e-02
-1.725074e-02 -1.391906e-02 8.757443e-04
5.495040e-03 -1.786894e-02 8.335709e-03
-2.014346e-02 -3.451128e-03 -1.973043e-02
1.225995e-02 1.033711e-02 -2.338166e-02
2.194487e-02 -8.207292e-03 -8.502657e-03
8.138682e-05 -9.523676e-03 1.601149e-02
-7.075038e-04 -4.414760e-05 1.780195e-02
2.374688e-02 -1.383010e-03 -6.478586e-03
-1.907667e-02 1.107901e-02 -1.338881e-02
2.191154e-02 7.917879e-03 3.106765e-03
6.478114e-03 -6.726494e-03 1.556724e-02
7.182065e-03 7.735844e-03 1.544282e-02
-1.958164e-02 -8.037802e-03 -1.899554e-02
4.636742e-03 -3.150483e-04 -2.843558e-02
8.515210e-03 -1.940031e-02 4.044212e-03
-1.922935e-02 -1.145677e-02 1.528985e-03
-8.571356e-03 -1.813407e-02 7.699975e-03
2.659796e-04 -1.939243e-04 1.804171e-02
1.118655e-02 -1.594468e-04 1.640569e-02
1.000640e-02 2.811569e-04 1.640507e-02
-1.190466e-02 1.740274e-02 5.005250e-03
-4.504204e-03 2.131850e-02 6.249541e-03
-1.808317e-02 1.173644e-02 4.523951e-03
1.225150e-02 -9.928209e-03 -2.267608e-02
-1.817392e-02 1.185729e-02 -2.140325e-04
4.415912e-03 2.096217e-02 4.769611e-03
-1.562851e-02 -5.221210e-03 -2.297725e-02
1.195810e-02 -1.773264e-02 -1.446444e-02
3.643762e-05 -2.228373e-04 1.838418e-02
3.725309e-03 -2.122447e-02 -1.491020e-02
-1.195932e-02 2.025085e-03 -2.581714e-02
1.649942e-03 -7.111999e-04 -3.029368e-02
8.281897e-03 3.915952e-03 1.657390e-02
9.785282e-03 -3.960328e-03 1.533035e-02
-2.230711e-03 1.796899e-02 -2.052967e-02
-1.145762e-02 1.784047e-02 5.172961e-03
-2.642511e-03 -2.095936e-02 5.332587e-03
7.830137e-03 5.390963e-03 1.600859e-02
8.679821e-03 5.434666e-03 1.463564e-02
1.897793e-04 -2.335841e-04 1.813489e-02
1.593775e-02 -1.473666e-02 5.040615e-03
-9.243517e-03 -8.118265e-04 1.669674e-02
-9.147530e-03 4.708321e-04 1.651836e-02
-7.322961e-03 -7.814909e-03 1.546413e-02
-7.127701e-03 7.841583e-03 1.546346e-02
-4.697759e-04 -1.897273e-03 -2.894987e-02
-4.489183e-03 2.125494e-02 -2.456676e-03
-1.751036e-02 -1.010211e-02 6.075305e-03
-1.417480e-02 -1.380696e-02 7.470137e-03
-8.535848e-03 -5.524956e-03 1.568692e-02
-2.630173e-04 -9.341540e-05 1.801737e-02
3.338605e-03 1.276643e-02 -2.482525e-02
-8.153739e-03 -2.023471e-02 -1.428640e-02
-1.090023e-03 -2.184371e-02 4.309369e-03
7.486981e-04 3.952073e-03 -2.894579e-02
-4.840505e-04 -1.327393e-03 -2.978121e-02
1.872567e-02 1.173050e-02 3.391844e-03
9.137760e-03 -2.697476e-03 1.686738e-02
1.782827e-02 -1.220208e-02 1.009762e-03
-1.254404e-02 -1.645504e-02 3.448477e-03
-1.333693e-02 1.762802e-02 3.392678e-03
-5.998245e-05 4.069018e-04 1.785201e-02
1.322644e-02 1.551495e-02 6.559929e-03
7.600783e-03 5.234261e-03 1.600230e-02
2.158997e-02 -9.685706e-03 -7.123649e-03
1.617621e-02 -1.477957e-02 3.601828e-03
-1.974631e-02 9.217407e-03 4.105906e-04
1.880805e-02 -2.479322e-03 -1.977422e-02
7.738282e-03 -5.027697e-03 1.638357e-02
-6.124156e-03 -6.044379e-03 1.650671e-02
5.929536e-03 -2.161135e-02 1.913301e-03
1.401077e-02 -1.735251e-02 2.280563e-03
4.242164e-04 -1.475704e-03 1.758400e-02
2.260673e-02 3.976723e-03 -1.216928e-02
-1.874591e-02 -1.065353e-02 8.740253e-04
-4.810678e-03 -1.392742e-04 -2.822422e-02
-9.330712e-03 -1.796883e-03 -2.629302e-02
-8.454942e-03 5.790811e-04 -2.850117e-02
-9.755899e-03 1.501264e-02 -2.084264e-02
-1.362453e-02 1.089146e-02 -2.109788e-02
-1.795906e-03 1.671669e-02 -2.164786e-02
-8.389082e-03 1.615183e-02 -2.045073e-02
-1.484131e-02 1.409738e-02 -1.844971e-02
5.104643e-04 4.522186e-04 1.778707e-02
-1.583719e-02 1.440074e-02 2.902215e-03
6.436199e-03 -6.356521e-03 1.603787e-02
-1.933977e-02 -1.140678e-02 -1.456710e-02
2.292945e-03 7.427436e-03 -2.792303e-02
8.335158e-03 -5.192770e-03 1.594280e-02
3.075769e-03 -1.355064e-02 -2.490206e-02
-1.921243e-03 -1.240988e-03 -2.898796e-02
-8.560233e-03 4.359119e-03 1.667779e-02
-7.279641e-03 -4.780210e-03 1.637564e-02
-3.856769e-03 -2.840826e-04 -2.818258e-02
-2.334232e-04 2.032957e-04 1.792571e-02
-6.739088e-03 1.811594e-03 -2.669337e-02
8.938575e-03 2.748081e-03 1.636233e-02
8.945027e-03 3.988178e-03 1.573868e-02
-2.137599e-02 3.740234e-04 1.806616e-03
7.883220e-03 1.814662e-03 1.621533e-02
1.248016e-02 1.764467e-02 -8.937526e-03
1.427715e-02 -1.883256e-02 -8.274093e-03
-2.679580e-03 -2.418761e-04 -2.884748e-02
2.811492e-03 2.124511e-02 4.090724e-03
7.446997e-03 1.674243e-02 9.468434e-03
4.295312e-05 2.862048e-05 1.812830e-02
3.349800e-04 -4.147263e-04 1.807490e-02
-7.073265e-03 6.012794e-03 1.565277e-02
-7.648488e-03 -5.031952e-03 1.597950e-02
-1.928876e-02 1.026278e-02 -1.430337e-02
1.767833e-02 -1.191210e-02 3.646100e-03
-8.160700e-03 -4.493394e-03 1.623102e-02
1.948900e-02 -1.016315e-03 -1.817184e-02
-1.012048e-02 -2.116435e-03 1.586152e-02
-9.702435e-03 1.881132e-03 1.556110e-02
5.211349e-04 -8.753738e-03 1.639871e-02
4.579594e-03 -7.859692e-03 1.641651e-02
4.070774e-04 4.561138e-07 1.815266e-02
1.758426e-02 1.578952e-02 -6.377124e-03
-1.888635e-02 1.031692e-02 3.940893e-03
-1.831485e-02 -1.019206e-02 -1.650005e-02
1.488342e-03 8.696220e-03 1.618907e-02
5.340592e-03 2.275165e-02 -7.842614e-03
-2.123256e-02 5.980156e-03 3.381479e-03
-1.778997e-02 2.389139e-03 -1.980174e-02
-2.309018e-02 3.071111e-03 -4.586775e-03
-9.196826e-03 -2.075650e-02 -1.103725e-02
-1.849146e-03 9.570464e-03 1.550268e-02
-1.251006e-04 3.172916e-04 1.801459e-02
-6.189418e-03 8.330779e-03 1.567650e-02
-1.925051e-03 9.893787e-03 1.617629e-02
1.364735e-02 1.327597e-02 8.210887e-03
1.356648e-02 -1.347163e-02 8.044848e-03
-3.867594e-03 -2.112027e-02 5.253703e-03
-1.924496e-02 1.196004e-03 -2.014778e-02
-6.115755e-03 6.068632e-03 1.633760e-02
-6.148221e-03 -5.618949e-03 1.647792e-02
-1.805007e-03 -9.672796e-03 1.582821e-02
-2.012177e-02 6.316781e-03 -1.570155e-02
1.989860e-04 -3.584365e-04 1.813360e-02
-6.615511e-03 -6.154997e-03 1.618388e-02
-6.418298e-03 5.633014e-03 -2.836740e-02
2.838032e-04 9.244482e-03 -2.808772e-02
-3.742677e-03 8.736689e-03 -2.751420e-02
2.878932e-03 7.196785e-03 1.595694e-02
-9.364447e-03 -1.867596e-02 4.834113e-03
-4.383870e-03 -7.429290e-03 1.701743e-02
-2.120624e-02 -4.019238e-03 3.893369e-03
-1.601281e-02 1.589415e-02 -6.953765e-03
1.695017e-04 2.330654e-02 -9.697410e-03
1.710432e-04 9.990147e-04 1.802440e-02
-8.822701e-03 2.129179e-02 -9.196941e-03
-5.289418e-03 6.250489e-03 1.665129e-02