# vtk DataFile Version 2.0
Electric current density generated by TTH
ASCII
DATASET UNSTRUCTURED_GRID
POINTS 2099 double
-1.242300e-05 -1.489148e-05 -4.679505e-22
-1.469193e-05 -5.161836e-06 -4.229937e-08
-1.481139e-05 7.628596e-06 1.724729e-06
-1.955665e-06 -1.911789e-05 7.994636e-07
-1.794598e-05 -7.703335e-07 -1.849249e-06
-5.218028e-07 1.645838e-05 1.618160e-06
-8.150832e-06 -1.354414e-05 9.193261e-07
-1.276595e-05 -9.737125e-06 -1.270553e-06
1.560039e-05 -1.815624e-06 7.024732e-07
1.560039e-05 1.815624e-06 7.024732e-07
1.441158e-05 1.132979e-05 1.711319e-06
-1.163993e-05 -1.551125e-05 -4.679505e-22
8.099234e-07 1.610712e-05 -1.346973e-06
2.090082e-06 -1.710336e-05 1.893884e-06
-1.753892e-06 -1.592661e-05 -1.232886e-06
1.128643e-05 1.125656e-05 1.127897e-06
1.792889e-05 6.763486e-06 -9.102379e-07
-1.305767e-05 -8.851126e-06 8.569540e-07
1.356735e-05 7.831798e-06 5.910101e-07
-1.919048e-05 -4.919384e-07 -8.432886e-07
4.205439e-06 -1.869547e-05 -9.094349e-07
1.878222e-05 -3.728112e-06 9.348175e-07
-1.082600e-05 -1.608990e-05 -4.679505e-22
1.878222e-05 3.728112e-06 9.348175e-07
1.555665e-05 -1.121485e-05 8.811238e-07
8.700076e-07 1.917649e-05 8.444498e-07
1.481629e-05 -1.229745e-05 -7.131918e-07
1.071665e-05 1.588114e-05 -9.166014e-07
-2.807656e-06 1.539838e-05 -5.483767e-07
7.781131e-06 -1.544780e-05 1.901518e-06
9.475812e-06 -1.239022e-05 3.170599e-07
6.061429e-06 1.562176e-05 -1.767275e-06
4.197637e-06 1.611840e-05 -1.722583e-06
-9.983359e-06 -1.662587e-05 -4.679505e-22
-1.422907e-05 1.289372e-05 -8.327250e-07
3.173956e-06 1.544026e-05 -8.331972e-07
1.118509e-05 -1.562586e-05 -8.019798e-07
8.005785e-06 1.346422e-05 -5.878472e-07
-1.197522e-05 -1.096623e-05 1.449476e-06
1.536927e-05 9.858526e-06 1.745433e-06
-4.477846e-09 -1.797491e-05 -1.845985e-06
4.888193e-06 1.859225e-05 -7.853082e-07
-1.089407e-05 -1.402970e-05 1.889882e-06
-1.577295e-05 5.776514e-06 -1.783545e-06
-9.114242e-06 -1.711776e-05 -4.679505e-22
-6.028257e-06 -1.819468e-05 9.007176e-07
-3.998178e-06 -1.884412e-05 -6.910752e-07
1.905369e-05 -2.259358e-06 8.625436e-07
1.905369e-05 2.259358e-06 8.625436e-07
9.346164e-06 -1.676933e-05 -8.409147e-07
9.861199e-06 -1.332659e-05 1.683109e-06
-1.380662e-05 1.141316e-05 1.861350e-06
1.423140e-06 -1.684126e-05 -1.820027e-06
2.497491e-06 1.578109e-05 1.177039e-06
-2.710819e-06 1.779141e-05 -1.840020e-06
-8.220957e-06 -1.756425e-05 -4.679505e-22
1.543505e-05 -9.838024e-06 1.724994e-06
-5.759573e-06 -1.833883e-05 -7.899517e-07
1.371997e-05 -1.214859e-05 -1.714448e-06
1.589214e-05 -7.386088e-06 1.910085e-06
-1.445050e-05 -7.771885e-06 -1.579756e-06
-1.113609e-06 1.555983e-05 3.245583e-07
-1.495089e-05 4.889822e-06 7.615795e-07
7.033482e-06 1.440571e-05 -1.242468e-06
3.912237e-06 -1.735452e-05 1.885627e-06
-5.472100e-06 -1.697645e-05 1.877437e-06
-7.305871e-06 -1.796417e-05 -4.679505e-22
1.725194e-06 -1.571358e-05 9.200837e-07
-6.771822e-06 1.440341e-05 -1.093730e-06
-1.298075e-05 9.172399e-06 -1.062317e-06
4.473272e-06 -1.758840e-05 -1.790743e-06
-1.903231e-05 2.585318e-06 8.219961e-07
3.535941e-06 1.677899e-05 -1.880973e-06
-9.458130e-08 -1.633347e-05 -1.526687e-06
-1.490832e-05 1.206714e-05 8.765116e-07
6.426707e-06 -1.696567e-05 -1.793041e-06
5.231030e-06 -1.845255e-05 8.771931e-07
-6.371411e-06 -1.831645e-05 -4.679505e-22
1.351754e-05 1.363775e-05 -8.328543e-07
-1.464270e-05 8.683494e-06 -1.854707e-06
-1.152292e-05 1.062700e-05 6.197280e-07
-1.626559e-05 3.224961e-07 1.475577e-06
1.330193e-05 -8.869268e-06 1.189926e-06
1.132549e-06 1.920005e-05 -7.643091e-07
-1.901913e-06 1.840506e-05 -1.615076e-06
9.047650e-06 1.570244e-05 -1.800124e-06
8.914921e-06 -1.281643e-05 3.899028e-07
-1.018340e-05 -1.232985e-05 1.194690e-06
-5.420055e-06 -1.862015e-05 -4.679505e-22
-1.538516e-05 -5.286102e-06 1.474885e-06
1.202019e-06 1.617249e-05 1.431497e-06
5.886555e-06 -1.830552e-05 -7.750117e-07
-8.180655e-06 -1.448372e-05 -1.712012e-06
6.743643e-06 -1.800568e-05 7.786519e-07
9.963907e-06 1.367125e-05 1.824949e-06
-2.130264e-06 1.668060e-05 -1.790590e-06
-1.654851e-05 -3.558427e-06 -1.827970e-06
-1.205223e-05 9.982761e-06 5.396384e-07
-1.647554e-05 1.296012e-06 -1.654182e-06
-4.454326e-06 -1.887448e-05 -4.679505e-22
1.670121e-05 7.047776e-06 -1.798399e-06
-1.276549e-05 -1.435907e-05 8.094314e-07
8.602386e-06 1.721053e-05 -7.474813e-07
-1.565129e-05 -1.644007e-06 -7.779095e-07
1.700203e-05 -8.965299e-06 7.922304e-07
9.968973e-06 1.638993e-05 -8.695950e-07
-1.651610e-05 1.912603e-06 1.708092e-06
-1.527877e-05 1.008744e-05 -1.722779e-06
-1.411129e-05 7.959311e-06 -1.417296e-06
-1.595310e-05 -3.068331e-06 -1.456102e-06
-3.476785e-06 -1.907876e-05 -4.679505e-22
-1.731336e-05 8.314846e-06 -8.232660e-07
1.058784e-05 1.600123e-05 8.628604e-07
1.451547e-05 -1.083007e-05 -1.804371e-06
-1.402216e-05 -1.313651e-05 8.067222e-07
1.801485e-06 -1.911879e-05 -8.295542e-07
1.649858e-05 -9.906922e-06 7.384550e-07
-1.583922e-05 -9.291221e-06 1.695407e-06
-1.724325e-05 -8.416961e-06 8.611429e-07
1.188232e-05 1.511678e-05 7.771713e-07
1.190878e-05 1.036884e-05 -8.870154e-07
-2.490025e-06 -1.923244e-05 -4.679505e-22
-1.560595e-05 1.174792e-06 -5.411826e-07
1.181020e-05 -1.519625e-05 7.349214e-07
-1.363368e-05 -1.349956e-05 -8.642234e-07
-1.883233e-05 -3.654004e-06 -8.696905e-07
7.671766e-06 -1.366704e-05 -6.134899e-07
-1.812641e-05 6.405943e-06 7.831982e-07
-9.583885e-06 1.664276e-05 -8.263690e-07
8.764205e-06 1.380829e-05 1.542317e-06
1.866847e-05 -4.608389e-06 -7.746837e-07
7.448527e-06 1.659497e-05 -1.774720e-06
-1.496661e-06 -1.933513e-05 -4.679505e-22
-1.560815e-05 -5.842666e-07 -4.221666e-07
-1.591081e-05 4.281147e-06 -1.624434e-06
1.307524e-06 -1.565839e-05 -7.204214e-07
-1.334922e-05 9.689281e-06 -1.635592e-06
1.867650e-05 4.592649e-06 -7.655253e-07
1.093155e-05 -1.451876e-05 -1.781000e-06
1.415157e-05 8.955494e-06 1.763414e-06
-1.039290e-05 1.450811e-05 -1.875540e-06
-3.445097e-06 1.545821e-05 -9.717659e-07
9.854227e-06 -1.645566e-05 8.754660e-07
-4.993284e-07 -1.938654e-05 -4.679505e-22
1.277028e-05 1.436884e-05 7.866232e-07
-7.856394e-06 -1.699697e-05 -1.451402e-06
9.895123e-07 1.804810e-05 1.816264e-06
-2.926554e-06 -1.789381e-05 -1.796894e-06
1.484295e-05 6.578741e-06 1.447595e-06
2.431602e-06 1.590799e-05 -1.311137e-06
8.018795e-07 1.559261e-05 3.953840e-07
5.304050e-06 -1.627508e-05 1.875394e-06
1.909759e-05 1.871415e-06 -8.588076e-07
1.909759e-05 -1.871415e-06 -8.588076e-07
4.993284e-07 -1.938654e-05 -4.679505e-22
-1.895777e-05 3.327542e-06 7.309968e-07
-2.956326e-06 1.533400e-05 4.100495e-07
-1.399709e-05 7.854038e-06 1.264345e-06
9.001252e-06 1.524256e-05 1.897900e-06
-5.283869e-06 1.537247e-05 -1.464308e-06
-1.790566e-06 1.912898e-05 8.103570e-07
1.676138e-05 -6.941093e-06 -1.793183e-06
-1.787831e-05 -7.016521e-06 8.245623e-07
-1.441667e-05 -8.918590e-06 1.835545e-06
-1.252623e-05 1.077985e-05 -1.653980e-06
1.496661e-06 -1.933513e-05 -4.679505e-22
-1.724397e-05 -6.106021e-06 -1.730022e-06
-1.573632e-05 5.424261e-07 7.961975e-07
1.594381e-06 1.575423e-05 -9.670886e-07
-1.742789e-05 -1.153371e-06 1.910482e-06
1.548597e-05 -9.350627e-06 -1.811354e-06
-1.124645e-05 1.556604e-05 8.289703e-07
1.402762e-05 1.314857e-05 7.799342e-07
6.080660e-06 -1.447370e-05 -6.856197e-07
3.852063e-06 1.515271e-05 4.858634e-07
-6.555382e-06 1.805956e-05 8.105199e-07
2.490025e-06 -1.923244e-05 -4.679505e-22
-9.081378e-06 -1.448158e-05 1.870549e-06
8.718954e-07 -1.675291e-05 1.774994e-06
3.267908e-06 -1.522618e-05 -6.366127e-08
1.825217e-05 -1.788570e-06 -1.707468e-06
1.825217e-05 1.788570e-06 -1.707468e-06
-1.661258e-05 2.720478e-06 1.797107e-06
7.574479e-06 1.387107e-05 9.135242e-07
-1.182016e-05 -1.266779e-05 1.904136e-06
1.349040e-05 -1.373434e-05 -7.213146e-07
1.617607e-05 7.568798e-07 1.410537e-06
3.476785e-06 -1.907876e-05 -4.679505e-22
1.617607e-05 -7.568798e-07 1.410537e-06
-1.139437e-05 -1.099864e-05 -9.705240e-07
-6.939171e-06 -1.498316e-05 -1.645775e-06
5.673587e-06 1.731244e-05 -1.763104e-06
-9.112019e-06 -1.343331e-05 -1.444666e-06
-4.711806e-06 -1.564546e-05 -1.531053e-06
5.972193e-06 1.827557e-05 -7.796660e-07
-1.554748e-05 -7.049290e-06 1.865715e-06
-1.134486e-05 1.454058e-05 1.651665e-06
4.590243e-06 1.780277e-05 -1.683900e-06
4.454326e-06 -1.887448e-05 -4.679505e-22
1.369556e-05 -7.623959e-06 6.180977e-07
-1.372814e-05 8.804756e-06 1.507799e-06
1.206381e-05 -1.156080e-05 -1.746969e-06
1.573900e-05 7.211730e-06 1.902989e-06
-6.185468e-06 -1.677715e-05 -1.868496e-06
1.586805e-05 8.782479e-06 -1.795155e-06
-5.874507e-06 -1.552787e-05 -1.695580e-06
-1.814098e-05 2.307308e-06 1.732819e-06
-1.849756e-05 -2.342179e-06 -1.515917e-06
1.244459e-05 -1.373639e-05 -1.594272e-06
5.420055e-06 -1.862015e-05 -4.679505e-22
6.729264e-06 1.700828e-05 1.730960e-06
-1.635718e-05 -4.415187e-06 -1.832703e-06
-4.132959e-06 -1.601117e-05 1.659665e-06
-7.714218e-06 1.765164e-05 -6.908510e-07
-1.738781e-05 -5.028386e-06 -1.807882e-06
1.182092e-05 1.106334e-05 -1.407523e-06
-7.225879e-06 1.461657e-05 1.504737e-06
1.919002e-05 -8.437801e-07 8.189196e-07
1.919002e-05 8.437801e-07 8.189196e-07
-4.631018e-06 -1.506117e-05 -8.206150e-07
6.371411e-06 -1.831645e-05 -4.679505e-22
1.251092e-05 -1.005772e-05 -1.267047e-06
-6.807993e-06 -1.416182e-05 -7.212804e-07
7.676749e-06 -1.765965e-05 7.102109e-07
6.375565e-06 -1.728460e-05 1.663008e-06
-1.676571e-05 -2.503863e-06 1.835347e-06
-1.850954e-05 5.210127e-06 7.747149e-07
-1.125126e-05 1.088611e-05 -5.594685e-07
1.277445e-05 -1.274186e-05 -1.826528e-06
1.327493e-05 1.133367e-05 -1.910356e-06
-1.581169e-05 1.094690e-05 -7.690704e-07
7.305871e-06 -1.796417e-05 -4.679505e-22
1.099491e-05 1.368004e-05 -1.909328e-06
-1.637261e-05 -9.903634e-08 -1.555383e-06
3.928374e-06 1.549045e-05 -1.181271e-06
1.253582e-05 1.361873e-05 -1.610735e-06
-1.481440e-05 -6.146749e-06 -1.251683e-06
-8.102750e-06 1.643630e-05 -1.714705e-06
-6.256694e-06 1.566760e-05 -1.809972e-06
3.651267e-06 -1.611158e-05 -1.650524e-06
1.073451e-05 1.306020e-05 1.821393e-06
1.454925e-05 -8.322383e-06 1.769259e-06
8.220957e-06 -1.756425e-05 -4.679505e-22
[...]
POINT_DATA 2099
VECTORS 10.000GHz_fone_imag double
-2.587609e+10 2.176645e+10 -9.357546e+08
-2.261453e+10 6.403601e+10 2.873751e+09
1.792528e+10 3.494376e+10 6.187132e+08
-3.103038e+10 9.545170e+08 -2.483421e+09
-2.318178e+09 3.873175e+10 7.480584e+08
4.547243e+10 -6.452820e+08 1.687001e+09
-5.405360e+10 3.006913e+10 2.313970e+09
-2.705241e+10 3.896168e+10 -4.698607e+08
-9.945995e+09 -5.883753e+10 -1.569186e+09
8.852877e+09 -5.403805e+10 5.473914e+08
2.450129e+10 -2.982069e+10 2.434271e+09
-2.619419e+10 1.989509e+10 -1.090126e+09
5.702020e+10 -5.726377e+09 -8.586806e+08
-4.558231e+10 -8.919957e+09 2.178723e+08
-4.763660e+10 4.015559e+09 1.690375e+09
3.560777e+10 -3.497623e+10 2.635096e+09
1.201630e+10 -3.310675e+10 -5.602072e+07
-3.608881e+10 5.301481e+10 -1.740484e+08
3.480907e+10 -5.942544e+10 2.799081e+09
-8.065154e+08 2.312069e+10 3.705022e+08
-2.587119e+10 -6.832040e+09 1.188874e+09
-4.507894e+09 -2.721336e+10 6.045755e+08
-2.212288e+10 1.457467e+10 -5.375209e+08
6.689384e+09 -2.865969e+10 -1.581508e+09
-1.456246e+10 -2.034471e+10 -6.633010e+08
2.181210e+10 -2.042955e+09 -7.596127e+08
-1.703675e+10 -2.084332e+10 -3.751762e+08
2.254225e+10 -1.486792e+10 8.495571e+07
6.451989e+10 1.266556e+10 -4.258823e+09
-3.197682e+10 -1.683702e+10 -6.454894e+08
-5.207467e+10 -3.762537e+10 -3.096442e+09
4.068438e+10 -1.749511e+10 2.423802e+08
4.474988e+10 -1.477089e+10 1.222854e+08
-2.546588e+10 1.543411e+10 2.626614e+09
1.722183e+10 1.810992e+10 -1.199911e+08
5.033316e+10 -1.141135e+10 -3.435041e+09
-2.666182e+10 -1.845139e+10 -8.502587e+08
5.196271e+10 -3.045475e+10 -1.265800e+09
-4.064935e+10 4.306857e+10 2.325332e+09
1.837576e+10 -2.850812e+10 5.984358e+08
-3.736483e+10 -5.229367e+09 2.070974e+07
3.082339e+10 -8.042521e+09 -2.223559e+09
-2.542910e+10 1.919628e+10 2.679221e+09
1.375314e+10 5.135837e+10 1.115745e+08
-2.984922e+10 1.574985e+10 -1.959500e+09
-2.220616e+10 6.295890e+09 -5.581438e+08
-3.210560e+10 6.816829e+09 -2.474637e+07
-4.040431e+09 -3.627142e+10 -6.309008e+08
4.290692e+09 -3.671875e+10 5.369015e+08
-2.281224e+10 -1.416689e+10 -1.156827e+09
-4.307897e+10 -3.736556e+10 4.061807e+09
2.782512e+10 3.349035e+10 -3.910071e+08
-4.163935e+10 -5.249511e+09 -1.580853e+09
4.485986e+10 -4.741477e+09 -6.019347e+08
3.810162e+10 5.713456e+09 2.318934e+09
-3.236444e+10 1.489658e+10 -9.834542e+08
-1.787996e+10 -2.493833e+10 1.088700e+09
-3.484012e+10 1.012967e+10 3.351950e+09
-2.904630e+10 -3.283784e+10 -1.716954e+09
-1.821314e+10 -3.826294e+10 2.006147e+09
-2.378890e+10 4.353243e+10 3.786990e+09
6.859069e+10 4.310408e+09 -1.491057e+08
1.913744e+10 6.178589e+10 1.331508e+09
5.769178e+10 -2.580957e+10 2.710655e+09
-4.241615e+10 -3.845165e+09 5.242900e+08
-4.113866e+10 1.445127e+10 -1.076366e+09
-3.151366e+10 1.324940e+10 9.639630e+08
-5.705278e+10 -4.530012e+09 -2.895985e+09
5.491432e+10 2.508407e+10 -1.141065e+09
3.672190e+10 5.363770e+10 -7.647784e+08
-4.061967e+10 -5.578906e+09 -2.515854e+09
4.224329e+09 3.258029e+10 -7.685102e+08
4.828234e+10 -1.091410e+10 -3.822518e+08
-5.518317e+10 4.960426e+09 6.210093e+08
1.618378e+10 1.956701e+10 -3.236786e+08
-2.575332e+10 -9.099369e+09 5.011439e+08
-2.698441e+10 -6.866982e+09 -2.419731e+09
-3.291174e+10 1.099938e+10 2.954316e+09
2.373763e+10 -2.245706e+10 7.313063e+08
2.009102e+10 3.328916e+10 -8.836734e+08
3.436195e+10 3.769577e+10 9.266714e+08
2.303239e+09 4.596975e+10 -1.970395e+09
-2.940310e+10 -4.448240e+10 7.054218e+06
3.076028e+10 -1.296263e+09 -1.552580e+09
3.321355e+10 2.387909e+09 -2.604570e+09
3.292343e+10 -2.047268e+10 9.683532e+06
-5.072787e+10 -3.787265e+10 2.545644e+09
-5.171048e+10 4.218582e+10 2.992346e+08
-2.183290e+10 7.028188e+09 3.791133e+08
-1.275623e+10 4.820129e+10 -2.071642e+08
4.304899e+10 -4.935800e+09 -4.592159e+08
-2.942850e+10 -9.277678e+09 3.718153e+08
-4.760741e+10 2.322404e+10 -1.838809e+09
-2.992838e+10 -1.132828e+10 -8.679158e+08
3.390757e+10 -2.897359e+10 -7.360950e+08
4.359517e+10 5.952821e+09 -3.260177e+09
-1.119698e+10 5.383384e+10 -2.055823e+08
4.067721e+10 4.842466e+10 3.247676e+09
6.825423e+09 5.704609e+10 2.380234e+08
-3.054551e+10 7.196265e+09 2.309157e+08
1.348203e+10 -3.375498e+10 4.734183e+07
-2.201931e+10 1.795134e+10 -2.650322e+09
2.377989e+10 -1.183026e+10 1.009757e+09
-4.598052e+09 6.064922e+10 3.139394e+09
-1.445539e+10 -2.895399e+10 2.310966e+09
2.398097e+10 -1.317495e+10 2.043628e+09
3.549782e+09 4.563150e+10 2.324548e+09
2.260240e+10 3.357786e+10 -3.776648e+08
2.870990e+10 4.224477e+10 4.998477e+08
-9.754319e+09 4.990639e+10 1.990718e+08
-2.708489e+10 5.551441e+09 -7.815253e+08
1.455662e+10 3.230444e+10 3.405956e+08
2.951814e+10 -1.842144e+10 -3.404314e+08
-1.802642e+10 -2.190929e+10 1.547020e+09
-2.112543e+10 2.152870e+10 -7.299522e+08
-2.570057e+10 -2.758137e+09 -1.594450e+09
-1.805800e+10 -3.171411e+10 -1.773068e+09
-2.266594e+10 3.766517e+10 -5.621953e+08
-1.381553e+10 2.758209e+10 1.849776e+09
1.957924e+10 -1.606671e+10 5.032323e+08
3.437994e+10 -3.585105e+10 8.000717e+08
-3.255699e+10 3.954860e+09 2.008788e+09
4.250870e+09 4.974734e+10 -1.158668e+09
-2.025419e+10 -1.580274e+10 1.247508e+09
-1.703753e+10 1.841958e+10 8.670051e+08
-5.645320e+09 3.070044e+10 -3.310472e+09
-6.053246e+10 -3.673637e+10 -4.281111e+09
8.957418e+09 2.554419e+10 -1.349276e+09
2.028391e+10 1.039001e+10 -1.177609e+07
3.394379e+10 -2.028373e+10 -9.395147e+07
-6.952776e+09 -2.545866e+10 4.071368e+08
3.680796e+10 -1.749997e+10 -7.669080e+08
-2.600537e+10 2.372430e+09 -4.020530e+07
-1.416358e+09 5.403594e+10 4.860715e+08
1.491236e+10 4.971656e+10 -2.623920e+09
-6.532921e+10 -6.377311e+09 3.252805e+09
3.176107e+10 4.786522e+10 2.253253e+08
7.473061e+09 -3.198490e+10 6.599400e+08
-2.458186e+10 -1.827917e+10 -9.144717e+08
3.404615e+10 -4.382765e+10 3.963963e+08
2.452760e+10 1.811657e+10 -2.086113e+08
6.199248e+10 1.490913e+10 -3.236741e+09
-2.752700e+10 -1.736388e+10 -1.083624e+09
-3.514172e+10 4.385283e+08 -5.379858e+08
2.407748e+10 -2.069880e+10 -1.162649e+09
-2.630714e+10 1.305795e+10 6.277447e+08
3.606962e+10 -1.711658e+09 3.812615e+08
-4.031614e+10 7.424753e+09 1.062268e+08
1.424284e+10 -3.872240e+10 -2.916840e+08
4.430558e+10 -5.089111e+09 2.378494e+09
4.240438e+10 -4.894932e+09 5.291311e+08
-3.285649e+10 -1.066442e+10 -8.773448e+08
2.610738e+09 -3.158617e+10 -1.610659e+09
-2.139725e+09 -2.596077e+10 -1.865550e+07
-3.404572e+10 -6.823106e+08 1.563253e+09
5.985266e+09 3.279919e+10 -7.774746e+07
4.649580e+10 9.733070e+09 2.321814e+09
2.395959e+10 4.567037e+10 7.862259e+08
3.670297e+10 -2.138493e+10 -1.122891e+09
4.888067e+10 1.711304e+10 -1.923543e+09
2.875606e+10 3.697096e+09 -1.916323e+09
-1.343842e+10 -3.348631e+10 -7.951679e+06
-1.265127e+10 2.901322e+10 2.231203e+09
-2.842416e+10 3.793596e+10 1.162837e+09
3.184974e+10 3.579587e+10 -6.376028e+08
-3.250896e+10 -2.904739e+09 -2.958978e+09
-1.398383e+10 3.145133e+10 1.399601e+08
2.216275e+09 7.219599e+10 2.469945e+09
5.996149e+10 -8.380131e+09 4.613513e+09
-2.614324e+09 4.327606e+10 -7.302316e+08
-2.030288e+10 -3.630900e+10 -1.044861e+08
1.761802e+10 1.531015e+10 1.565533e+09
2.406187e+10 -2.560798e+10 2.125429e+08
-4.551418e+10 -1.837053e+10 -4.133963e+08
5.783581e+10 -1.447037e+10 -1.908821e+09
2.988722e+10 1.019616e+10 3.031032e+09
-3.218333e+10 -4.050269e+09 -2.631404e+08
-2.877782e+10 1.933908e+10 -1.007463e+08
-4.190676e+10 -6.571075e+09 1.309401e+08
-4.696452e+10 -7.904096e+09 -1.302707e+09
-4.569184e+09 -3.978864e+10 -7.609921e+08
4.279102e+09 -3.752399e+10 -5.149789e+08
9.869331e+09 4.787359e+10 6.873830e+08
4.830841e+10 -2.940681e+10 -3.848649e+09
-3.266303e+10 2.635927e+10 -1.306885e+09
-1.839879e+10 -1.685581e+10 -1.502464e+08
1.247099e+09 -5.678933e+10 -3.750956e+09
-3.063936e+10 -5.697600e+09 1.324671e+08
-2.870450e+09 -4.596908e+10 -6.121645e+08
-4.886441e+10 4.822349e+10 -1.056718e+09
-4.273437e+10 2.370925e+10 3.725615e+09
3.256828e+10 -1.102065e+10 2.593856e+08
-4.544444e+10 2.696138e+10 -3.767177e+09
-5.253257e+10 1.602824e+10 -9.234406e+08
3.100758e+10 -1.033645e+10 1.489865e+09
-1.954643e+10 3.848530e+10 -1.140206e+08
2.419705e+10 1.933254e+10 -2.332257e+09
3.506339e+10 -7.171991e+09 8.323257e+08
-2.773459e+10 -7.178934e+09 1.640818e+09
-2.653605e+10 -4.673178e+10 -2.836756e+08
3.026981e+10 4.500818e+10 -2.076231e+09
-2.622706e+10 -2.654684e+10 -2.625238e+09
1.586278e+10 -3.366907e+10 2.117497e+09
-4.155522e+10 1.112745e+10 5.591387e+08
1.853730e+10 -3.109776e+10 2.345270e+08
-3.853362e+10 1.606112e+10 -4.740073e+08
7.103050e+09 3.386751e+10 1.214247e+09
4.320649e+08 3.503282e+10 -7.727839e+08
-2.166086e+10 -2.018098e+10 7.686680e+08
-2.464502e+10 -6.377445e+09 -9.075098e+08
3.532620e+10 -1.206102e+10 -1.344343e+08
-9.329331e+09 3.708393e+10 -9.701049e+08
-4.938619e+10 1.842041e+10 -1.230843e+08
2.446332e+10 1.017261e+10 1.435556e+09
-9.859285e+09 4.092773e+10 4.923913e+08
4.555563e+10 -4.514483e+10 -1.217879e+09
5.582233e+10 2.561675e+10 -2.381861e+08
-8.027013e+08 -2.624737e+10 1.955601e+08
5.322853e+08 -3.226287e+10 -1.379349e+09
-4.323504e+10 1.429710e+10 9.743563e+08
-2.909111e+10 -1.032002e+10 -6.703097e+08
-3.340549e+10 -3.875605e+10 2.307104e+09
-6.235967e+10 3.145408e+10 8.045575e+08
-2.691907e+10 -1.367835e+10 -2.188264e+09
-3.016605e+10 -1.141195e+10 -2.071025e+08
-6.016484e+09 3.661704e+10 -1.299304e+09
7.348104e+09 2.578232e+10 2.135573e+08
3.466749e+10 3.129535e+10 6.200137e+08
-3.023982e+10 -3.052162e+10 2.355345e+09
2.291845e+10 -2.876464e+10 -1.490506e+08
1.253244e+10 1.854737e+10 -2.681924e+08
-2.628693e+10 -1.126497e+10 -2.347863e+09
2.594616e+10 -2.137853e+10 8.547147e+08
1.112987e+09 3.502810e+10 9.574836e+08
4.978383e+10 -1.788400e+10 2.659143e+09
2.345661e+10 -1.968436e+10 7.656266e+08
-1.876053e+10 4.578502e+10 -6.698220e+08
3.167924e+10 1.683464e+10 -3.221027e+09
5.017098e+10 1.875775e+10 -2.858962e+08
-3.916161e+10 -8.221422e+09 1.332501e+09
3.107209e+10 -2.296878e+10 3.137532e+08
-2.537671e+10 -4.236464e+10 2.363672e+09
-2.388857e+10 -1.080302e+10 9.926896e+08
3.032862e+10 -3.085282e+09 2.467714e+09
1.946133e+10 3.692862e+10 -5.352413e+08
-6.304599e+10 1.972052e+10 -4.301594e+09
-5.193658e+10 4.315885e+09 -8.835887e+08
-1.103203e+10 2.904413e+10 -1.973806e+09
3.580020e+10 2.592608e+10 -8.269641e+08
4.989435e+10 1.489597e+10 -3.300603e+08
-4.892410e+10 -1.758231e+10 1.811659e+09
-1.237960e+10 6.037707e+10 2.544994e+09
-2.077627e+10 -2.770067e+10 4.074290e+08
-2.231032e+10 -1.159464e+10 -5.309264e+08
-2.734521e+10 5.338467e+10 -1.392426e+09
-4.054883e+10 -4.667279e+10 5.363365e+08
2.776263e+10 -3.196633e+09 4.378470e+09
2.443379e+09 2.590236e+10 -1.578857e+09
5.161925e+10 1.691478e+10 5.085725e+08
6.534087e+09 -3.211129e+10 -1.489068e+08
-8.354955e+09 -3.715873e+10 5.632099e+08
-2.131191e+10 1.497577e+10 -1.076696e+08
7.689889e+09 2.952477e+10 -1.777544e+08
-3.997414e+10 -2.812825e+10 7.588113e+07
-2.374379e+10 -1.403940e+10 1.589153e+09
-4.935165e+10 1.291695e+10 4.724056e+09
4.137960e+10 -1.070057e+09 3.515278e+08
1.895170e+10 6.596832e+10 -2.185576e+09
-2.928597e+10 2.213655e+09 -2.035533e+09
5.811768e+10 -5.549523e+09 -9.570930e+08
2.355335e+10 -2.707184e+10 3.232548e+08
5.063013e+10 -3.604700e+10 4.287891e+09
-2.013788e+10 4.374752e+10 -1.204119e+09
3.162553e+10 -7.779180e+09 5.333732e+08
6.002017e+10 2.498095e+10 -3.183654e+08
-2.385754e+10 -1.520681e+10 8.618021e+08
-3.955958e+10 -6.693146e+09 6.840182e+08
2.256366e+10 2.250613e+09 -2.151226e+08
2.260234e+10 2.377109e+10 1.683686e+09
-3.056585e+10 3.637525e+09 -3.314982e+09
9.362646e+09 2.779544e+10 1.577119e+09
2.604201e+10 -1.893314e+10 6.131333e+08
4.076838e+10 3.391702e+10 4.519452e+08
3.129043e+10 6.456019e+08 -1.794389e+09
-1.940435e+10 -2.343948e+10 -2.501595e+09
-2.860028e+10 -6.993720e+09 5.310277e+08
-2.571779e+10 -1.839256e+10 -1.044959e+09
1.050244e+10 2.763614e+10 -1.121575e+09
-2.180439e+10 -1.978442e+10 -1.176160e+09
1.621492e+10 -2.867227e+10 -3.200377e+09
3.969285e+09 -3.210462e+10 7.431204e+08
-5.065043e+09 -3.010126e+10 7.858772e+07
-4.132053e+09 2.306756e+10 6.805790e+08
4.374661e+09 3.730650e+10 -1.132389e+08
-4.238936e+10 2.219698e+10 6.587437e+08
-1.405808e+10 3.583313e+10 6.744311e+08
-4.539688e+10 1.393894e+10 9.674213e+08
-2.173611e+10 -1.930281e+10 -6.255965e+08
3.610102e+10 4.228698e+10 -1.222291e+09
-1.127817e+10 3.371419e+10 -2.392746e+08
1.633268e+10 4.060769e+10 -2.708195e+09
-5.495753e+10 -9.549251e+09 1.617196e+09
-2.457443e+10 2.190713e+10 2.439099e+09
-3.353356e+10 1.022691e+10 7.901643e+07
-3.023254e+10 2.774068e+10 -1.127229e+09
1.406789e+10 2.540265e+10 -6.822824e+08
4.007637e+10 2.096788e+09 -5.196069e+08
-2.161855e+10 2.032839e+10 -4.652803e+07
-2.061836e+10 -1.798853e+10 -2.009216e+09
4.780899e+10 2.298843e+10 3.860570e+09
-5.761626e+10 -2.198685e+10 3.953973e+08
-2.259445e+10 1.223460e+10 2.052926e+09
-5.230805e+09 -3.181146e+10 -1.741511e+09
6.146702e+10 -6.293997e+09 5.664324e+09
5.094386e+10 -1.903461e+10 -1.675332e+09
-2.081366e+10 2.040943e+10 -1.295992e+09
2.578021e+10 2.023781e+10 1.394996e+09
-4.034093e+10 2.859495e+10 -5.390567e+08
-2.969134e+10 -4.819818e+09 8.757930e+08
-2.340454e+10 -2.257042e+10 1.030699e+09
5.169468e+10 4.200371e+10 -2.543958e+09
3.858268e+10 -8.902400e+09 6.560505e+07
3.058351e+10 1.636701e+08 2.088109e+09
-7.110153e+09 2.936314e+10 -1.174058e+09
6.745645e+10 1.996915e+10 -1.184173e+09
-5.861629e+10 -9.706694e+09 -7.526234e+08
1.255947e+10 2.005410e+10 -9.001692e+08
-3.308359e+10 2.076809e+10 -4.338572e+08
-1.434739e+10 -3.384485e+10 2.115741e+09
4.991923e+10 4.969177e+09 4.273846e+09
-2.040369e+10 -2.402045e+10 -3.223247e+08
1.515909e+10 2.690749e+10 -2.232178e+09
3.333261e+10 4.142714e+09 2.348340e+09
7.433384e+09 4.050091e+10 -8.189003e+08
2.480486e+10 2.636028e+10 4.773979e+08
1.913467e+10 -2.429282e+10 -4.179359e+08
1.199321e+10 -2.400918e+10 9.232290e+08
1.406077e+10 2.646365e+10 -2.201308e+09
-4.965665e+10 3.129227e+09 1.054459e+09
2.674250e+10 -1.108931e+10 1.485568e+09
4.993867e+09 -3.274532e+10 -9.378720e+08
-1.913310e+10 -2.336246e+10 2.911595e+09
4.701208e+09 -4.041934e+10 -1.948027e+08
-1.403150e+09 -4.181147e+10 -1.662714e+09
2.331809e+10 2.789443e+10 -9.638254e+08
-5.614733e+09 4.587236e+10 -1.917586e+09
-3.496187e+10 -3.124548e+10 -1.315325e+09
-6.028012e+10 6.480358e+09 -4.617057e+08
2.762163e+10 -1.439511e+10 -1.309381e+09
1.650540e+10 -5.414500e+10 3.268543e+09
-3.121553e+10 2.056717e+08 -7.764058e+08
3.484309e+10 -4.549631e+10 5.375360e+09
-2.000889e+10 -2.664860e+10 9.340633e+08
-2.710019e+10 -1.720094e+10 1.593080e+09
-2.231663e+10 -2.920534e+10 -2.852919e+09
-2.788049e+10 -1.089709e+10 4.240118e+08
-1.385931e+10 3.466618e+10 7.346366e+08
3.612888e+10 -5.174952e+10 -5.072571e+09
2.582275e+10 -2.307951e+10 1.249859e+08
-6.979016e+09 -2.604590e+10 -1.629904e+09
-1.404136e+10 -2.354596e+10 -3.520867e+09
1.694266e+09 -2.876034e+10 2.474856e+09
-2.134614e+09 -2.272934e+10 -2.338990e+09
-1.596840e+10 -2.629270e+10 -2.705275e+09
-1.299004e+10 -2.762169e+10 -5.683693e+08
5.062527e+10 -2.206796e+10 5.688311e+08
-4.073340e+10 -3.577427e+10 -2.587493e+09
-8.383172e+08 4.329494e+10 8.487495e+08
5.402345e+10 2.550218e+10 -3.540267e+07
-2.998193e+10 3.603696e+10 -1.378045e+08
7.392818e+08 -3.752068e+10 7.515453e+08
8.223366e+08 -3.262310e+10 -1.918323e+09
1.563634e+10 -2.134616e+10 6.829739e+08
2.404317e+10 -8.749108e+09 1.629638e+09
-1.129083e+10 -2.113007e+10 -7.158356e+08
2.057894e+10 -3.427297e+10 1.361901e+08
-1.991337e+10 3.132201e+10 -4.335804e+09
-2.700378e+10 -3.673814e+10 1.050147e+09
4.470769e+10 1.006079e+10 -6.526938e+08
5.597737e+10 -1.481020e+10 -3.662421e+09
-4.002239e+10 -2.369746e+09 1.831829e+08
-1.639981e+10 3.173341e+10 -1.239495e+09
-9.372244e+09 -3.732883e+10 -3.469435e+08
5.660244e+09 -2.518933e+10 -9.152440e+08
3.761222e+10 1.560833e+10 -3.588664e+08
-1.376703e+10 -2.582325e+10 1.156398e+09
4.802711e+09 2.170881e+10 -2.172106e+08
5.175800e+10 4.488819e+10 -6.591330e+08
2.290691e+10 -3.675541e+10 8.886800e+08
1.440299e+10 -3.858542e+10 -1.762324e+09
-1.353701e+10 -4.163127e+10 1.603626e+09
-3.586348e+10 -5.408231e+10 -1.337919e+09
1.903663e+10 -3.730888e+10 -1.909996e+09
-1.537306e+10 -3.887410e+10 -5.711409e+08
4.517371e+10 -1.441913e+10 6.279079e+08
-6.277409e+10 -2.533079e+09 -9.242358e+08
-1.236434e+10 -2.996048e+10 -1.766076e+09
-7.841435e+09 3.002816e+10 -1.581322e+09
-4.014586e+10 -2.560715e+10 -2.249573e+09
4.639775e+10 4.026282e+10 -2.203420e+09
-5.389951e+10 -2.388150e+10 -1.499716e+09
1.564220e+10 -4.302944e+10 7.528967e+08
-3.656973e+08 4.483167e+10 -4.110046e+08
4.462092e+10 1.346796e+10 -1.162016e+09
4.463650e+10 -2.102167e+10 -9.309009e+08
4.716042e+10 -5.542610e+10 3.720385e+09
-2.171086e+10 1.805297e+10 1.839955e+08
-1.288168e+10 -3.081629e+10 -2.960244e+09
3.172500e+10 -1.750754e+10 -3.517298e+08
2.970270e+10 1.550203e+10 -1.244401e+09
4.103737e+10 1.682506e+10 -8.205631e+08
-2.626263e+10 3.633924e+10 2.060228e+09
-2.768925e+10 -9.076268e+09 -9.016260e+07
-3.022540e+10 -4.800447e+10 -1.754970e+09
-5.727386e+10 2.209087e+09 -8.536612e+08
3.125494e+10 2.081535e+10 1.552915e+08
-2.089666e+10 -6.546564e+10 -2.504341e+09
1.940161e+10 4.767487e+10 2.677802e+06
-9.226851e+09 -2.852979e+10 7.738574e+07
2.977173e+10 -1.858889e+10 4.022816e+08
3.722226e+10 -2.707800e+09 -1.876328e+09
9.726972e+09 -3.293302e+10 -4.192932e+08
-3.899660e+10 6.601770e+09 -1.285554e+09
-6.570858e+10 -1.485145e+10 5.042434e+08
3.883928e+10 9.468507e+09 1.564812e+09
2.912695e+10 -1.030211e+10 -1.034792e+09
2.368116e+10 2.219901e+10 4.851151e+08
7.087360e+09 -3.159639e+10 2.143755e+09
-1.750500e+10 5.566767e+10 2.483835e+09
-1.001331e+10 -3.700237e+10 -6.953349e+08
-3.926900e+09 -3.164913e+10 2.834677e+08
-1.423150e+10 2.084176e+10 5.950926e+08
6.027116e+10 3.369623e+09 -6.056230e+09
1.670100e+10 -3.476556e+10 -4.034879e+08
3.140809e+10 -4.272974e+09 1.413246e+09
-2.932000e+10 -2.814169e+09 2.872746e+08
1.414478e+10 2.715023e+10 -5.919394e+08
8.875051e+09 -4.171993e+10 -4.246924e+08
-7.545036e+09 -5.179633e+10 -1.673465e+08
-2.427393e+10 2.863214e+10 3.344413e+07
-5.821436e+09 -3.211467e+10 1.688077e+09
1.521027e+10 -2.432127e+10 3.309818e+09
-4.938604e+10 2.565904e+10 -1.668472e+09
-1.281369e+10 2.965711e+10 1.100849e+09
-3.149017e+10 3.165501e+10 -1.109768e+09
5.767022e+10 4.014494e+10 4.507518e+09
2.868625e+10 -1.668101e+10 1.197760e+09
2.244000e+09 3.081749e+10 9.922423e+08
4.257695e+10 7.159826e+09 -3.659292e+08
-4.176127e+10 6.800905e+09 1.580036e+09
-5.269082e+10 -1.247141e+10 -4.451235e+08
-3.475489e+09 -2.703917e+10 -2.289380e+09
-1.015905e+10 4.237176e+10 -2.823125e+09
1.184042e+09 4.963939e+10 -5.366655e+08
4.529618e+10 4.627632e+09 -1.983495e+09
9.703228e+08 -3.654278e+10 -1.055336e+09
-8.411485e+08 -3.178536e+10 1.239349e+09
-2.509754e+10 2.340051e+10 -1.789558e+08
1.109609e+10 2.902637e+10 -3.973946e+07
2.716676e+10 -1.255922e+10 7.048871e+08
-3.292309e+10 1.340057e+09 -5.937182e+08
-3.576217e+10 -2.215421e+10 -1.014152e+09
-3.765542e+09 -2.791102e+10 -2.370482e+09
-1.790850e+10 2.613763e+10 5.271953e+08
-1.824086e+10 -3.182770e+10 2.036836e+09
1.074089e+10 -6.573108e+10 -3.110901e+09
-1.152910e+10 -7.203058e+10 3.372608e+09
4.398398e+10 -3.789181e+09 2.217300e+09
-5.405818e+10 -2.239772e+10 3.027164e+09
-6.232533e+10 -2.881925e+10 -3.475076e+08
2.150892e+10 -3.748583e+10 -8.872030e+07
3.039163e+10 -2.617727e+09 4.833119e+08
-4.896357e+10 -3.100383e+10 4.331564e+07
-9.684727e+08 -2.449057e+10 -4.135280e+08
2.135533e+10 3.098219e+10 2.800329e+09
-9.844233e+09 -4.883179e+10 -7.701749e+08
7.226650e+09 -3.092931e+10 1.540323e+09
-2.119922e+10 -4.958137e+09 -1.292004e+09
2.813703e+10 1.895264e+10 -1.301435e+09
3.131710e+10 1.433860e+10 1.056172e+08
-2.651587e+10 2.772523e+10 4.260954e+09
8.370131e+09 6.895638e+10 3.552254e+09
4.938584e+10 -3.032017e+10 6.872440e+09
6.548223e+10 -1.854473e+10 6.387256e+09
7.147579e+08 -3.041189e+10 -9.540476e+08
4.359303e+10 3.718451e+10 -5.051498e+08
4.953089e+10 3.126802e+10 4.521859e+09
-8.547288e+09 2.902443e+10 -2.066820e+09
-1.851215e+10 2.269508e+10 -5.761203e+08
-4.107478e+10 1.135937e+10 -4.860131e+08
1.812359e+10 2.262041e+10 2.135862e+07