# vtk DataFile Version 2.0
Electric current density generated by TTH
ASCII
DATASET UNSTRUCTURED_GRID
POINTS 4023 double
-8.261509e-07 3.228591e-05 -2.584682e-22
-2.280640e-05 -1.980924e-05 2.158506e-07
-3.184427e-05 -2.073981e-06 8.148633e-07
-2.666100e-05 -1.750110e-05 8.307341e-07
-2.881057e-05 -1.368990e-05 8.262228e-07
7.493071e-06 -3.100521e-05 8.261334e-07
9.758485e-06 -3.040838e-05 7.944155e-07
1.516980e-05 -2.659727e-05 -8.525028e-07
2.447483e-05 2.042268e-05 -8.427168e-07
2.447483e-05 -2.042268e-05 -8.427168e-07
1.214899e-05 -2.765787e-05 -2.172457e-07
-1.486708e-06 3.226225e-05 -2.584682e-22
1.903751e-05 -2.443646e-05 1.021636e-06
-2.513021e-05 -1.678942e-05 2.761648e-07
2.472690e-05 -1.822301e-05 9.155329e-07
2.472690e-05 1.822301e-05 9.155329e-07
1.574142e-06 3.186567e-05 8.207367e-07
-2.751795e-05 1.601161e-05 -8.708410e-07
-1.438339e-05 2.659142e-05 -3.090213e-07
3.019259e-05 1.018286e-05 -8.522603e-07
3.019259e-05 -1.018286e-05 -8.522603e-07
2.305303e-05 -2.088051e-05 1.046274e-06
-2.146643e-06 3.222506e-05 -2.584682e-22
2.305307e-05 2.088043e-05 1.046271e-06
-3.125983e-05 -6.191531e-06 -8.496298e-07
1.633653e-05 -2.747961e-05 -7.642365e-07
3.176972e-05 -2.006943e-06 -8.736876e-07
3.176972e-05 2.006943e-06 -8.736876e-07
1.633600e-05 2.742374e-05 -8.074616e-07
-2.531902e-05 -1.944513e-05 8.042944e-07
-2.740657e-05 1.629497e-05 8.362305e-07
3.175266e-05 -3.037087e-06 8.263117e-07
3.175266e-05 3.037087e-06 8.263117e-07
-2.805678e-06 3.217438e-05 -2.584682e-22
-3.077536e-05 -8.061872e-06 -8.864330e-07
-2.938692e-05 -1.229185e-05 -8.590818e-07
-2.539898e-05 -1.916505e-05 -8.834688e-07
-2.290318e-05 -2.208079e-05 -8.864330e-07
-6.002993e-06 3.040881e-05 -1.026315e-06
-2.431197e-05 1.936855e-05 -1.043495e-06
2.417657e-05 1.863642e-05 -7.757320e-07
2.417657e-05 -1.863642e-05 -7.757320e-07
1.724855e-05 -2.511423e-05 7.170679e-07
1.440070e-06 -3.015298e-05 -5.474378e-08
-3.463539e-06 3.211023e-05 -2.584682e-22
-2.572523e-05 1.893221e-05 7.900256e-07
1.475040e-05 -2.828134e-05 -8.268956e-07
-3.020387e-05 1.058176e-07 1.947656e-07
-5.041437e-06 3.151720e-05 8.097839e-07
-1.990738e-05 -2.495607e-05 8.050459e-07
1.973309e-05 -2.368283e-05 -9.703605e-07
2.703942e-05 1.453317e-05 -9.044952e-07
2.703942e-05 -1.453317e-05 -9.044952e-07
1.479227e-05 2.684820e-05 8.764767e-07
-2.180596e-05 2.330688e-05 8.102956e-07
-4.119948e-06 3.203262e-05 -2.584682e-22
-2.865364e-05 9.501290e-06 6.343302e-08
-3.135352e-05 5.479495e-06 -8.765951e-07
-2.987027e-05 5.667253e-06 -6.412829e-07
-1.072845e-05 3.005975e-05 8.105900e-07
2.745839e-05 1.353330e-05 8.474099e-07
2.745839e-05 -1.353330e-05 8.474099e-07
1.273647e-05 2.916634e-05 -8.784364e-07
3.163009e-05 -4.155635e-06 8.228491e-07
3.163009e-05 4.155635e-06 8.228491e-07
-3.180473e-05 2.408982e-06 -8.276956e-07
-4.774632e-06 3.194160e-05 -2.584682e-22
1.714111e-05 2.541587e-05 -8.780781e-07
8.826777e-06 3.059149e-05 -8.693089e-07
8.935905e-06 -3.061873e-05 -8.275301e-07
-1.319190e-05 2.908367e-05 -7.945740e-07
-1.225754e-05 2.934499e-05 -8.938480e-07
2.630449e-05 -1.817555e-05 7.602600e-07
2.630449e-05 1.817555e-05 7.602600e-07
1.331456e-05 2.752710e-05 -8.208968e-07
-2.016312e-05 -2.298825e-05 8.207972e-07
1.066575e-05 3.001323e-05 8.605185e-07
-5.427316e-06 3.183720e-05 -2.584682e-22
1.902346e-05 2.451097e-05 1.033323e-06
1.478239e-05 2.827875e-05 -8.168191e-07
6.071382e-06 2.993022e-05 7.884470e-07
-3.014809e-05 1.531210e-06 -4.637496e-08
1.865691e-05 -2.380507e-05 3.481855e-07
7.278970e-06 3.100087e-05 8.662032e-07
1.963291e-05 -2.298782e-05 3.038740e-07
1.307446e-05 -2.903475e-05 -8.670649e-07
1.859567e-05 2.453169e-05 -9.506859e-07
-1.047906e-05 2.870165e-05 8.015251e-07
-6.077727e-06 3.171946e-05 -2.584682e-22
-2.070647e-05 2.238090e-05 7.415206e-07
-7.834018e-06 3.086467e-05 -8.666091e-07
-2.384714e-05 2.110246e-05 -8.666073e-07
2.336142e-05 -2.175773e-05 -8.044413e-07
2.336142e-05 2.175773e-05 -8.044413e-07
1.583824e-05 2.651402e-05 9.931072e-07
-5.053118e-06 3.014171e-05 8.079300e-07
1.106685e-05 2.997627e-05 -7.782494e-07
-7.766337e-06 3.093457e-05 8.286865e-07
-2.394701e-05 2.106485e-05 8.296303e-07
-6.725592e-06 3.158843e-05 -2.584682e-22
1.866142e-05 2.378511e-05 3.087424e-07
8.778863e-06 2.890431e-05 -2.150187e-07
-1.966782e-05 2.512410e-05 8.188980e-07
-3.003274e-05 -3.604110e-06 -3.571987e-07
1.495209e-05 2.814631e-05 8.465123e-07
-1.329594e-05 2.901026e-05 8.146241e-07
-3.019986e-05 -1.594787e-06 3.392210e-07
2.135303e-05 2.375439e-05 -7.899335e-07
3.308283e-06 3.172523e-05 -8.265667e-07
-3.179600e-05 2.237813e-06 8.440121e-07
-7.370640e-06 3.144418e-05 -2.584682e-22
-2.267513e-05 2.247260e-05 -8.041105e-07
-9.588817e-06 3.045052e-05 -8.041057e-07
-1.463479e-05 2.834918e-05 8.213172e-07
1.981680e-05 2.283443e-05 3.160134e-07
-3.045106e-05 -2.831425e-06 8.243785e-07
-2.446882e-05 1.824865e-05 7.744309e-07
3.372142e-06 -3.177181e-05 -7.815640e-07
-4.464594e-06 -3.164334e-05 -7.756378e-07
-1.202423e-05 -2.960830e-05 -7.756378e-07
-1.885387e-05 -2.580075e-05 -7.768857e-07
-8.012600e-06 3.128675e-05 -2.584682e-22
-1.544389e-05 -2.796815e-05 -7.828199e-07
-8.180413e-06 -3.088384e-05 -7.828199e-07
-4.259853e-07 -3.194604e-05 -7.828203e-07
-1.874891e-05 -2.584502e-05 7.999990e-07
-1.548098e-05 -2.794499e-05 7.849062e-07
-1.194142e-05 -2.963082e-05 7.849062e-07
-8.222022e-06 -3.087040e-05 7.849062e-07
-4.378793e-06 -3.164505e-05 7.849061e-07
-4.696164e-07 -3.194311e-05 7.849061e-07
2.914678e-05 1.304612e-05 7.966218e-07
-8.651205e-06 3.111622e-05 -2.584682e-22
2.914678e-05 -1.304612e-05 7.966218e-07
1.150106e-05 2.833283e-05 -8.209563e-07
4.220115e-06 3.026709e-05 8.058521e-07
-1.622515e-05 2.620213e-05 9.671091e-07
4.078037e-06 3.170676e-05 7.651605e-07
-2.291427e-05 -2.223092e-05 8.028069e-07
-3.038794e-05 9.815271e-06 7.962075e-07
3.002234e-05 5.460582e-06 7.655624e-07
3.002234e-05 -5.460582e-06 7.655624e-07
1.876795e-06 3.064360e-05 -9.065341e-07
-9.286186e-06 3.093266e-05 -2.584682e-22
2.994086e-05 -4.355411e-06 -3.780830e-07
2.994086e-05 4.355411e-06 -3.780830e-07
-1.327203e-05 2.711493e-05 7.836622e-08
3.139368e-05 -5.685008e-06 8.209493e-07
3.139368e-05 5.685008e-06 8.209493e-07
-2.054841e-05 2.438611e-05 -8.329148e-07
-2.408977e-05 -1.888177e-05 -8.440478e-07
1.433315e-05 -2.851140e-05 8.151140e-07
1.235695e-05 2.767376e-05 4.913185e-07
1.318695e-05 2.769725e-05 8.913189e-07
-9.917277e-06 3.073614e-05 -2.584682e-22
-1.366571e-06 3.059249e-05 8.552363e-07
-2.761413e-05 1.430725e-05 -1.045846e-06
-2.975128e-05 -1.160834e-05 -7.944947e-07
-2.595211e-05 -1.855296e-05 -8.229410e-07
-2.932004e-05 1.257178e-05 8.230635e-07
9.149890e-06 3.063400e-05 7.619794e-07
-2.171910e-05 -2.340152e-05 -8.018323e-07
-2.868921e-05 -1.400997e-05 -8.018323e-07
-2.689547e-05 -1.724821e-05 -7.808875e-07
2.312352e-05 -2.194560e-05 8.402988e-07
-1.054421e-05 3.052675e-05 -2.584682e-22
2.312365e-05 2.194553e-05 8.402721e-07
-1.496218e-05 2.683594e-05 9.204843e-07
2.173253e-05 2.096940e-05 -1.695881e-07
2.187276e-05 2.139885e-05 -8.377366e-07
2.173256e-05 -2.096937e-05 -1.695884e-07
2.187420e-05 -2.139676e-05 -8.373996e-07
2.079391e-05 -2.234697e-05 -7.749903e-07
1.976045e-05 2.354034e-05 -9.257870e-07
2.057248e-05 2.326585e-05 -1.039044e-06
7.014478e-06 3.114958e-05 -7.998273e-07
-1.116674e-05 3.030457e-05 -2.584682e-22
-6.642940e-06 3.120177e-05 8.235121e-07
-2.469205e-05 2.019868e-05 8.234507e-07
3.008152e-05 -6.656754e-06 9.628229e-07
3.008152e-05 6.656754e-06 9.628229e-07
2.315310e-06 3.182725e-05 -8.151772e-07
1.577781e-05 -2.592853e-05 -5.678465e-07
2.246738e-05 2.275440e-05 7.561903e-07
2.243465e-05 -2.278142e-05 7.598098e-07
-2.405901e-05 -2.094542e-05 8.251697e-07
1.103505e-05 -3.000427e-05 -7.639766e-07
-1.178458e-05 3.006969e-05 -2.584682e-22
7.149396e-06 -3.112172e-05 -7.974495e-07
-3.190033e-05 -2.794252e-19 8.241107e-07
1.624875e-05 -2.752071e-05 7.730636e-07
2.080121e-05 2.234405e-05 -7.776020e-07
-3.098294e-05 -7.744939e-06 7.940152e-07
-2.978825e-05 -1.148814e-05 8.022733e-07
-3.043102e-05 -9.657635e-06 8.022733e-07
-3.189951e-05 -2.072545e-07 -8.242316e-07
-2.769442e-05 1.241972e-05 5.679169e-07
-3.191545e-05 1.505881e-06 -7.809348e-07
-1.239749e-05 2.982223e-05 -2.584682e-22
-2.807258e-05 1.526630e-05 -7.771310e-07
-3.173642e-05 -3.696708e-06 -7.809017e-07
2.675559e-05 1.535653e-05 -9.798398e-07
2.675559e-05 -1.535653e-05 -9.798398e-07
2.838693e-05 1.456968e-05 -8.182669e-07
2.838693e-05 -1.456968e-05 -8.182669e-07
1.832522e-05 -2.616066e-05 -7.903397e-07
1.827427e-05 2.615054e-05 -8.219901e-07
3.008098e-05 -5.800553e-06 -8.638816e-07
3.008098e-05 5.800553e-06 -8.638816e-07
-1.300520e-05 2.956227e-05 -2.584682e-22
2.664550e-05 1.432983e-05 3.738492e-07
2.664550e-05 -1.432983e-05 3.738492e-07
1.652017e-05 -2.604066e-05 9.755406e-07
6.020284e-06 3.141967e-05 -7.423331e-07
-2.059726e-05 2.437064e-05 8.172179e-07
-2.330894e-05 1.954183e-05 6.589197e-07
-6.693167e-06 2.967148e-05 6.590355e-07
2.940025e-05 -1.267770e-05 -7.151881e-07
2.940025e-05 1.267770e-05 -7.151881e-07
1.798764e-05 -2.637406e-05 8.045551e-07
-1.360747e-05 2.928992e-05 -2.584682e-22
2.227775e-05 -2.286196e-05 -8.069195e-07
2.229608e-05 2.284223e-05 -8.080370e-07
-1.221607e-05 2.948128e-05 8.146092e-07
1.877537e-05 -2.444615e-05 -9.693695e-07
4.185387e-06 3.026429e-05 -7.994122e-07
-2.136945e-05 -2.224994e-05 9.800260e-07
-2.993792e-05 4.097489e-06 2.542728e-07
2.382637e-05 -1.899210e-05 7.198698e-07
2.382637e-05 1.899210e-05 7.198698e-07
2.470563e-05 -2.025458e-05 7.844343e-07
-1.420404e-05 2.900531e-05 -2.584682e-22
2.470563e-05 2.025458e-05 7.844343e-07
-3.173424e-05 -4.012900e-06 7.466399e-07
-1.939822e-05 2.352013e-05 7.386019e-07
-1.202178e-05 2.803036e-05 7.507274e-07
-2.497727e-05 -1.790108e-05 9.230055e-07
-3.050597e-05 -1.079440e-06 -7.750815e-07
8.543752e-06 -2.952802e-05 9.282350e-07
1.205648e-05 -2.847252e-05 1.005186e-06
2.896103e-05 -8.638250e-06 -2.729944e-07
2.915557e-05 -7.819645e-06 1.174001e-08
-1.479465e-05 2.870855e-05 -2.584682e-22
2.896103e-05 8.638250e-06 -2.729944e-07
[...]
POINT_DATA 4023
VECTORS 10.000GHz_fone_imag double
2.814194e+10 6.112145e+08 6.916202e+08
-2.304972e+10 2.761546e+10 -1.313712e+08
-1.825980e+09 3.005045e+10 3.202863e+08
-1.523593e+10 2.413499e+10 -4.327661e+08
-1.178009e+10 2.663635e+10 7.300118e+08
-2.799237e+10 -5.914123e+09 6.434276e+08
-2.641308e+10 -9.310117e+09 -8.782537e+08
-2.935613e+10 -1.629980e+10 1.750088e+07
1.748614e+10 -2.164575e+10 3.099941e+08
-1.748880e+10 -2.166870e+10 -3.010095e+08
-3.468812e+10 -1.565268e+10 -9.696399e+08
2.769332e+10 1.273879e+09 1.449295e+09
-2.736499e+10 -2.182472e+10 -1.477835e+08
-2.007269e+10 2.975119e+10 2.972764e+08
-2.008274e+10 -2.607549e+10 -1.830868e+08
2.008488e+10 -2.607490e+10 1.841078e+08
2.855707e+10 -1.495945e+09 -1.982188e+08
1.330519e+10 2.613127e+10 -4.676245e+08
3.581029e+10 1.747683e+10 1.400151e+09
1.289228e+10 -3.527959e+10 4.321708e+08
-1.289303e+10 -3.527947e+10 -4.327953e+08
-2.118894e+10 -2.324388e+10 4.064872e+08
2.790142e+10 1.908152e+09 5.873849e+08
2.148506e+10 -2.311798e+10 -3.768507e+08
-6.645380e+09 2.828561e+10 2.754287e+07
-2.516292e+10 -1.485959e+10 -4.883896e+08
-2.269816e+09 -2.967970e+10 -7.960428e+08
2.312461e+09 -2.960908e+10 7.950303e+08
2.510202e+10 -1.466156e+10 9.503276e+08
-1.758882e+10 2.313546e+10 -4.632865e+08
1.313965e+10 2.605388e+10 -1.968172e+09
-3.447107e+09 -2.926678e+10 8.348142e+08
3.448195e+09 -2.926584e+10 -8.357005e+08
2.738302e+10 2.698121e+09 3.789809e+08
-8.146257e+09 2.881573e+10 -5.145298e+08
-1.123449e+10 2.957407e+10 -7.249533e+08
-1.746143e+10 2.288709e+10 -2.536805e+08
-2.006796e+10 2.135146e+10 3.176240e+08
3.356130e+10 4.926395e+09 9.384037e+08
2.277332e+10 2.416051e+10 -5.353508e+07
2.108828e+10 -2.723221e+10 -1.650788e+09
-2.108306e+10 -2.722929e+10 1.648799e+09
-2.809947e+10 -1.919689e+10 9.794358e+08
-3.604461e+10 -2.766989e+09 -3.282229e+08
2.751737e+10 1.249004e+09 7.319225e+08
1.756903e+10 2.306566e+10 -1.077686e+09
-2.598886e+10 -1.379455e+10 1.361094e+09
1.049569e+09 3.538530e+10 6.614711e+08
3.086501e+10 5.038563e+09 3.619495e+07
-2.176255e+10 1.855281e+10 -3.301348e+08
-2.675254e+10 -2.112351e+10 -2.901416e+08
1.643503e+10 -2.899422e+10 1.227714e+08
-1.643413e+10 -2.899227e+10 -1.228227e+08
3.118415e+10 -1.837184e+10 6.560051e+08
2.208611e+10 1.844949e+10 -1.216526e+08
2.866211e+10 4.500953e+09 1.148105e+09
1.146351e+10 3.418656e+10 -8.657715e+08
5.176246e+09 2.919256e+10 -8.799309e+07
5.622846e+09 3.456751e+10 5.782596e+07
2.773853e+10 9.995753e+09 -1.173028e+09
1.561042e+10 -3.102102e+10 2.120968e+08
-1.560998e+10 -3.102138e+10 -2.115670e+08
2.652861e+10 -1.240272e+10 -7.569361e+06
-4.290488e+09 -2.868294e+10 1.314359e+09
4.290608e+09 -2.868251e+10 -1.314416e+09
3.009163e+09 2.851822e+10 -5.646457e+08
2.779191e+10 3.783568e+09 -3.023075e+08
2.913107e+10 -1.892416e+10 8.499132e+07
2.855425e+10 -8.831761e+09 1.171931e+09
-2.787412e+10 -6.580592e+09 3.470495e+08
2.545638e+10 1.246146e+10 1.372237e+09
2.693577e+10 1.184438e+10 3.727935e+08
-1.716042e+10 -2.608182e+10 -7.772705e+08
1.715994e+10 -2.608038e+10 7.768323e+08
3.130563e+10 -1.409563e+10 3.059070e+08
-2.571914e+10 2.111214e+10 4.133209e+07
2.656456e+10 -1.040083e+10 7.061129e+08
2.908396e+10 5.172472e+09 1.275343e+09
2.628418e+10 -2.049839e+10 -2.140289e+08
2.559434e+10 -1.337864e+10 -6.036143e+08
3.371103e+10 -7.719457e+09 2.294289e+09
1.771471e+09 3.678439e+10 1.949358e+07
-3.069018e+10 -2.399531e+10 -4.148070e+08
2.694329e+10 -6.844985e+09 6.759631e+08
-2.706833e+10 -2.427791e+10 -3.734023e+08
-2.641204e+10 -1.215323e+10 -7.042046e+08
2.606007e+10 -2.008611e+10 3.717034e+08
3.303844e+10 1.191439e+10 -4.795172e+08
2.699091e+10 6.317982e+09 3.804831e+08
2.593931e+10 2.444383e+10 3.937661e+08
2.807321e+10 6.821381e+09 1.540594e+08
2.039723e+10 2.199077e+10 -9.154981e+08
-1.961418e+10 -2.116568e+10 5.591568e+07
1.964239e+10 -2.092325e+10 2.594686e+07
2.732335e+10 -1.639077e+10 1.171880e+09
3.431538e+10 6.089648e+09 -5.024146e+08
2.718349e+10 -9.994455e+09 -7.404147e+07
2.726436e+10 8.224096e+09 1.114734e+09
2.070652e+10 2.055408e+10 -1.371354e+09
2.692883e+10 5.346806e+09 -1.005360e+09
3.076504e+10 -2.427270e+10 -6.904117e+08
3.351968e+10 -9.475956e+09 1.036818e+08
2.328481e+10 1.782237e+10 4.107013e+08
-4.987105e+09 3.616049e+10 -2.330987e+08
2.572160e+10 -1.412363e+10 6.630076e+07
2.668005e+10 1.311780e+10 3.341785e+08
-2.151539e+09 3.615385e+10 3.164976e+08
2.239196e+10 -1.931667e+10 -3.527479e+08
2.851440e+10 -2.264055e+09 -1.784890e+09
2.822913e+09 2.899480e+10 4.901071e+08
2.747751e+10 6.278772e+09 -4.579355e+07
1.994569e+10 2.082693e+10 -2.069212e+07
2.799530e+10 8.037593e+09 -3.726841e+08
2.544458e+10 1.337002e+10 1.012073e+09
2.755058e+10 -2.483284e+10 -1.924579e+09
-2.957717e+09 3.570157e+10 1.845468e+08
2.091203e+10 2.700687e+10 -4.939729e+08
-2.797201e+10 -4.208538e+09 4.879035e+08
-2.793261e+10 4.642232e+09 6.625054e+08
-2.598143e+10 1.131185e+10 6.812350e+08
-2.230062e+10 1.697549e+10 -1.854563e+08
2.728958e+10 7.458596e+09 -7.394089e+08
-2.536406e+10 1.518862e+10 -1.613125e+08
-2.851512e+10 8.542991e+09 -9.122992e+07
-2.756171e+10 1.322403e+09 -3.147105e+08
-2.305993e+10 1.664530e+10 7.036874e+08
-2.435896e+10 1.433310e+10 1.808468e+09
-2.570460e+10 1.149084e+10 -5.352910e+08
-2.728988e+10 8.042000e+09 1.824616e+09
-2.768701e+10 4.864641e+09 -5.362318e+08
-2.850338e+10 7.322233e+08 1.430661e+09
1.209872e+10 -2.856012e+10 2.264416e+08
2.679600e+10 8.142295e+09 2.297780e+08
-1.209058e+10 -2.855843e+10 -2.313654e+08
3.016916e+10 -1.318798e+10 -6.679875e+08
3.225704e+10 -5.013984e+09 1.067943e+08
2.730884e+10 1.687816e+10 8.466954e+08
2.816588e+10 -3.552552e+09 2.252991e+08
-2.020412e+10 2.011372e+10 -5.264025e+08
8.157345e+09 2.797714e+10 -3.061196e+08
5.669264e+09 -3.285990e+10 1.108499e+09
-5.669252e+09 -3.286000e+10 -1.108572e+09
3.423586e+10 -4.291499e+08 1.016944e+08
2.759927e+10 7.316596e+09 1.963074e+08
-5.473705e+09 -3.399732e+10 5.229832e+08
5.473645e+09 -3.399751e+10 -5.226198e+08
3.297366e+10 1.489161e+10 -9.845057e+08
-5.814182e+09 -2.828498e+10 -6.016480e+08
5.814211e+09 -2.828515e+10 6.016205e+08
2.305736e+10 1.854086e+10 -7.161972e+08
-2.059542e+10 2.666795e+10 6.240150e+08
-2.593411e+10 -1.375394e+10 -8.445597e+08
3.388122e+10 -1.515680e+10 1.246566e+08
3.119948e+10 -1.379292e+10 -3.926706e+08
2.658063e+10 9.449404e+09 7.070511e+07
3.490717e+10 1.615906e+09 9.735551e+08
1.321716e+10 3.146582e+10 -1.481085e+08
-1.003217e+10 2.758812e+10 1.349149e+09
-1.646542e+10 2.313948e+10 6.387740e+08
1.191009e+10 2.657053e+10 1.277929e+09
2.785941e+10 -6.918989e+09 2.661966e+08
-2.102863e+10 1.961953e+10 7.224869e+08
-1.153279e+10 2.552966e+10 -9.538645e+07
-1.545050e+10 2.418462e+10 -6.189081e+08
-1.979073e+10 -2.232659e+10 -9.691774e+08
2.903830e+10 9.346859e+09 -1.957347e+08
1.950321e+10 -2.145617e+10 7.273309e+08
3.108287e+10 1.791720e+10 4.150850e+08
2.400791e+10 -2.513311e+10 -3.946840e+08
2.415133e+10 -2.567409e+10 4.465295e+08
-2.467162e+10 -2.581289e+10 -5.455040e+08
-2.433428e+10 -2.405712e+10 -6.618992e+08
-2.675032e+10 -2.394400e+10 -9.647351e+08
2.691405e+10 -2.258918e+10 1.161133e+09
2.552317e+10 -2.227633e+10 -1.730606e+08
2.762292e+10 -6.113386e+09 8.430603e+08
2.506094e+10 1.085241e+10 -2.593488e+08
3.132078e+10 6.078519e+09 4.677695e+08
2.089125e+10 2.571407e+10 -1.293945e+08
-8.490130e+09 -3.505853e+10 -4.559249e+08
8.490317e+09 -3.505773e+10 4.561296e+08
2.978221e+10 -2.643321e+09 6.485434e+07
-2.996912e+10 -1.837827e+10 6.837665e+08
2.034792e+10 -2.015835e+10 1.263557e+09
-2.090773e+10 -1.910990e+10 -9.403412e+08
-1.868188e+10 2.110057e+10 2.234557e+08
-2.788924e+10 -1.010330e+10 -2.565133e+07
2.551036e+10 8.948938e+09 -4.123867e+08
-2.882128e+10 -5.332720e+09 -2.018173e+09
9.757983e+08 2.746116e+10 2.344187e+08
-2.428301e+10 -1.495372e+10 -2.403783e+08
2.635473e+10 -2.354718e+10 5.953585e+08
-6.798476e+09 2.706871e+10 -4.458255e+08
-1.031952e+10 2.742987e+10 4.439513e+08
-8.223721e+09 2.761201e+10 -9.044592e+07
1.528039e+09 2.992751e+10 -5.621280e+08
1.396976e+10 3.088864e+10 2.537178e+08
1.382619e+09 2.858014e+10 -4.058313e+08
2.673085e+10 9.578301e+09 -8.785583e+08
1.425665e+10 2.493919e+10 2.101454e+09
-3.219198e+09 2.818374e+10 3.075844e+08
1.719375e+10 -2.857917e+10 -5.210565e+08
-1.719282e+10 -2.857910e+10 5.209222e+08
1.316044e+10 -2.593966e+10 -3.565096e+08
-1.315981e+10 -2.593920e+10 3.568442e+08
-2.382398e+10 -1.696061e+10 -3.132875e+07
2.372665e+10 -1.639806e+10 7.114981e+08
-6.988059e+09 -3.349014e+10 4.260751e+08
6.988119e+09 -3.349145e+10 -4.259136e+08
2.907026e+10 1.186926e+10 -1.326413e+09
1.679739e+10 -3.029552e+10 2.358968e+09
-1.679766e+10 -3.029638e+10 -2.358738e+09
-2.820566e+10 -1.823429e+10 4.732389e+08
2.747991e+10 -4.744271e+09 -1.340139e+08
2.276513e+10 1.890553e+10 5.685280e+08
2.105263e+10 2.598111e+10 1.162621e+08
3.352497e+10 8.868201e+09 -4.064243e+08
-1.270505e+10 -2.801918e+10 -4.769292e+08
1.270572e+10 -2.802050e+10 4.770472e+08
-2.481228e+10 -1.681711e+10 -1.663914e+08
2.536849e+10 1.335456e+10 4.643096e+08
-1.936805e+10 -1.938975e+10 2.344400e+08
2.036082e+10 -2.070353e+10 -7.825918e+08
2.707498e+10 1.234361e+10 3.793920e+08
-2.639727e+10 -2.051442e+10 -5.732077e+08
3.398183e+10 -4.734202e+09 -7.044010e+08
-2.372687e+10 2.197294e+10 5.306472e+08
4.543793e+09 3.445494e+10 -8.294926e+08
-2.139594e+10 -2.629732e+10 6.996706e+08
2.140678e+10 -2.629953e+10 -6.936103e+08
-1.931913e+10 -2.284794e+10 4.450678e+08
2.474683e+10 1.263139e+10 -1.040062e+09
1.932022e+10 -2.282739e+10 -4.566587e+08
-3.933309e+09 2.791484e+10 2.562980e+08
2.568894e+10 2.199332e+10 -4.250844e+08
3.224482e+10 1.231743e+10 -2.115857e+09
-1.931198e+10 2.745716e+10 -5.552269e+08
-1.421949e+09 3.620013e+10 -6.942495e+08
-3.368791e+10 -7.915462e+09 -9.112270e+08
-3.005498e+10 -1.250062e+10 9.894763e+08
-9.943565e+09 -3.645169e+10 6.964634e+08
-8.312666e+09 -3.580821e+10 2.396615e+06
2.486324e+10 1.253475e+10 3.802129e+08
9.944777e+09 -3.645396e+10 -6.981295e+08
8.313508e+09 -3.581041e+10 -3.951895e+06
-4.517972e+09 -2.846691e+10 -1.241569e+08
4.518332e+09 -2.846688e+10 1.244509e+08
-3.230837e+10 -1.423277e+10 3.511372e+08
2.420418e+10 1.633024e+10 1.175606e+09
-3.236249e+10 -4.065889e+09 -4.871919e+08
8.208705e+09 -2.803585e+10 -3.629108e+08
-8.208416e+09 -2.803520e+10 3.629914e+08
6.823437e+09 -2.780325e+10 5.944191e+08
2.367556e+10 1.353873e+10 2.718065e+08
-6.823829e+09 -2.780410e+10 -5.939503e+08
1.083013e+10 2.599209e+10 -1.842380e+09
-9.268085e+09 2.713313e+10 -1.119927e+08
-1.805781e+10 2.224587e+10 9.457083e+07
1.421142e+10 2.959774e+10 -6.172775e+08
-1.404262e+10 2.590516e+10 -1.807049e+08
3.023899e+10 -1.964935e+10 -5.920199e+08
2.362468e+10 2.797189e+10 -2.224058e+09
3.009783e+10 1.322049e+10 1.265899e+09
3.115776e+09 3.272671e+10 -3.865320e+08
2.441293e+10 1.318561e+10 4.100760e+08
-3.493989e+10 4.205555e+08 -2.444993e+08
-3.370587e+10 8.921701e+09 -2.049200e+08
-3.051444e+10 1.668514e+10 -3.183701e+08
-2.241689e+10 1.936071e+10 -4.536604e+06
-9.799249e+09 3.227635e+10 -1.441084e+09
-1.307337e+10 3.111468e+10 -2.129721e+09
-2.224290e+10 2.479568e+10 1.061227e+09
2.243657e+10 -1.682094e+10 -3.776399e+08
2.903815e+10 1.158160e+09 1.377655e+07
2.564572e+10 2.052388e+10 -1.803587e+08
2.568644e+10 1.445819e+10 -4.385981e+08
5.532731e+09 3.295555e+10 2.104674e+08
9.996275e+09 2.906357e+10 5.172514e+08
3.404373e+10 -7.046642e+07 1.090946e+09
-2.146769e+09 3.028022e+10 -6.242214e+08
3.518515e+10 -7.822241e+09 -1.423368e+09
-7.836288e+09 -2.703154e+10 -5.535721e+08
7.835459e+09 -2.702967e+10 5.525109e+08
1.549036e+10 2.918684e+10 -8.051182e+08
-2.707571e+10 1.267304e+10 -1.321479e+08
-2.933449e+10 5.687641e+09 -1.108328e+08
2.545621e+10 1.576180e+10 -1.852856e+09
-2.947046e+10 -2.029432e+09 4.713704e+08
-7.799289e+09 2.763403e+10 -3.502143e+08
-1.954459e+10 2.139385e+10 2.284905e+07
3.312495e+10 1.019445e+10 5.548202e+08
2.374171e+10 2.533106e+10 -2.837126e+08
-4.608559e+09 3.365261e+10 -6.579231e+08
-3.641860e+10 3.686863e+09 1.066996e+09
-3.817501e+10 8.528727e+09 7.508826e+08
-3.442100e+10 1.242466e+10 1.073293e+09
-3.495191e+10 1.755021e+10 7.816738e+08
2.318839e+10 1.627008e+10 1.780230e+08
-3.047337e+10 2.071696e+10 8.240422e+08
3.192601e+10 1.592538e+10 -1.457821e+09
3.009822e+10 1.650450e+10 4.106351e+08
-2.756877e+10 -1.862277e+10 2.720341e+07
1.218322e+10 -3.593251e+10 -1.432276e+09
-1.218397e+10 -3.593225e+10 1.434604e+09
-9.251165e+09 -2.589781e+10 -1.302304e+08
9.251297e+09 -2.589513e+10 1.296236e+08
1.510391e+10 3.121112e+10 -1.567824e+09
-2.796321e+10 -4.489956e+09 -1.145930e+09
2.234314e+10 1.520434e+10 -1.066119e+09
-2.841420e+10 -3.695666e+09 6.123092e+08
2.917105e+10 -1.953540e+10 -3.113970e+08
2.737068e+10 -8.509666e+09 6.526400e+07
-2.899803e+10 -9.085085e+09 -5.134715e+08
5.216787e+09 -3.227949e+10 9.010810e+08
-5.216539e+09 -3.227995e+10 -9.008135e+08
2.049166e+10 2.953912e+10 -8.838085e+08
1.887671e+10 -2.329963e+10 -4.398386e+08
-1.887745e+10 -2.330429e+10 4.383895e+08
7.563154e+09 3.527333e+10 5.068407e+08
2.240777e+10 1.671456e+10 -5.398985e+08
3.783339e+10 5.226285e+08 7.097776e+08
3.158292e+10 1.543070e+10 4.385472e+08
7.925575e+09 2.843238e+10 -1.076715e+09
2.768213e+09 -2.872517e+10 3.216468e+08
-2.768225e+09 -2.872472e+10 -3.220134e+08
3.927902e+09 -3.289540e+10 1.135031e+08
-3.927254e+09 -3.289526e+10 -1.138756e+08
3.396126e+10 -7.783848e+09 2.932350e+08
3.212643e+10 -1.146853e+10 5.942939e+07
1.880367e+10 3.145729e+10 -4.541526e+08
2.321861e+10 1.686382e+10 -1.141982e+09
1.205787e+10 3.064335e+10 -1.151597e+09
-5.846422e+09 3.354688e+10 -8.023995e+08
-6.725520e+09 3.123555e+10 -8.046522e+08
-2.153585e+10 1.927125e+10 3.555489e+08
-2.900314e+10 2.582667e+09 -9.932494e+07
-2.754887e+10 9.556126e+09 -9.740281e+07
-2.363422e+10 1.644141e+10 2.271540e+08
-2.573183e+10 -1.167600e+10 6.141125e+08
-3.533135e+10 4.332208e+09 -7.902202e+08
-3.325883e+10 1.279641e+10 -8.111356e+08
2.243347e+10 1.668200e+10 2.645563e+08
-2.692996e+10 2.162723e+10 -9.690314e+08
-3.923269e+10 -3.970667e+09 1.717048e+09
-2.642965e+10 1.893648e+10 7.323794e+08
-2.834980e+10 1.515381e+10 9.239140e+08
-3.280162e+10 1.036165e+10 1.518964e+09
-3.109104e+10 7.698178e+09 9.435343e+08
-3.429672e+10 1.941133e+09 1.554334e+09
-3.250625e+10 -1.511028e+08 9.621629e+08
1.246448e+10 3.372873e+10 1.110508e+08
-1.739529e+10 -2.472964e+10 -1.977645e+08
2.127205e+10 1.781405e+10 -1.608339e+08
1.739593e+10 -2.472888e+10 1.986140e+08
-1.176714e+10 3.167417e+10 4.262041e+08
-2.043692e+10 2.549113e+10 -7.620349e+08
-1.723445e+10 2.346812e+10 -1.700916e+07
-2.703176e+10 1.253709e+10 -5.991600e+07
-2.471167e+10 1.565003e+10 2.657499e+08
-2.775985e+10 9.152377e+09 2.468191e+08
-2.925106e+10 5.571733e+09 -7.315908e+07
-2.910929e+10 2.096845e+09 2.216572e+08
-2.909525e+10 -2.384737e+09 -7.197306e+08
2.152896e+10 1.816071e+10 -1.964231e+08
2.875031e+10 -3.094383e+09 4.661484e+08
-1.283517e+10 -2.927808e+10 3.765815e+08
1.140446e+10 -2.822885e+10 -7.575058e+08
1.283488e+10 -2.927791e+10 -3.758166e+08
-1.140512e+10 -2.822612e+10 7.590025e+08
1.414358e+10 -2.661115e+10 -1.004518e+09
-1.414281e+10 -2.661139e+10 1.005010e+09
3.530421e+10 -7.670882e+09 4.489926e+08
1.266819e+10 -3.166701e+10 6.566832e+08
-1.266449e+10 -3.165240e+10 -6.576217e+08
2.186005e+10 1.949561e+10 4.130602e+08
2.521126e+10 2.467805e+10 -4.438614e+08
-2.905980e+10 -2.050655e+10 1.022801e+09
3.221346e+10 -8.149436e+09 -2.651846e+08
2.889036e+10 -1.109433e+09 1.820218e+08
1.566777e+09 3.684638e+10 8.854840e+07
9.429188e+09 -2.960493e+10 -6.613438e+08
-9.430415e+09 -2.960724e+10 6.617958e+08
2.331835e+10 2.578659e+10 -2.453007e+08
3.458132e+10 8.812612e+09 -2.089189e+08
6.108016e+09 2.770697e+10 -9.229855e+08
1.976637e+10 1.900955e+10 6.924331e+07
-2.270409e+09 -3.548025e+10 -1.350047e+09
2.306695e+09 -3.557040e+10 1.456601e+09
6.375775e+09 2.829840e+10 7.123530e+08
1.902487e+09 3.537365e+10 -6.549413e+08
2.174651e+10 3.166972e+10 -1.380595e+09
-3.288598e+10 -3.637137e+09 -2.299976e+07
-3.173070e+10 3.306591e+09 1.233874e+09
-2.997627e+10 1.093400e+10 1.227427e+09
-2.683290e+10 1.889483e+10 -2.181898e+08
-2.845200e+10 1.704380e+10 -6.111609e+08
1.916754e+10 1.902604e+10 6.775510e+08
-3.162482e+10 9.547431e+09 -6.181336e+08
-3.362950e+10 7.850927e+08 -7.757087e+08
-2.188219e+10 -1.801961e+10 -8.915760e+08
1.427921e+10 2.895222e+10 3.765682e+08
5.976008e+08 -3.371518e+10 -8.479133e+08
-7.147787e+08 -3.374875e+10 7.713982e+08
-2.831098e+10 -1.098288e+10 1.181884e+08
1.137547e+10 3.415038e+10 -1.515985e+09
-3.507677e+10 -6.350176e+09 1.429473e+08
2.503784e+10 1.277214e+10 -1.116012e+09
2.019832e+10 1.885685e+10 3.282054e+07
-3.376486e+10 -6.195792e+09 -5.619807e+08
-1.527061e+10 3.055988e+10 -5.313085e+08
-1.805556e+10 2.924762e+10 4.582221e+08
2.465567e+10 -1.473900e+10 3.208989e+08
3.371563e+10 5.430211e+09 -5.762279e+08
3.299513e+10 1.181977e+10 -4.061091e+08
2.578299e+10 2.289195e+10 1.410036e+08
-1.500397e+10 3.128825e+10 1.433321e+09
-2.467814e+10 2.349277e+10 1.376291e+09
-1.687947e+10 2.999738e+10 3.626239e+07
1.910391e+10 2.109820e+10 -5.151061e+08
7.361775e+09 -2.770138e+10 -1.738827e+08
-7.361611e+09 -2.770311e+10 1.732974e+08
3.325072e+10 2.771795e+09 -3.598858e+08
2.394674e+10 -1.940409e+10 2.956662e+08
-9.606077e+09 -3.120585e+10 3.893134e+08
9.607718e+09 -3.120780e+10 -3.895651e+08
-1.429748e+08 3.406425e+10 -5.195781e+08
2.558282e+10 -1.187401e+10 -5.349548e+08
-3.175664e+10 -6.485036e+09 -7.463454e+08
2.778924e+10 1.883026e+10 -1.665502e+08
1.915452e+10 2.043804e+10 -2.693877e+08
2.828400e+10 -2.397635e+10 1.276934e+09
-4.927692e+09 2.815612e+10 -2.986202e+08
-3.215006e+10 -1.523799e+10 1.203390e+08
-1.242449e+10 2.501238e+10 4.413769e+08
-1.422650e+10 2.504736e+10 1.122821e+09
3.331716e+10 -1.472751e+10 -2.052523e+09
7.438414e+09 3.161391e+10 -8.397902e+08
2.568979e+10 1.667029e+10 4.962803e+08
-3.017548e+10 1.376610e+10 -9.698112e+07
-2.721276e+10 1.698080e+10 3.619802e+06
1.913493e+10 2.063411e+10 2.093620e+08
-3.055413e+10 1.002698e+10 -2.730581e+07
-3.266736e+10 6.018999e+09 -1.045294e+08
-3.185011e+10 -1.582521e+09 9.753661e+07
-3.208753e+10 2.289337e+09 -2.393169e+07
-2.600097e+10 2.072449e+10 -1.013935e+08
-2.938547e+10 -2.441200e+10 -5.159581e+08
2.515543e+10 1.415744e+10 -2.998168e+08
-2.793393e+10 -7.256087e+09 5.665730e+08
-3.362906e+10 -9.774571e+09 5.101897e+08
8.463133e+09 3.071884e+10 6.771894e+08
1.826777e+10 2.182809e+10 -4.564802e+08
-1.522189e+10 -2.491666e+10 1.528285e+09
1.522116e+10 -2.491436e+10 -1.528859e+09
1.786814e+10 2.772199e+10 9.147298e+08
-2.461182e+10 2.251228e+10 -4.206225e+08
-1.872087e+10 2.837361e+10 1.149566e+08
-1.414610e+10 3.046557e+10 8.052564e+08
3.310161e+10 4.916266e+08 3.825203e+07
3.236742e+10 9.579478e+09 1.075267e+08
2.368164e+10 2.430439e+10 -1.869224e+08
-2.814134e+10 -6.169316e+09 3.331956e+08
1.664608e+10 2.166857e+10 1.757129e+09
-1.160286e+10 2.798588e+10 7.646329e+07
-2.624196e+10 -2.423957e+10 -9.154560e+08
3.283506e+10 -1.635283e+10 4.234439e+07
2.779434e+10 -1.893047e+10 -8.003016e+08
-9.457908e+09 3.445851e+10 -7.312868e+07
-1.232111e+10 3.322642e+10 6.602499e+08
2.523355e+10 -2.340327e+10 3.543491e+07
-1.101628e+09 3.651974e+10 -1.109278e+09
-2.517871e+10 -2.231479e+10 1.364202e+08
-1.409031e+10 2.524948e+10 -8.521777e+07
1.763908e+10 2.102485e+10 3.755146e+08
-2.464309e+10 2.588044e+10 -4.018293e+08
-3.561628e+10 -7.508501e+09 2.743083e+07
-2.751510e+10 -4.811540e+09 -1.483106e+08
-1.302101e+10 -3.065795e+10 1.741982e+08
1.302064e+10 -3.065789e+10 -1.740505e+08
3.459594e+10 6.951531e+09 4.882407e+08
-2.222073e+10 -2.454748e+10 -4.768652e+08
2.229721e+10 -2.453613e+10 4.972226e+08
-3.441181e+09 2.877801e+10 5.660367e+08
3.254116e+10 1.233727e+10 -3.757761e+08
1.758778e+10 2.274363e+10 1.256921e+09
2.968391e+10 2.078942e+10 4.562907e+08
2.568162e+10 -2.590848e+10 1.527194e+09
2.069128e+10 -1.867316e+10 -5.799162e+07
-2.730009e+10 -2.586933e+10 -9.051700e+08
1.863750e+10 -2.938552e+10 1.487667e+08
-1.863722e+10 -2.938454e+10 -1.481156e+08
3.311734e+10 -3.446895e+09 -1.124170e+09
2.883902e+10 1.622624e+10 -4.813570e+07