# vtk DataFile Version 2.0
Electric current density generated by TTH
ASCII
DATASET UNSTRUCTURED_GRID
POINTS 7221 double
2.395047e-05 2.934272e-05 -1.678812e-22
3.265816e-05 1.771792e-05 -6.844735e-07
3.234331e-05 -1.699781e-05 2.080270e-07
3.265816e-05 -1.771792e-05 6.844735e-07
1.233223e-05 3.510877e-05 -6.851135e-07
1.231917e-05 -3.510267e-05 6.853444e-07
2.716216e-05 -2.558839e-05 6.737627e-07
2.803148e-05 -2.338974e-05 -5.974231e-08
9.224382e-06 3.605295e-05 -6.850293e-07
-5.584991e-06 3.681743e-05 -6.837676e-07
1.388706e-05 3.455051e-05 -6.838840e-07
2.361554e-05 2.961295e-05 -1.678812e-22
1.387134e-05 -3.454544e-05 6.845124e-07
-2.412302e-06 3.690684e-05 -6.539401e-07
-3.481303e-06 3.703041e-05 -6.854217e-07
-4.505505e-06 3.665161e-05 -6.327716e-07
-1.107111e-05 3.528971e-05 -6.539359e-07
-1.006239e-05 3.580988e-05 -6.854025e-07
-8.936956e-06 3.598542e-05 -6.761494e-07
-2.555474e-05 2.692291e-05 -6.817357e-07
-2.475481e-05 2.761777e-05 -6.776960e-07
3.369117e-05 1.581679e-05 6.848465e-07
2.327756e-05 2.987935e-05 -1.678812e-22
3.369117e-05 -1.581679e-05 -6.848465e-07
2.859594e-05 2.269503e-05 5.101313e-08
1.369757e-05 -3.383839e-05 -1.112710e-08
1.369575e-05 3.383917e-05 -1.347437e-08
3.463865e-05 -1.293610e-05 -6.506430e-07
3.463865e-05 1.293610e-05 6.506430e-07
-2.787008e-05 2.477148e-05 -6.785747e-07
3.585892e-05 -1.024809e-05 -6.775497e-07
3.588338e-05 1.025395e-05 6.732260e-07
3.628748e-05 -8.608356e-06 -6.775497e-07
2.293657e-05 3.014190e-05 -1.678812e-22
3.416898e-05 -1.422364e-05 -6.614439e-07
3.416898e-05 1.422364e-05 6.614439e-07
3.391081e-05 -1.552125e-05 6.776176e-07
3.391081e-05 1.552125e-05 -6.776176e-07
3.579571e-05 7.168843e-06 -3.665555e-08
1.883573e-05 -3.215258e-05 -6.815711e-07
1.884315e-05 3.216082e-05 6.803262e-07
3.610761e-05 5.380141e-06 3.122128e-08
-2.356525e-05 2.891463e-05 -6.765092e-07
-2.241801e-05 2.934953e-05 -6.345716e-07
2.259263e-05 3.040055e-05 -1.678812e-22
1.054691e-05 -3.494994e-05 -3.926191e-08
8.904347e-06 3.540392e-05 3.659959e-08
1.852355e-05 -3.145705e-05 -1.656472e-08
1.855903e-05 3.143614e-05 1.677979e-08
3.708073e-05 -3.676667e-06 -6.816770e-07
2.174865e-05 2.966725e-05 5.524099e-07
2.174865e-05 -2.966725e-05 -5.524099e-07
3.683927e-05 -5.524082e-06 -6.827802e-07
-1.524371e-05 3.377044e-05 -6.710893e-07
-1.961061e-05 3.079490e-05 6.819807e-08
2.224577e-05 3.065528e-05 -1.678812e-22
-2.103525e-05 2.985550e-05 1.478858e-07
3.103631e-05 2.041415e-05 -6.840936e-07
3.103631e-05 -2.041415e-05 6.840936e-07
3.642204e-05 -7.831338e-06 6.824789e-07
3.201889e-05 -1.894794e-05 6.852772e-07
3.201889e-05 1.894794e-05 -6.852772e-07
3.515575e-05 -1.175051e-05 -6.742227e-07
3.515575e-05 1.175051e-05 6.742227e-07
3.679927e-05 2.340423e-06 -6.075446e-07
6.229298e-06 3.682134e-05 -6.679961e-07
2.189603e-05 3.090605e-05 -1.678812e-22
3.605109e-05 -7.736158e-06 -6.065879e-07
7.427313e-07 3.734923e-05 -6.651058e-07
-1.623569e-07 3.718652e-05 -6.854150e-07
1.513014e-05 -3.322288e-05 -2.250220e-08
2.719774e-05 2.562192e-05 -6.627625e-07
-2.091129e-05 3.097154e-05 -6.616241e-07
-1.378517e-05 3.473663e-05 -6.610917e-07
-1.725927e-05 3.314837e-05 -6.609726e-07
3.679596e-05 6.548009e-06 6.605207e-07
3.692846e-05 9.232442e-07 6.378319e-07
2.154347e-05 3.115283e-05 -1.678812e-22
3.692652e-05 -9.200054e-07 -6.370362e-07
2.825427e-05 2.429149e-05 6.818417e-07
-2.633360e-05 2.533159e-05 2.136556e-07
1.614597e-05 -3.274083e-05 -3.484623e-09
-2.647993e-05 2.640482e-05 -6.542886e-07
4.787230e-06 3.692585e-05 -6.840186e-07
-2.273095e-05 2.934797e-05 6.818907e-07
-2.852748e-05 2.278704e-05 8.782161e-08
-2.902642e-05 2.220716e-05 -2.350963e-07
-1.577299e-05 3.391270e-05 6.523485e-07
2.118813e-05 3.139559e-05 -1.678812e-22
2.346349e-05 -2.912618e-05 -6.523002e-07
2.346349e-05 2.912618e-05 6.523002e-07
-1.353412e-06 3.737744e-05 6.521475e-07
-1.222845e-05 3.534645e-05 6.521409e-07
3.573767e-05 1.109777e-05 6.456224e-07
3.573767e-05 -1.109777e-05 -6.456224e-07
-3.011416e-05 2.196852e-05 6.801674e-07
3.717445e-05 4.429701e-06 -6.395757e-07
-4.770935e-06 3.712119e-05 6.436741e-07
-8.958251e-06 3.634977e-05 6.396048e-07
2.083006e-05 3.163430e-05 -1.678812e-22
2.604791e-05 -2.687477e-05 -6.436638e-07
2.604186e-05 2.691004e-05 6.355329e-07
-9.188994e-06 3.537082e-05 -2.290785e-07
1.315611e-05 3.499074e-05 -6.581826e-07
1.315530e-05 -3.499098e-05 6.582006e-07
2.968710e-05 2.272394e-05 -6.571358e-07
3.518345e-05 -9.776410e-06 1.220390e-07
3.518345e-05 9.776410e-06 -1.220390e-07
3.044442e-05 -2.172297e-05 -6.528130e-07
3.044442e-05 2.172297e-05 6.528130e-07
2.046929e-05 3.186893e-05 -1.678812e-22
3.732388e-05 -1.981755e-06 6.598488e-07
-2.530556e-05 2.634213e-05 1.732458e-07
1.616342e-05 3.278724e-05 -2.553915e-07
3.635469e-05 3.803840e-06 2.510334e-07
-1.877906e-05 3.214151e-05 6.845616e-07
2.124249e-06 3.716428e-05 6.845843e-07
1.487776e-05 3.336743e-05 1.955113e-07
1.972893e-05 3.074942e-05 -1.966309e-07
1.972893e-05 -3.074942e-05 1.966309e-07
9.977663e-06 -3.607332e-05 6.432150e-07
2.010588e-05 3.209944e-05 -1.678812e-22
-2.581604e-06 3.655158e-05 4.112837e-07
-1.078493e-05 3.501955e-05 4.112970e-07
3.625030e-05 -5.256951e-06 3.931505e-07
3.138415e-05 -1.864642e-05 2.174042e-09
3.138415e-05 1.864642e-05 -2.174042e-09
-3.997761e-06 3.640481e-05 3.846852e-07
-2.926277e-05 2.324687e-05 6.608642e-07
2.406354e-05 -2.757072e-05 -3.387129e-07
2.454971e-05 -2.702556e-05 -8.817189e-08
2.406354e-05 2.757072e-05 3.387129e-07
1.973988e-05 3.232580e-05 -1.678812e-22
2.454971e-05 2.702556e-05 8.817189e-08
9.993993e-06 3.608036e-05 -6.390027e-07
-1.363776e-05 3.445056e-05 6.711348e-07
3.640513e-05 -3.884041e-06 3.664890e-07
1.665839e-05 3.345866e-05 -6.599061e-07
-5.670336e-06 3.607035e-05 1.030918e-07
2.972970e-07 3.687005e-05 6.063002e-07
-1.704191e-05 3.273219e-05 6.219522e-07
3.645432e-05 8.407939e-06 -6.490185e-07
2.868769e-05 -2.393741e-05 -6.635213e-07
1.937133e-05 3.254800e-05 -1.678812e-22
3.424999e-05 1.509979e-05 6.420907e-07
3.424999e-05 -1.509979e-05 -6.420907e-07
5.886901e-06 -3.604116e-05 -1.341218e-07
8.328322e-06 -3.555644e-05 -1.341218e-07
-3.044326e-05 2.017000e-05 -1.341220e-07
3.418131e-06 -3.635846e-05 -1.341220e-07
9.334825e-07 -3.650685e-05 -1.341220e-07
-8.933071e-06 -3.540934e-05 -1.341220e-07
-4.037262e-06 -3.629493e-05 -1.341220e-07
-3.634860e-05 -3.521394e-06 -1.341220e-07
1.900027e-05 3.276599e-05 -1.678812e-22
-1.366307e-05 -3.386653e-05 -1.341220e-07
-1.132438e-05 -3.471858e-05 -1.341220e-07
-1.593830e-05 -3.285714e-05 -1.341220e-07
-3.553264e-05 -8.429286e-06 -1.341220e-07
-2.924891e-05 -2.186601e-05 -1.341220e-07
-3.405715e-05 -1.318072e-05 -1.341220e-07
-3.475060e-05 1.122571e-05 -1.341220e-07
-3.630625e-05 3.934150e-06 -1.341220e-07
-3.067047e-05 -1.982281e-05 -1.341220e-07
-3.595392e-05 6.398164e-06 -1.341220e-07
1.862677e-05 3.297975e-05 -1.678812e-22
-3.290228e-05 1.584490e-05 -1.341220e-07
-1.813948e-05 -3.169512e-05 -1.341220e-07
-3.174651e-05 1.804938e-05 -1.341220e-07
-3.650405e-05 -1.037176e-06 -1.341220e-07
-2.600540e-05 -2.563865e-05 -1.341220e-07
-3.308018e-05 -1.547005e-05 -1.341220e-07
-6.500266e-06 -3.593560e-05 -1.341220e-07
-3.543457e-05 8.832455e-06 -1.341220e-07
-3.390520e-05 1.356682e-05 -1.341220e-07
-2.025639e-05 -3.038585e-05 -1.341220e-07
1.825086e-05 3.318925e-05 -1.678812e-22
-2.227920e-05 -2.893542e-05 -1.341220e-07
-3.487590e-05 -1.083016e-05 -1.341220e-07
-3.648991e-05 1.451859e-06 -1.341220e-07
-3.194954e-05 -1.768752e-05 -1.341220e-07
-3.602430e-05 -5.989252e-06 -1.341220e-07
-2.769148e-05 -2.380763e-05 -1.341220e-07
-2.419851e-05 -2.735057e-05 -1.341220e-07
-1.555503e-06 -3.648563e-05 -1.341220e-07
-2.226473e-05 3.005474e-05 -6.517100e-07
2.921500e-05 -2.343426e-05 6.336145e-07
1.787259e-05 3.339447e-05 -1.678812e-22
2.972210e-05 -2.275073e-05 6.424206e-07
7.430378e-06 3.576273e-05 -1.681620e-07
3.731750e-05 -2.965452e-06 -6.404554e-07
-2.748661e-05 2.403260e-05 8.925955e-08
3.367285e-05 -1.627829e-05 6.524130e-07
3.367285e-05 1.627829e-05 -6.524130e-07
3.306544e-05 1.556269e-05 2.286003e-07
3.306544e-05 -1.556269e-05 -2.286003e-07
1.668514e-05 -3.345631e-05 6.570667e-07
-1.614702e-06 3.705271e-05 -6.776313e-07
1.749202e-05 3.359538e-05 -1.678812e-22
-1.186761e-05 3.513803e-05 -6.776542e-07
1.529011e-05 -3.412989e-05 6.532980e-07
-2.935625e-05 2.175181e-05 2.043757e-07
2.749891e-05 -2.403550e-05 1.517287e-07
-2.378957e-05 2.775464e-05 2.555334e-07
1.715703e-05 -3.223851e-05 -1.384304e-07
2.662459e-05 -2.619068e-05 6.673588e-07
2.662455e-05 2.619082e-05 -6.673437e-07
3.419366e-05 1.279383e-05 6.631567e-08
3.419366e-05 -1.279383e-05 -6.631567e-08
1.710919e-05 3.379195e-05 -1.678812e-22
9.633397e-07 3.657005e-05 -3.160406e-07
4.551785e-06 -3.706797e-05 6.675701e-07
5.405552e-06 -3.685593e-05 6.828596e-07
-1.056643e-05 -3.582043e-05 6.675701e-07
-9.738303e-06 -3.594993e-05 6.832485e-07
-5.288081e-07 -3.734265e-05 6.675701e-07
3.458563e-07 -3.724862e-05 6.828595e-07
-3.647987e-05 7.998238e-06 6.675701e-07
-3.656296e-05 7.122467e-06 6.828595e-07
-2.328633e-05 -2.919760e-05 6.675701e-07
1.672415e-05 3.398416e-05 -1.678812e-22
-2.390270e-05 -2.856992e-05 6.828595e-07
-1.298195e-05 -3.501745e-05 6.675701e-07
-1.212617e-05 -3.522124e-05 6.828595e-07
-3.728605e-05 2.122091e-06 6.675701e-07
-3.713020e-05 2.987880e-06 6.828595e-07
-7.274469e-06 -3.663107e-05 6.675701e-07
-8.110264e-06 -3.635661e-05 6.828595e-07
-1.910163e-05 -3.209175e-05 6.675701e-07
-1.979759e-05 -3.155368e-05 6.828595e-07
-2.124333e-05 -3.071602e-05 6.675701e-07
1.633695e-05 3.417198e-05 -1.678812e-22
-2.190102e-05 -3.013179e-05 6.828595e-07
-3.734400e-05 -4.227344e-07 6.675701e-07
-3.724749e-05 4.516595e-07 6.828595e-07
-3.705489e-05 4.657058e-06 6.675701e-07
-3.681367e-05 5.459272e-06 6.849598e-07
-1.687120e-05 -3.331840e-05 6.675701e-07
-1.760219e-05 -3.282898e-05 6.828595e-07
-3.585030e-05 -1.046464e-05 6.675701e-07
-3.599285e-05 -9.596562e-06 6.828595e-07
-3.693997e-05 -5.494680e-06 6.675701e-07
1.594764e-05 3.435539e-05 -1.678812e-22
-3.696321e-05 -4.615283e-06 6.828595e-07
[...]
POINT_DATA 7221
VECTORS 10.000GHz_fone_imag double
3.810325e+10 -3.064729e+10 -3.179021e+08
2.564588e+10 -4.605910e+10 -1.420268e+08
-2.772677e+10 -5.011849e+10 1.578852e+08
-2.538278e+10 -4.670119e+10 1.451845e+08
5.215826e+10 -1.843647e+10 2.941895e+08
-5.053780e+10 -1.736619e+10 3.070527e+08
-3.717988e+10 -4.030416e+10 -7.528304e+08
-3.633782e+10 -4.198705e+10 -2.698145e+08
5.101846e+10 -1.291766e+10 1.035055e+09
5.117099e+10 7.960606e+09 9.272797e+08
4.817982e+10 -1.969693e+10 3.766450e+08
3.821462e+10 -3.141216e+10 -7.170068e+08
-4.941526e+10 -1.997463e+10 -3.800548e+08
5.328222e+10 4.370095e+09 -1.884746e+08
5.244379e+10 5.266893e+09 -6.301178e+08
5.310510e+10 5.787178e+09 -9.929009e+08
4.998105e+10 1.608257e+10 -2.024421e+07
5.060832e+10 1.452509e+10 1.126282e+08
5.370025e+10 1.257614e+10 -6.590778e+08
3.790341e+10 3.725701e+10 3.524252e+08
3.824876e+10 3.497743e+10 -5.789017e+08
2.186091e+10 -4.680027e+10 1.708536e+08
3.888275e+10 -3.132744e+10 8.546853e+08
-2.219589e+10 -4.663466e+10 1.593497e+08
3.479162e+10 -4.522595e+10 -1.284504e+09
-5.302178e+10 -2.110603e+10 8.640966e+08
5.426759e+10 -2.208413e+10 8.067436e+08
-1.914050e+10 -4.968722e+10 -8.495804e+08
1.969621e+10 -4.926659e+10 -6.897451e+08
3.556410e+10 3.933990e+10 4.203117e+08
-1.422759e+10 -4.996462e+10 -3.632100e+08
1.424770e+10 -4.975574e+10 -7.612233e+08
-1.156619e+10 -5.141549e+10 1.826506e+08
3.894926e+10 -2.974655e+10 1.808969e+08
-2.096313e+10 -4.893339e+10 -4.592594e+07
2.086578e+10 -4.912539e+10 -5.692312e+07
-2.234989e+10 -4.778538e+10 6.412412e+08
2.215351e+10 -4.757929e+10 5.007819e+08
1.011250e+10 -5.515273e+10 -3.354305e+08
-4.661043e+10 -2.603223e+10 8.527173e+08
4.739152e+10 -2.714198e+10 1.016610e+09
6.880282e+09 -5.579512e+10 1.586263e+09
4.043809e+10 3.184666e+10 -1.143450e+08
4.495490e+10 3.397849e+10 7.754051e+08
4.086801e+10 -2.939739e+10 -1.140746e+08
-5.365199e+10 -1.526964e+10 -2.606377e+07
5.435973e+10 -1.401482e+10 -2.537716e+08
-4.839831e+10 -2.856748e+10 -1.253447e+09
4.674653e+10 -2.958348e+10 -7.666228e+08
-4.562324e+09 -5.160307e+10 -1.112244e+09
4.413720e+10 -3.276536e+10 1.868894e+08
-4.300326e+10 -3.236158e+10 1.581538e+08
-8.458467e+09 -5.327737e+10 3.688082e+08
4.886308e+10 2.170710e+10 -7.877956e+08
4.724836e+10 2.928895e+10 4.177998e+08
3.961732e+10 -2.870024e+10 -2.665845e+08
4.533637e+10 3.221773e+10 -8.221795e+08
2.855761e+10 -4.466749e+10 3.424654e+08
-2.813848e+10 -4.472007e+10 4.239640e+08
-1.128730e+10 -5.116734e+10 -1.086398e+09
-2.735560e+10 -4.553252e+10 1.844965e+09
2.740372e+10 -4.614132e+10 1.446432e+09
-1.708530e+10 -5.076338e+10 7.269982e+08
1.733668e+10 -5.002991e+10 9.575348e+08
2.412979e+09 -5.504124e+10 1.713807e+09
4.971078e+10 -1.061444e+10 -8.479440e+08
3.947566e+10 -2.859401e+10 -4.470946e+08
-1.102133e+10 -5.242181e+10 4.118429e+08
5.155448e+10 -8.578684e+07 -5.845952e+08
5.152724e+10 1.283602e+09 4.855067e+08
-5.042863e+10 -2.293427e+10 -7.762565e+08
3.585180e+10 -3.721973e+10 1.065888e+09
4.375639e+10 2.880301e+10 6.163158e+08
4.788075e+10 1.896851e+10 5.699359e+08
4.720209e+10 2.339200e+10 -6.860659e+08
8.246511e+09 -5.213527e+10 -9.121618e+08
8.734122e+08 -5.273664e+10 9.778920e+08
4.053687e+10 -2.812136e+10 -1.591497e+08
-1.009136e+09 -5.432582e+10 1.763519e+09
3.313386e+10 -4.077749e+10 1.967242e+07
3.865312e+10 3.963069e+10 2.218344e+08
-5.079970e+10 -2.469170e+10 1.275627e+08
3.594800e+10 3.961940e+10 6.551887e+08
5.126310e+10 -7.887879e+09 -1.891411e+08
4.121986e+10 3.252106e+10 -5.013319e+08
3.461877e+10 4.391776e+10 -2.928788e+08
3.651986e+10 4.620477e+10 -1.209975e+09
4.723079e+10 2.184448e+10 -9.281238e+08
4.139198e+10 -2.821265e+10 -2.624772e+08
-3.973556e+10 -3.384030e+10 7.106987e+08
3.844895e+10 -3.206735e+10 4.467774e+08
5.094006e+10 3.122522e+09 5.114428e+08
4.823419e+10 1.504132e+10 -7.196272e+08
1.505903e+10 -4.866256e+10 4.827022e+08
-1.483937e+10 -4.833619e+10 5.024637e+08
3.174883e+10 4.252729e+10 -4.375320e+08
6.183732e+09 -5.130173e+10 -4.085898e+08
5.342567e+10 6.386987e+09 5.608403e+08
4.887331e+10 1.120045e+10 3.662349e+08
4.082589e+10 -2.681465e+10 -7.146585e+08
-3.765806e+10 -3.522484e+10 -9.189727e+08
3.758619e+10 -3.591347e+10 1.467107e+08
5.418381e+10 1.348597e+10 -1.382422e+08
5.008733e+10 -1.972404e+10 2.405240e+08
-4.865222e+10 -1.845171e+10 7.033473e+08
3.194240e+10 -4.194607e+10 -3.412632e+08
-1.653560e+10 -5.203510e+10 1.452642e+08
1.560016e+10 -5.437996e+10 1.327230e+08
-3.057540e+10 -4.117014e+10 -3.132115e+08
3.009955e+10 -4.266217e+10 -4.405852e+08
4.301273e+10 -2.553819e+10 2.845068e+08
-2.991715e+09 -5.390871e+10 3.762499e+08
4.085028e+10 3.852548e+10 3.567797e+08
4.747112e+10 -2.501679e+10 5.981502e+07
4.686015e+09 -5.525972e+10 4.258464e+08
4.640988e+10 2.678328e+10 2.354690e+08
5.508431e+10 -2.197196e+09 -9.438594e+08
5.048330e+10 -2.329091e+10 -1.267343e+07
4.767945e+10 -3.102837e+10 -2.642246e+08
-4.782446e+10 -3.122453e+10 3.356349e+08
-4.907830e+10 -1.203208e+10 -6.595365e+08
4.180026e+10 -2.742188e+10 1.096602e+09
5.473664e+10 3.492250e+09 -8.323922e+07
5.298561e+10 1.697424e+10 7.442019e+08
-7.244172e+09 -5.370739e+10 -4.674886e+08
-2.983681e+10 -4.847252e+10 -7.731358e+08
2.994157e+10 -4.768558e+10 -1.270630e+09
5.559038e+10 6.313737e+09 -9.049926e+08
3.222926e+10 4.246367e+10 -6.595519e+08
-4.350647e+10 -3.664015e+10 7.627271e+08
-3.984343e+10 -3.952600e+10 6.956956e+08
4.299949e+10 -3.524273e+10 5.431273e+08
4.239607e+10 -2.530694e+10 2.083961e+09
4.158819e+10 -3.935744e+10 3.071333e+08
4.933304e+10 -1.400007e+10 3.038758e+07
4.995939e+10 1.960430e+10 -1.849888e+08
-6.368262e+09 -5.510780e+10 2.643029e+08
4.683489e+10 -2.419383e+10 1.043566e+09
5.511135e+10 7.801638e+09 -1.611317e+09
5.499814e+10 9.590957e+07 -6.241161e+08
4.788944e+10 2.557676e+10 5.495261e+08
1.113355e+10 -5.156287e+10 2.140292e+07
-3.359394e+10 -3.936382e+10 4.872221e+08
4.240780e+10 -2.606822e+10 -2.302089e+08
2.036077e+10 -4.672137e+10 6.385300e+08
-2.035331e+10 -4.666393e+10 4.391340e+08
-5.488898e+10 -1.034927e+10 3.851572e+08
-5.368834e+10 -1.413843e+10 -3.947206e+08
2.988150e+10 4.782397e+10 -8.322055e+07
-5.553874e+10 -6.601494e+09 2.671879e+08
-5.528758e+10 -3.117035e+09 -2.129235e+08
-5.261833e+10 1.212625e+10 5.062079e+08
-5.471927e+10 5.790857e+09 2.045127e+08
-6.350388e+09 5.590600e+10 7.780374e+08
4.350019e+10 -2.460536e+10 1.033783e+09
-5.204401e+10 1.915825e+10 -2.527676e+08
-5.346777e+10 1.601115e+10 3.930443e+08
-5.305440e+10 2.371123e+10 3.971196e+08
-1.295175e+10 5.338369e+10 2.961069e+08
-3.593677e+10 4.519079e+10 1.501951e+08
-2.248145e+10 5.327593e+10 9.733321e+07
1.566125e+10 5.220107e+10 3.698125e+08
4.994729e+09 5.523974e+10 5.919785e+08
-3.031143e+10 4.484517e+10 4.811948e+08
8.843044e+09 5.373664e+10 1.908262e+08
4.301647e+10 -2.463380e+10 2.121165e+09
2.239067e+10 4.896245e+10 6.230436e+08
-4.861359e+10 2.668246e+10 5.749613e+08
2.590465e+10 4.898957e+10 -4.245733e+08
-1.850386e+09 5.492189e+10 2.296878e+08
-4.208646e+10 4.009020e+10 3.844023e+08
-2.493067e+10 5.007558e+10 2.937419e+08
-5.557965e+10 9.117381e+09 8.037762e+08
1.172420e+10 5.543306e+10 -6.226331e+07
1.989246e+10 5.462150e+10 3.803169e+08
-4.582106e+10 3.020496e+10 2.187496e+08
4.254868e+10 -2.408909e+10 -4.063837e+08
-4.367279e+10 3.327627e+10 2.410600e+08
-1.755982e+10 5.342926e+10 7.933993e+08
1.914006e+09 5.491330e+10 2.678365e+08
-2.822745e+10 4.817907e+10 3.837984e+08
-9.284495e+09 5.412318e+10 2.394355e+08
-3.594171e+10 4.014901e+10 5.855940e+08
-4.131604e+10 3.506670e+10 4.901098e+08
-5.806276e+10 6.389976e+08 3.576919e+08
4.154216e+10 3.000605e+10 1.069190e+08
-3.150535e+10 -4.011564e+10 -8.748736e+08
4.553288e+10 -2.254246e+10 1.436887e+09
-2.994167e+10 -4.112201e+10 -2.229678e+07
5.374781e+10 -1.043134e+10 -1.214673e+08
-4.496221e+09 -5.139847e+10 -8.448927e+08
3.677009e+10 4.183958e+10 3.213262e+08
-2.399674e+10 -5.038091e+10 -2.377089e+08
2.380896e+10 -4.985547e+10 -1.219977e+08
2.332723e+10 -4.976974e+10 3.519635e+08
-2.351686e+10 -5.000596e+10 3.807041e+08
-4.594314e+10 -2.318485e+10 1.135823e+09
5.471985e+10 2.033927e+09 -1.320413e+09
4.374399e+10 -2.303565e+10 5.477607e+08
5.089484e+10 1.831417e+10 1.449581e+09
-4.703165e+10 -2.177239e+10 -1.355485e+09
3.362612e+10 4.485088e+10 5.196398e+08
-3.624877e+10 -4.240440e+10 -6.290940e+08
4.026287e+10 3.543331e+10 9.094293e+08
-4.982268e+10 -2.682114e+10 6.192571e+08
-3.467893e+10 -3.639184e+10 8.086787e+08
3.601244e+10 -3.750428e+10 -1.417687e+08
2.039976e+10 -5.252253e+10 -3.210534e+07
-2.034138e+10 -5.345516e+10 -2.273177e+08
4.434658e+10 -2.082126e+10 -5.748187e+07
5.517917e+10 -2.224564e+09 -8.190554e+08
-5.175093e+10 -6.083601e+09 1.291699e+09
-5.516924e+10 -8.145956e+09 -3.812946e+08
-5.038159e+10 1.519891e+10 5.166749e+08
-5.122513e+10 1.351111e+10 -1.004407e+09
-5.261994e+10 6.366997e+08 3.982963e+08
-5.279310e+10 -3.155521e+08 -7.295839e+08
1.102235e+10 5.032191e+10 1.301547e+09
9.114004e+09 5.448275e+10 -1.150799e+08
-4.158423e+10 3.246583e+10 3.229811e+07
4.377163e+10 -2.186335e+10 3.868662e+08
-4.061319e+10 3.416263e+10 8.994653e+08
-4.887611e+10 1.816621e+10 1.229452e+09
-5.277718e+10 1.804498e+10 -3.846977e+08
2.404924e+09 5.263510e+10 2.047521e+07
4.400585e+09 5.239236e+10 7.895776e+08
-5.155306e+10 1.069480e+10 -8.092785e+07
-5.141727e+10 1.196260e+10 6.076976e+08
-4.681901e+10 2.705376e+10 -5.482291e+08
-4.380682e+10 2.849704e+10 8.704998e+08
-4.393642e+10 2.988325e+10 1.783753e+08
4.404613e+10 -2.221231e+10 -9.842665e+07
-4.237641e+10 3.137638e+10 2.309169e+08
-9.200896e+08 5.307602e+10 1.938924e+08
1.017198e+09 5.264326e+10 2.279041e+08
6.401226e+09 5.446637e+10 -5.608687e+08
8.707314e+09 5.409303e+10 6.967883e+08
-4.654300e+10 2.342052e+10 -6.357560e+07
-4.584035e+10 2.495802e+10 3.801454e+08
-1.438071e+10 5.056737e+10 -1.231292e+08
-1.218457e+10 5.045036e+10 6.011097e+08
-8.288955e+09 5.202413e+10 2.035482e+07
4.564787e+10 -2.181220e+10 6.391238e+08
-6.364844e+09 5.246792e+10 8.882203e+08
-1.777366e+10 5.254218e+10 3.539563e+08
-1.587883e+10 4.950500e+10 1.124413e+09
1.819338e+10 4.939452e+10 4.832366e+08
1.668748e+10 4.995355e+10 -9.335339e+08
-3.271984e+10 4.129471e+10 4.663902e+08
-3.430438e+10 4.078006e+10 -1.055511e+09
-3.794274e+09 5.240433e+10 -1.204211e+08
-1.649395e+09 5.186642e+10 5.886057e+08
-3.799790e+10 3.646739e+10 4.739789e+08
4.612934e+10 -1.906988e+10 1.071714e+08
-3.935573e+10 3.550901e+10 -1.007591e+09
-5.174575e+10 2.848443e+09 -1.419585e+08
-5.139220e+10 5.424172e+09 6.196229e+08
-1.177736e+10 5.181847e+10 1.713168e+08
-9.626768e+09 5.183650e+10 2.369746e+08
-2.012848e+10 4.818811e+10 1.684691e+09
-2.285914e+10 5.100714e+10 -3.779669e+08
2.475040e+10 4.643504e+10 4.477514e+08
2.366025e+10 4.774866e+10 -1.063741e+09
2.793283e+10 4.458302e+10 1.747556e+08
4.510580e+10 -2.144461e+10 7.619038e+08
2.673517e+10 4.612026e+10 -5.399649e+08
-2.650648e+10 4.550523e+10 4.897716e+08
-2.833174e+10 4.480836e+10 -9.993385e+08
-3.129724e+10 4.580953e+10 3.524566e+08
-2.863972e+10 4.344771e+10 1.146684e+09
-5.230901e+10 6.111735e+09 1.996970e+07
-5.224193e+10 8.121603e+09 8.840731e+08
2.003295e+10 4.809666e+10 -4.477731e+07
2.169567e+10 4.756764e+10 3.970309e+08
-3.605111e+10 3.761881e+10 -5.837118e+07
4.551938e+10 -1.793502e+10 3.939425e+08
-3.488145e+10 3.891094e+10 3.962167e+08
-2.320291e+10 4.673893e+10 1.301411e+09
-2.628723e+10 4.918816e+10 -3.830478e+08
1.353702e+10 5.026939e+10 -1.214120e+06
1.505874e+10 5.030735e+10 5.001358e+08
2.936306e+10 4.287623e+10 -7.509925e+08
-4.806967e+10 2.162855e+10 4.220111e+08
-4.865811e+10 2.063619e+10 -7.291626e+08
-5.211486e+10 -2.701389e+09 1.667277e+09
-5.566195e+10 -4.323197e+09 -3.764287e+08
4.581819e+10 -1.899558e+10 8.493821e+08
-5.201487e+10 -9.599439e+09 3.960849e+08
-5.349738e+10 -1.239457e+10 5.611945e+07
1.634786e+09 -5.406263e+10 8.571337e+08
-6.694905e+08 -5.449020e+10 1.415982e+08
4.095723e+10 -2.998163e+10 3.608603e+08
-4.007562e+10 -3.122400e+10 -3.308912e+08
4.758974e+10 1.745971e+10 2.824075e+08
4.094280e+10 3.081075e+10 4.514607e+08
4.742979e+10 2.432304e+10 2.108843e+08
4.676224e+10 -2.332805e+10 2.690881e+08
4.546182e+10 -1.843913e+10 7.167078e+08
-4.531383e+10 -2.425856e+10 1.468001e+09
-2.045621e+10 -5.232279e+10 1.453017e+08
2.050949e+10 -5.259657e+10 1.620936e+08
1.821086e+10 -4.807965e+10 1.932173e+08
-1.820430e+10 -4.807895e+10 3.461159e+08
4.969495e+10 -2.477618e+10 1.051985e+09
-5.513743e+10 -9.672010e+09 7.145094e+08
3.149673e+10 4.840328e+10 9.578141e+08
-5.550029e+10 -2.245693e+09 2.703997e+08
-5.320094e+10 1.323964e+10 1.353337e+09
4.660927e+10 -1.776858e+10 -4.986193e+08
-4.917827e+10 2.324953e+10 4.893973e+08
-3.310956e+10 4.337457e+10 4.264947e+08
-5.721978e+10 6.333961e+09 1.836538e+09
-5.218554e+10 1.647627e+10 6.237664e+08
-3.030084e+10 4.608519e+10 3.050766e+08
-5.146713e+10 1.988258e+10 -4.867118e+08
-2.092283e+10 5.174643e+10 1.747892e+08
-4.732792e+10 3.125953e+10 5.596982e+08
1.658179e+10 5.192604e+10 1.610278e+09
2.368136e+10 4.948882e+10 1.478209e+09
4.708237e+10 -1.754003e+10 8.003949e+08
-4.782930e+10 2.717424e+10 1.249820e+09
-1.324643e+10 5.572521e+10 1.791472e+09
1.968236e+10 5.063251e+10 5.105187e+08
-4.466672e+10 3.438109e+10 1.482061e+09
1.314323e+10 5.521231e+10 1.459899e+08
-5.916595e+09 5.497047e+10 -2.049500e+08
2.632858e+10 4.741176e+10 4.890205e+08
-1.678141e+09 5.748433e+10 1.748224e+09
-2.428009e+10 5.004418e+10 -3.783965e+08
-5.444731e+10 9.256434e+09 -1.838016e+08
4.756987e+10 -1.704131e+10 7.262250e+08
-4.166021e+10 3.622639e+10 5.709872e+07
-3.852678e+10 3.831167e+10 5.083846e+08
9.177662e+09 5.446268e+10 6.819631e+08
2.240594e+09 5.636522e+10 1.513250e+09
-9.263618e+09 5.565204e+10 1.473823e+09
5.485024e+09 5.531805e+10 -2.012356e+08
-1.690196e+10 5.258574e+10 5.845101e+07
-2.694268e+10 4.760898e+10 6.343763e+08
-3.590384e+10 4.154526e+10 1.464917e+09
-5.438949e+10 1.778200e+09 5.224077e+08
4.688573e+10 -1.686751e+10 -2.078534e+08
-5.535376e+10 -6.001914e+09 -3.791411e+08
-5.778369e+10 -1.468645e+10 1.101081e+08
-8.786020e+09 -5.288577e+10 2.484978e+07
5.041142e+10 -1.125167e+10 -5.771818e+08
-3.600403e+10 -3.780044e+10 -9.668284e+08
4.202608e+10 -3.765947e+10 1.468631e+09
-4.115757e+10 -3.651505e+10 1.122198e+09
4.462284e+10 3.041206e+10 8.339383e+08
5.008083e+10 9.358161e+09 -8.988958e+08
5.061224e+10 -1.602254e+10 7.111139e+08
4.813371e+10 -1.495546e+10 1.122682e+09
4.897699e+10 -2.542903e+10 -1.132577e+09
4.323112e+10 2.659692e+10 -9.186024e+08
-2.428437e+10 -4.710805e+10 7.466690e+07
2.424380e+10 -4.763188e+10 2.209692e+08
-4.863008e+10 -2.118955e+10 -5.689820e+08
5.808351e+10 -4.307315e+09 -6.369996e+08
-1.225670e+10 -5.424336e+10 1.117769e+09
1.266979e+10 -5.370596e+10 1.788048e+08
4.235993e+10 -3.055726e+10 -1.039417e+09
-4.132529e+10 -3.112840e+10 -4.247238e+08
4.804084e+10 -1.583907e+10 8.259175e+08
3.215290e+10 -4.793860e+10 -1.296081e+09
-3.199877e+10 -4.774768e+10 -1.296908e+09
2.856613e+10 -4.566392e+10 2.392565e+06
-2.884676e+10 -4.599972e+10 8.545290e+07
5.189453e+10 -1.179364e+10 5.100467e+08
4.482943e+10 -2.772158e+10 -1.011149e+09
-4.480693e+10 -2.896063e+10 -8.497083e+08
5.090160e+10 -5.486870e+09 -6.033053e+08
4.888195e+10 -2.193592e+10 5.214614e+08
-1.574706e+10 -5.493742e+10 -1.053421e+08
4.857590e+10 -1.559081e+10 1.083883e+09
1.587472e+10 -5.303367e+10 -7.065402e+08
5.477381e+10 4.989587e+09 1.177942e+09
5.297501e+10 1.591671e+10 -4.489033e+08
-1.804841e+10 -5.279867e+10 -1.431012e+09
1.846098e+10 -5.306023e+10 -9.510982e+08
-9.041731e+09 -5.069734e+10 6.026735e+08
5.463993e+10 -8.452735e+09 -7.036495e+08
3.240355e+10 -3.887592e+10 -2.073223e+08
3.276543e+10 4.028478e+10 1.175725e+09
5.575175e+10 1.046959e+10 -5.486247e+08
4.847776e+10 -1.327838e+10 4.953358e+08
5.267708e+10 -9.564827e+09 -2.404504e+08
5.514422e+10 -3.303697e+09 5.080796e+07
5.154316e+10 -9.555824e+09 -1.086634e+09
4.034302e+10 3.718842e+10 1.632982e+08
5.055336e+10 -1.547397e+10 1.415481e+09
3.689989e+10 -4.226939e+10 -5.423137e+08
5.106156e+10 1.158526e+10 -2.984828e+08
5.575473e+10 1.116623e+10 -1.136099e+09
4.655752e+10 2.550609e+10 -1.103586e+09
-2.990092e+10 -4.107201e+10 -2.004908e+08
5.000183e+10 -1.360255e+10 -5.314470e+08
3.161217e+10 -4.194230e+10 5.150797e+08
5.406165e+10 1.311312e+10 1.024917e+09
5.193256e+10 -1.019065e+09 7.914099e+07
-3.218124e+10 -4.211135e+10 1.235872e+09
8.512518e+09 -5.370091e+10 -3.176396e+08
4.078955e+09 -5.163520e+10 -5.968971e+08
4.414491e+10 -3.102944e+10 1.248386e+08
-4.329412e+10 -3.217451e+10 1.574760e+08
4.809380e+10 2.631455e+10 3.605036e+08
5.137986e+10 -1.932741e+10 1.040116e+09
4.854369e+10 -1.349291e+10 -2.167647e+08
-2.479425e+10 -4.487999e+10 6.737986e+08
2.628233e+10 -4.437198e+10 5.499576e+08
3.287049e+10 4.472367e+10 1.229719e+09
-4.588214e+10 -2.196045e+10 6.701030e+08
5.032610e+10 -5.089143e+09 7.726585e+08
-1.705789e+10 -4.828140e+10 7.645551e+08
1.613475e+10 -4.874115e+10 2.680732e+08
4.970373e+10 -1.145771e+10 3.941633e+08
3.190529e+10 4.176036e+10 9.673405e+08
5.075193e+10 -6.974470e+09 1.063750e+09
4.776551e+10 -1.219017e+10 -2.732423e+08
-2.529275e+10 -4.354375e+10 -9.921599e+08
2.511278e+10 -4.322938e+10 -4.437376e+08
-4.715608e+10 -2.227634e+10 4.671647e+08
4.803844e+10 -1.939921e+10 2.795397e+08
3.049657e+10 4.185025e+10 9.240849e+08
2.713768e+10 4.345073e+10 4.092557e+05
-5.069550e+10 -8.796833e+09 2.367604e+08
-4.850842e+10 -1.513711e+10 -1.251821e+07
-4.668723e+10 1.831809e+10 3.033913e+08
-5.205894e+10 4.334626e+09 2.205240e+08
4.791167e+10 -1.140720e+10 1.833610e+08
-3.224251e+10 4.000399e+10 1.545036e+07
-5.179579e+10 5.898358e+09 3.765187e+07
-4.163653e+10 3.034851e+10 -2.875183e+08
-5.260363e+10 1.105329e+10 -5.657665e+07
-4.442726e+10 2.762216e+10 -2.644389e+07
-5.148155e+10 2.438977e+08 9.035280e+07
-3.993314e+10 3.305902e+10 2.286723e+07
-4.708321e+10 2.067276e+10 9.624220e+07
-1.339757e+10 5.028458e+10 1.301220e+08
-4.899981e+10 1.553089e+10 2.244005e+08
4.790271e+10 -1.249464e+10 1.053387e+08
-4.966686e+09 4.988178e+10 1.361582e+08
-5.091392e+10 1.185003e+10 3.143275e+08
3.845735e+09 5.185425e+10 3.285254e+07
-1.183696e+10 5.070579e+10 4.527843e+07
-1.937828e+10 4.940612e+10 1.944956e+08
-2.455704e+10 4.624424e+10 3.372830e+08
-6.758879e+09 5.154471e+10 2.850805e+07
-2.529671e+10 4.482854e+10 2.199280e+08
1.420692e+10 4.989679e+10 8.081509e+07
1.512837e+10 4.787329e+10 2.196697e+08
4.865883e+10 -9.638007e+09 1.606462e+08
-3.736492e+10 3.525157e+10 1.629742e+07
-2.129331e+10 4.749090e+10 3.676208e+08
9.164581e+09 4.972236e+10 -9.004348e+05
8.315335e+09 5.023821e+10 -4.629753e+08
-3.571754e+10 3.573969e+10 2.751342e+08
6.703531e+08 5.156259e+10 -2.821898e+08
-2.901795e+10 4.342202e+10 2.754918e+08
2.088939e+10 4.758266e+10 3.049643e+07
-3.521720e+10 3.814883e+10 3.530357e+07
-2.218934e+10 4.628607e+10 2.262586e+08
4.981617e+10 -1.160244e+10 8.434343e+08
1.118904e+10 5.168665e+10 -3.825981e+07
1.739443e+10 4.844742e+10 2.106573e+07
2.453970e+10 4.416984e+10 3.092807e+08
-5.108560e+10 -5.313292e+09 2.279077e+08
2.373528e+10 4.558410e+10 1.512572e+07
-3.202903e+10 4.243581e+10 1.985157e+08
5.265796e+09 5.134928e+10 2.033213e+08
1.191655e+10 4.987338e+10 3.682591e+08
-1.731726e+10 4.991724e+10 5.083379e+06
-1.359690e+09 5.207973e+10 5.425357e+07
4.867206e+10 -9.718730e+09 6.526411e+06
1.846831e+10 4.711365e+10 2.822648e+08
-5.049857e+10 -1.145920e+10 4.027936e+07
-3.447461e+10 3.899263e+10 2.629538e+08
-4.320522e+10 2.898780e+10 4.217873e+07
2.189347e+10 4.725133e+10 2.752475e+08
-8.435428e+09 5.148204e+10 5.706843e+07
-4.124980e+10 3.193878e+10 5.157581e+07
-4.957056e+10 1.704881e+10 3.650862e+08
-2.783703e+09 5.191520e+10 1.066316e+08
-5.021343e+10 -1.768105e+09 3.081204e+08
4.957858e+10 -8.643595e+09 5.457835e+08
-9.794478e+09 5.056603e+10 -2.732498e+08
-4.521189e+10 2.553115e+10 2.051724e+08
-4.927209e+10 8.785980e+09 1.347851e+08
2.242787e+09 5.215850e+10 4.695006e+07
-1.499807e+10 4.778647e+10 1.453211e+08
-5.068576e+10 1.828259e+09 2.681287e+08
-3.010082e+10 4.341815e+10 3.802384e+06
-5.180269e+10 -7.535240e+09 3.361213e+08
-5.012654e+10 -1.302373e+10 -3.247073e+08