# vtk DataFile Version 2.0
Electric current density generated by TTH
ASCII
DATASET UNSTRUCTURED_GRID
POINTS 1718 double
1.939296e-05 -4.749906e-21 -4.679505e-22
1.734676e-05 8.670474e-06 -4.679505e-22
7.305871e-06 -1.796417e-05 -4.679505e-22
1.555665e-05 -1.121485e-05 8.811238e-07
8.700076e-07 1.917649e-05 8.444498e-07
1.481629e-05 -1.229745e-05 -7.131918e-07
1.071665e-05 1.588114e-05 -9.166014e-07
-2.807656e-06 1.539838e-05 -5.483767e-07
7.781131e-06 -1.544780e-05 1.901518e-06
9.475812e-06 -1.239022e-05 3.170599e-07
6.061429e-06 1.562176e-05 -1.767275e-06
4.197637e-06 1.611840e-05 -1.722583e-06
-1.422907e-05 1.289372e-05 -8.327250e-07
8.220957e-06 -1.756425e-05 -4.679505e-22
3.173956e-06 1.544026e-05 -8.331972e-07
1.118509e-05 -1.562586e-05 -8.019798e-07
8.005785e-06 1.346422e-05 -5.878472e-07
-1.197522e-05 -1.096623e-05 1.449476e-06
1.536927e-05 9.858526e-06 1.745433e-06
-4.477846e-09 -1.797491e-05 -1.845985e-06
4.888193e-06 1.859225e-05 -7.853082e-07
-1.089407e-05 -1.402970e-05 1.889882e-06
-1.577295e-05 5.776514e-06 -1.783545e-06
-6.028257e-06 -1.819468e-05 9.007176e-07
9.114242e-06 -1.711776e-05 -4.679505e-22
-3.998178e-06 -1.884412e-05 -6.910752e-07
1.905369e-05 -2.259358e-06 8.625436e-07
1.905369e-05 2.259358e-06 8.625436e-07
9.346164e-06 -1.676933e-05 -8.409147e-07
9.861199e-06 -1.332659e-05 1.683109e-06
-1.380662e-05 1.141316e-05 1.861350e-06
1.423140e-06 -1.684126e-05 -1.820027e-06
2.497491e-06 1.578109e-05 1.177039e-06
-2.710819e-06 1.779141e-05 -1.840020e-06
1.543505e-05 -9.838024e-06 1.724994e-06
9.983359e-06 -1.662587e-05 -4.679505e-22
-5.759573e-06 -1.833883e-05 -7.899517e-07
1.371997e-05 -1.214859e-05 -1.714448e-06
1.589214e-05 -7.386088e-06 1.910085e-06
-1.445050e-05 -7.771885e-06 -1.579756e-06
-1.113609e-06 1.555983e-05 3.245583e-07
-1.495089e-05 4.889822e-06 7.615795e-07
7.033482e-06 1.440571e-05 -1.242468e-06
3.912237e-06 -1.735452e-05 1.885627e-06
-5.472100e-06 -1.697645e-05 1.877437e-06
1.725194e-06 -1.571358e-05 9.200837e-07
1.082600e-05 -1.608990e-05 -4.679505e-22
-6.771822e-06 1.440341e-05 -1.093730e-06
-1.298075e-05 9.172399e-06 -1.062317e-06
4.473272e-06 -1.758840e-05 -1.790743e-06
-1.903231e-05 2.585318e-06 8.219961e-07
3.535941e-06 1.677899e-05 -1.880973e-06
-9.458130e-08 -1.633347e-05 -1.526687e-06
-1.490832e-05 1.206714e-05 8.765116e-07
6.426707e-06 -1.696567e-05 -1.793041e-06
5.231030e-06 -1.845255e-05 8.771931e-07
1.351754e-05 1.363775e-05 -8.328543e-07
1.163993e-05 -1.551125e-05 -4.679505e-22
-1.464270e-05 8.683494e-06 -1.854707e-06
-1.152292e-05 1.062700e-05 6.197280e-07
-1.626559e-05 3.224961e-07 1.475577e-06
1.330193e-05 -8.869268e-06 1.189926e-06
1.132549e-06 1.920005e-05 -7.643091e-07
-1.901913e-06 1.840506e-05 -1.615076e-06
9.047650e-06 1.570244e-05 -1.800124e-06
8.914921e-06 -1.281643e-05 3.899028e-07
-1.018340e-05 -1.232985e-05 1.194690e-06
-1.538516e-05 -5.286102e-06 1.474885e-06
1.242300e-05 -1.489148e-05 -4.679505e-22
1.202019e-06 1.617249e-05 1.431497e-06
5.886555e-06 -1.830552e-05 -7.750117e-07
-8.180655e-06 -1.448372e-05 -1.712012e-06
6.743643e-06 -1.800568e-05 7.786519e-07
9.963907e-06 1.367125e-05 1.824949e-06
-2.130264e-06 1.668060e-05 -1.790590e-06
-1.654851e-05 -3.558427e-06 -1.827970e-06
-1.205223e-05 9.982761e-06 5.396384e-07
-1.647554e-05 1.296012e-06 -1.654182e-06
1.670121e-05 7.047776e-06 -1.798399e-06
1.317312e-05 -1.423221e-05 -4.679505e-22
-1.276549e-05 -1.435907e-05 8.094314e-07
8.602386e-06 1.721053e-05 -7.474813e-07
-1.565129e-05 -1.644007e-06 -7.779095e-07
1.700203e-05 -8.965299e-06 7.922304e-07
9.968973e-06 1.638993e-05 -8.695950e-07
-1.651610e-05 1.912603e-06 1.708092e-06
-1.527877e-05 1.008744e-05 -1.722779e-06
-1.411129e-05 7.959311e-06 -1.417296e-06
-1.595310e-05 -3.068331e-06 -1.456102e-06
-1.731336e-05 8.314846e-06 -8.232660e-07
1.388831e-05 -1.353521e-05 -4.679505e-22
1.058784e-05 1.600123e-05 8.628604e-07
1.451547e-05 -1.083007e-05 -1.804371e-06
-1.402216e-05 -1.313651e-05 8.067222e-07
1.801485e-06 -1.911879e-05 -8.295542e-07
1.649858e-05 -9.906922e-06 7.384550e-07
-1.583922e-05 -9.291221e-06 1.695407e-06
-1.724325e-05 -8.416961e-06 8.611429e-07
1.188232e-05 1.511678e-05 7.771713e-07
1.190878e-05 1.036884e-05 -8.870154e-07
-1.560595e-05 1.174792e-06 -5.411826e-07
1.456668e-05 -1.280231e-05 -4.679505e-22
1.181020e-05 -1.519625e-05 7.349214e-07
-1.363368e-05 -1.349956e-05 -8.642234e-07
-1.883233e-05 -3.654004e-06 -8.696905e-07
7.671766e-06 -1.366704e-05 -6.134899e-07
-1.812641e-05 6.405943e-06 7.831982e-07
-9.583885e-06 1.664276e-05 -8.263690e-07
8.764205e-06 1.380829e-05 1.542317e-06
1.866847e-05 -4.608389e-06 -7.746837e-07
7.448527e-06 1.659497e-05 -1.774720e-06
-1.560815e-05 -5.842666e-07 -4.221666e-07
1.687741e-05 9.551967e-06 -4.679505e-22
1.520641e-05 -1.203546e-05 -4.679505e-22
-1.591081e-05 4.281147e-06 -1.624434e-06
1.307524e-06 -1.565839e-05 -7.204214e-07
-1.334922e-05 9.689281e-06 -1.635592e-06
1.867650e-05 4.592649e-06 -7.655253e-07
1.093155e-05 -1.451876e-05 -1.781000e-06
1.415157e-05 8.955494e-06 1.763414e-06
-1.039290e-05 1.450811e-05 -1.875540e-06
-3.445097e-06 1.545821e-05 -9.717659e-07
9.854227e-06 -1.645566e-05 8.754660e-07
1.277028e-05 1.436884e-05 7.866232e-07
1.580582e-05 -1.123669e-05 -4.679505e-22
-7.856394e-06 -1.699697e-05 -1.451402e-06
9.895123e-07 1.804810e-05 1.816264e-06
-2.926554e-06 -1.789381e-05 -1.796894e-06
1.484295e-05 6.578741e-06 1.447595e-06
2.431602e-06 1.590799e-05 -1.311137e-06
8.018795e-07 1.559261e-05 3.953840e-07
5.304050e-06 -1.627508e-05 1.875394e-06
1.909759e-05 1.871415e-06 -8.588076e-07
1.909759e-05 -1.871415e-06 -8.588076e-07
-1.895777e-05 3.327542e-06 7.309968e-07
1.636331e-05 -1.040813e-05 -4.679505e-22
-2.956326e-06 1.533400e-05 4.100495e-07
-1.399709e-05 7.854038e-06 1.264345e-06
9.001252e-06 1.524256e-05 1.897900e-06
-5.283869e-06 1.537247e-05 -1.464308e-06
-1.790566e-06 1.912898e-05 8.103570e-07
1.676138e-05 -6.941093e-06 -1.793183e-06
-1.787831e-05 -7.016521e-06 8.245623e-07
-1.441667e-05 -8.918590e-06 1.835545e-06
-1.252623e-05 1.077985e-05 -1.653980e-06
-1.724397e-05 -6.106021e-06 -1.730022e-06
1.687741e-05 -9.551967e-06 -4.679505e-22
-1.573632e-05 5.424261e-07 7.961975e-07
1.594381e-06 1.575423e-05 -9.670886e-07
-1.742789e-05 -1.153371e-06 1.910482e-06
1.548597e-05 -9.350627e-06 -1.811354e-06
-1.124645e-05 1.556604e-05 8.289703e-07
1.402762e-05 1.314857e-05 7.799342e-07
6.080660e-06 -1.447370e-05 -6.856197e-07
3.852063e-06 1.515271e-05 4.858634e-07
-6.555382e-06 1.805956e-05 8.105199e-07
-9.081378e-06 -1.448158e-05 1.870549e-06
1.734676e-05 -8.670474e-06 -4.679505e-22
8.718954e-07 -1.675291e-05 1.774994e-06
3.267908e-06 -1.522618e-05 -6.366127e-08
1.825217e-05 -1.788570e-06 -1.707468e-06
1.825217e-05 1.788570e-06 -1.707468e-06
-1.661258e-05 2.720478e-06 1.797107e-06
7.574479e-06 1.387107e-05 9.135242e-07
-1.182016e-05 -1.266779e-05 1.904136e-06
1.349040e-05 -1.373434e-05 -7.213146e-07
1.617607e-05 7.568798e-07 1.410537e-06
1.617607e-05 -7.568798e-07 1.410537e-06
1.777010e-05 -7.765989e-06 -4.679505e-22
-1.139437e-05 -1.099864e-05 -9.705240e-07
-6.939171e-06 -1.498316e-05 -1.645775e-06
5.673587e-06 1.731244e-05 -1.763104e-06
-9.112019e-06 -1.343331e-05 -1.444666e-06
-4.711806e-06 -1.564546e-05 -1.531053e-06
5.972193e-06 1.827557e-05 -7.796660e-07
-1.554748e-05 -7.049290e-06 1.865715e-06
-1.134486e-05 1.454058e-05 1.651665e-06
4.590243e-06 1.780277e-05 -1.683900e-06
1.369556e-05 -7.623959e-06 6.180977e-07
1.814632e-05 -6.840909e-06 -4.679505e-22
-1.372814e-05 8.804756e-06 1.507799e-06
1.206381e-05 -1.156080e-05 -1.746969e-06
1.573900e-05 7.211730e-06 1.902989e-06
-6.185468e-06 -1.677715e-05 -1.868496e-06
1.586805e-05 8.782479e-06 -1.795155e-06
-5.874507e-06 -1.552787e-05 -1.695580e-06
-1.814098e-05 2.307308e-06 1.732819e-06
-1.849756e-05 -2.342179e-06 -1.515917e-06
1.244459e-05 -1.373639e-05 -1.594272e-06
6.729264e-06 1.700828e-05 1.730960e-06
1.847442e-05 -5.897688e-06 -4.679505e-22
-1.635718e-05 -4.415187e-06 -1.832703e-06
-4.132959e-06 -1.601117e-05 1.659665e-06
-7.714218e-06 1.765164e-05 -6.908510e-07
-1.738781e-05 -5.028386e-06 -1.807882e-06
1.182092e-05 1.106334e-05 -1.407523e-06
-7.225879e-06 1.461657e-05 1.504737e-06
1.919002e-05 -8.437801e-07 8.189196e-07
1.919002e-05 8.437801e-07 8.189196e-07
-4.631018e-06 -1.506117e-05 -8.206150e-07
1.251092e-05 -1.005772e-05 -1.267047e-06
1.875353e-05 -4.938828e-06 -4.679505e-22
-6.807993e-06 -1.416182e-05 -7.212804e-07
7.676749e-06 -1.765965e-05 7.102109e-07
6.375565e-06 -1.728460e-05 1.663008e-06
-1.676571e-05 -2.503863e-06 1.835347e-06
-1.850954e-05 5.210127e-06 7.747149e-07
-1.125126e-05 1.088611e-05 -5.594685e-07
1.277445e-05 -1.274186e-05 -1.826528e-06
1.327493e-05 1.133367e-05 -1.910356e-06
-1.581169e-05 1.094690e-05 -7.690704e-07
1.099491e-05 1.368004e-05 -1.909328e-06
1.898291e-05 -3.966871e-06 -4.679505e-22
-1.637261e-05 -9.903634e-08 -1.555383e-06
3.928374e-06 1.549045e-05 -1.181271e-06
1.253582e-05 1.361873e-05 -1.610735e-06
-1.481440e-05 -6.146749e-06 -1.251683e-06
-8.102750e-06 1.643630e-05 -1.714705e-06
-6.256694e-06 1.566760e-05 -1.809972e-06
3.651267e-06 -1.611158e-05 -1.650524e-06
1.073451e-05 1.306020e-05 1.821393e-06
1.454925e-05 -8.322383e-06 1.769259e-06
2.367562e-06 1.906022e-05 8.228259e-07
1.636331e-05 1.040813e-05 -4.679505e-22
1.916195e-05 -2.984395e-06 -4.679505e-22
-1.296100e-05 8.649312e-06 1.963910e-07
-4.659658e-06 -1.495571e-05 5.886108e-07
-9.657076e-07 -1.554411e-05 9.205582e-08
-1.745818e-05 -5.605652e-06 1.709236e-06
-9.348710e-06 1.257940e-05 6.130857e-07
-4.503011e-06 1.696823e-05 1.909152e-06
4.310762e-06 -1.520628e-05 -9.155090e-07
-1.525857e-05 -3.938408e-06 -8.239280e-07
1.534376e-05 -1.162455e-05 -7.252317e-07
-1.421983e-05 -7.120320e-06 -1.074886e-06
1.929018e-05 -1.994004e-06 -4.679505e-22
1.140917e-05 -1.105014e-05 1.045273e-06
2.023736e-06 1.912109e-05 -7.768795e-07
-1.919375e-05 1.553690e-06 -7.090283e-07
-5.229329e-06 1.625687e-05 1.867094e-06
1.817072e-05 3.597555e-06 1.602027e-06
1.817072e-05 -3.597555e-06 1.602027e-06
-1.024063e-05 -1.631098e-05 -7.021891e-07
[...]
POINT_DATA 1718
VECTORS 10.000GHz_fone_imag double
4.345667e-04 1.295014e-04 2.109676e-02
1.193046e-03 3.997628e-04 2.020162e-02
-3.913436e-04 -4.479100e-04 2.107208e-02
-7.970056e-03 5.537525e-03 1.718492e-02
-6.450313e-04 -1.041971e-02 1.713326e-02
5.409461e-03 -5.211518e-03 1.919798e-02
6.023914e-03 9.329905e-03 1.738506e-02
-2.882818e-03 9.772156e-03 -4.315058e-02
-1.353132e-02 2.587239e-02 -2.926839e-03
-4.238746e-03 7.793041e-03 -4.285638e-02
1.119672e-02 2.746088e-02 -1.437469e-02
8.099478e-03 2.953375e-02 -1.700832e-02
-6.788382e-03 6.499586e-03 1.854557e-02
1.098855e-03 -4.439537e-04 1.995235e-02
3.652090e-03 1.893129e-02 -3.638067e-02
4.971943e-03 -7.678476e-03 2.001555e-02
6.604832e-03 1.257411e-02 -4.160181e-02
2.038970e-02 1.964472e-02 -2.763685e-02
-1.900867e-02 -1.234194e-02 1.058090e-02
1.252956e-03 -2.647058e-02 5.574963e-03
3.176364e-03 8.107046e-03 1.930959e-02
1.578384e-02 2.120235e-02 1.913626e-03
-3.125995e-02 9.981494e-03 -1.526102e-02
2.669923e-03 9.075353e-03 1.738079e-02
-4.529315e-04 -3.488910e-04 1.982768e-02
-1.607386e-03 -8.342058e-03 2.022943e-02
-1.038676e-02 8.921385e-04 2.000116e-02
-1.027068e-02 -1.196749e-03 2.019221e-02
4.131468e-03 -8.650046e-03 1.785127e-02
-1.966846e-02 2.425257e-02 -1.947283e-02
2.173288e-02 -1.849237e-02 5.440453e-03
3.659516e-03 -3.059542e-02 -1.222078e-02
-3.817458e-03 -2.456415e-02 -3.057123e-02
-3.736067e-03 2.754998e-02 5.977338e-03
-1.866341e-02 1.282779e-02 9.661624e-03
3.534784e-04 -5.405438e-04 2.088864e-02
-2.794163e-03 -9.713499e-03 2.056740e-02
1.856290e-02 -1.642608e-02 1.041370e-02
-2.808670e-02 1.356163e-02 -5.629361e-04
-2.604944e-02 -1.290221e-02 -2.059656e-02
2.587171e-04 -7.650343e-03 -4.436413e-02
1.588170e-02 -5.123467e-03 -4.000764e-02
1.194237e-02 2.325260e-02 -3.204933e-02
-5.438311e-03 2.710974e-02 3.540904e-03
9.461280e-03 2.768528e-02 3.817479e-03
-1.715967e-03 1.897572e-02 -3.796201e-02
2.312398e-04 9.998349e-04 1.977194e-02
-9.973266e-03 2.184787e-02 -3.391027e-02
-1.927248e-02 1.173511e-02 -3.662091e-02
5.522397e-03 -2.469819e-02 9.282592e-03
9.816141e-03 -1.042051e-03 1.996232e-02
7.013538e-03 3.198193e-02 -6.841411e-03
-1.727307e-03 -2.986162e-02 -2.457952e-02
6.685356e-03 -6.036464e-03 1.855691e-02
8.282751e-03 -2.198929e-02 7.061604e-03
-3.091892e-03 8.632564e-03 1.927976e-02
6.336039e-03 7.000217e-03 1.962347e-02
-1.676665e-04 4.136129e-04 2.091115e-02
-2.523546e-02 1.592546e-02 -9.252118e-03
6.667039e-03 -5.672777e-03 -4.079357e-02
2.651403e-02 -1.902047e-03 -2.321381e-02
-1.910304e-02 1.418065e-02 -3.098848e-02
1.224443e-03 7.548303e-03 1.952453e-02
-1.797727e-03 2.150122e-02 1.274413e-02
1.330050e-02 2.354622e-02 7.855724e-03
-6.184275e-03 8.321408e-03 -4.266944e-02
1.562288e-02 1.869648e-02 -3.421857e-02
2.529169e-02 7.409035e-03 -2.588084e-02
-9.211120e-04 4.075161e-04 2.119370e-02
-3.685039e-03 -2.693610e-02 -2.617046e-02
2.577096e-03 -9.741018e-03 1.977190e-02
-1.487447e-02 -2.808835e-02 -1.786058e-02
-3.754547e-03 9.467563e-03 1.964157e-02
-1.926840e-02 -2.510467e-02 -1.257185e-02
-5.525028e-03 3.001518e-02 -1.217462e-02
-3.200733e-02 -7.157804e-03 -1.173054e-02
8.270891e-03 -5.860354e-03 -4.153576e-02
-3.133965e-02 3.100231e-03 -1.944871e-02
2.259252e-02 8.550780e-03 8.319413e-03
-4.608618e-04 -2.253822e-04 2.066489e-02
6.198208e-03 7.982878e-03 1.820541e-02
4.552084e-03 8.584196e-03 1.813801e-02
-1.815389e-02 -1.450525e-03 -3.943841e-02
-8.161963e-03 5.338322e-03 1.961868e-02
4.007495e-03 7.659837e-03 1.917011e-02
3.093496e-02 -2.300183e-03 -1.690778e-02
-2.071906e-02 1.382092e-02 1.022713e-02
-2.338298e-02 1.537669e-02 -2.637897e-02
-2.540927e-02 -5.132777e-03 -2.377844e-02
-9.148796e-03 4.348466e-03 1.976628e-02
-1.536651e-04 3.787651e-04 2.107527e-02
-5.906104e-03 -9.458008e-03 1.954384e-02
1.834327e-02 -1.406823e-02 7.464579e-03
7.264936e-03 7.029851e-03 1.935937e-02
5.762038e-04 -1.091749e-02 1.806644e-02
-7.357247e-03 3.912390e-03 2.034367e-02
2.019172e-02 1.199260e-02 1.188575e-02
8.777673e-03 3.974090e-03 1.940812e-02
-6.562117e-03 -6.400548e-03 1.843442e-02
1.377256e-02 1.240928e-02 -3.435146e-02
-1.061126e-02 -6.330066e-04 -3.942836e-02
-3.055896e-04 -4.853330e-04 2.078603e-02
-4.605496e-03 6.612122e-03 1.777708e-02
-7.794894e-03 -7.519255e-03 1.820263e-02
-1.049287e-02 -1.492303e-03 1.948804e-02
7.472281e-03 -1.190883e-02 -4.210050e-02
9.315019e-03 -3.100882e-03 1.840531e-02
-4.823015e-03 8.691150e-03 1.767805e-02
-1.440083e-02 -2.245160e-02 -2.139660e-02
9.099674e-03 -1.703567e-03 1.795449e-02
1.083717e-02 2.320665e-02 9.230861e-03
-9.927069e-03 -1.935754e-04 -4.280181e-02
-4.422994e-04 -4.425041e-05 2.029991e-02
9.537724e-06 1.103840e-03 2.115493e-02
-3.003216e-02 8.274301e-03 -2.053625e-02
-4.793680e-04 -1.630952e-02 -4.027574e-02
-2.647425e-02 1.784190e-02 -2.046499e-02
8.413268e-03 2.310963e-03 1.977620e-02
1.411026e-02 -1.806218e-02 7.309430e-03
-2.612292e-02 -1.799769e-02 -1.533492e-02
-1.533578e-02 2.064459e-02 5.187723e-03
-6.267775e-03 2.097532e-02 -3.650161e-02
-5.552865e-03 9.411221e-03 1.975678e-02
-5.486081e-03 -6.388165e-03 2.014056e-02
-4.420906e-04 3.308762e-04 2.131037e-02
-6.874926e-03 -1.524935e-02 1.433126e-02
-9.337403e-04 -2.635276e-02 7.897097e-03
-4.228501e-03 -2.578584e-02 8.476571e-03
-2.414559e-02 -1.042515e-02 -2.489384e-02
3.962326e-03 2.316614e-02 -2.783387e-02
-7.998914e-04 -9.715764e-03 -3.840096e-02
-8.729304e-03 2.774316e-02 -7.851377e-03
1.037702e-02 8.916337e-04 1.945781e-02
8.809330e-03 1.311457e-06 1.855678e-02
9.005817e-03 -1.356298e-03 2.018845e-02
-1.218310e-03 -4.462251e-04 1.987738e-02
2.797358e-03 -8.564165e-03 -4.018979e-02
2.178295e-02 -1.016109e-02 -3.032370e-02
-1.473249e-02 -2.550942e-02 2.383139e-03
-9.436442e-03 2.531025e-02 -2.652151e-02
2.149935e-03 -1.065316e-02 1.820231e-02
2.251238e-02 -8.610338e-03 9.465195e-03
9.304548e-03 3.806676e-03 1.912208e-02
2.495971e-02 1.796352e-02 -1.197283e-02
-2.358172e-02 2.045506e-02 -2.063436e-02
-2.173094e-02 -9.282320e-03 1.015941e-02
1.000619e-03 -4.015308e-04 1.933581e-02
1.874701e-02 -3.545657e-04 -4.001755e-02
3.187447e-03 1.893658e-02 -3.690293e-02
3.133327e-02 1.767501e-03 -1.662309e-03
2.270848e-02 -1.329228e-02 7.010512e-03
5.737090e-03 -7.556032e-03 1.813771e-02
-6.357333e-03 -6.051204e-03 2.012350e-02
4.595141e-03 -1.126701e-02 -3.749818e-02
-3.476099e-03 -8.773720e-03 -4.044672e-02
2.220490e-03 -7.959883e-03 1.947134e-02
1.596932e-02 2.391272e-02 -7.669613e-03
7.540282e-04 4.531393e-04 2.128792e-02
-2.954000e-03 2.976972e-02 -1.311077e-02
5.405346e-04 -2.092206e-03 -4.114022e-02
2.391650e-02 -2.472790e-03 1.143203e-02
2.458376e-02 2.362613e-03 1.060983e-02
3.207230e-02 -5.319577e-03 -1.399052e-02
-1.148119e-02 -1.704271e-02 -3.545617e-02
2.126286e-02 2.244564e-02 -5.045840e-03
4.654263e-03 -4.504755e-03 1.870588e-02
-2.891582e-02 -6.444655e-04 -2.797926e-02
-2.765170e-02 8.494862e-04 -2.569621e-02
-7.314816e-04 2.134497e-04 2.167567e-02
-1.418974e-02 -1.397960e-02 -3.787210e-02
-1.402000e-02 -2.607119e-02 -1.946712e-02
7.616312e-03 2.131214e-02 9.099137e-03
-1.402065e-02 -2.383014e-02 -2.382119e-02
-7.150940e-03 -2.843567e-02 -2.502180e-02
2.033096e-03 8.862937e-03 1.973069e-02
2.858826e-02 1.346458e-02 -8.803339e-03
1.420884e-02 -1.656220e-02 1.199896e-02
5.050327e-03 2.238481e-02 1.036681e-02
-1.365675e-02 5.692452e-03 -3.863767e-02
6.555652e-05 -5.409944e-04 2.166184e-02
2.520505e-02 -1.608833e-02 -2.452736e-02
2.134531e-02 -2.115931e-02 -1.394589e-02
-2.734884e-02 -1.363340e-02 -4.737821e-03
-9.153632e-03 -2.649883e-02 4.230660e-03
2.162848e-02 1.272704e-02 7.720071e-03
-9.522594e-03 -2.811151e-02 -1.765278e-02
2.226644e-02 -3.822850e-03 9.935079e-03
-1.946755e-02 -1.699314e-03 1.457896e-02
1.368858e-02 -1.558385e-02 1.228165e-02
-8.488743e-03 -2.289058e-02 1.023308e-02
6.127820e-05 1.691275e-04 2.029069e-02
-2.915187e-02 -7.681153e-03 -9.995352e-03
9.142294e-03 2.975968e-02 -1.603052e-02
-2.932897e-03 5.403833e-03 1.889844e-02
-2.619736e-02 -7.327679e-03 6.952949e-03
1.984244e-02 1.972205e-02 -2.812233e-02
1.276609e-02 -2.585910e-02 -2.579867e-02
-9.147352e-03 6.019760e-04 1.915462e-02
-9.776204e-03 -6.751473e-04 1.999610e-02
-5.146662e-03 -1.407419e-02 -3.587147e-02
1.934371e-02 -1.635129e-02 -3.081296e-02
2.468156e-04 -2.284290e-04 2.181552e-02
-6.592773e-03 -1.371246e-02 -3.996879e-02
-3.760299e-03 7.315684e-03 2.017208e-02
-7.684166e-03 1.921974e-02 1.260474e-02
3.036402e-02 4.320919e-03 -1.163710e-02
8.112688e-03 -2.342226e-03 1.839129e-02
-5.233112e-03 6.241668e-03 -3.955596e-02
1.914270e-02 -1.966277e-02 6.333053e-03
2.254521e-02 1.909366e-02 -8.286452e-04
-7.055465e-03 4.338787e-03 1.856385e-02
1.852288e-02 2.270931e-02 -2.002541e-04
-8.021540e-05 9.480194e-04 2.126394e-02
-2.630171e-02 3.189967e-04 -2.202278e-02
7.215020e-03 2.391212e-02 -2.971578e-02
1.434222e-02 1.618152e-02 1.269976e-02
-2.269924e-02 -8.965922e-03 -2.873153e-02
-1.072339e-02 2.170981e-02 1.071843e-02
-1.188254e-02 3.012339e-02 -1.283866e-02
6.501355e-03 -2.772168e-02 -1.978432e-02
-1.785171e-02 -2.419223e-02 -1.117512e-02
-2.708451e-02 1.620412e-02 -1.480029e-02
-1.671659e-03 -1.022681e-02 1.949539e-02
2.322079e-04 1.265542e-04 2.155459e-02
-7.159960e-04 -7.470846e-04 2.078557e-02
5.268198e-03 -4.231113e-03 -3.873822e-02
5.539466e-03 1.223516e-02 -4.219701e-02
8.847443e-04 1.723756e-03 -4.155121e-02
2.142944e-02 7.324095e-03 1.052838e-02
7.385731e-03 -1.149422e-02 -3.652572e-02
8.318931e-03 -3.026195e-02 4.869862e-04
4.326235e-03 -1.708644e-02 -3.702737e-02
-1.790391e-02 -4.640390e-03 -3.937369e-02
7.462843e-03 -5.507519e-03 2.055257e-02
-2.109871e-02 -1.073621e-02 -3.423265e-02
1.412550e-03 -7.675547e-04 2.016673e-02
-1.641349e-02 1.333632e-02 -3.650765e-02
3.743298e-05 9.926626e-03 1.903969e-02
-9.659066e-03 9.370711e-04 1.846071e-02
1.007378e-02 -3.181967e-02 -9.367584e-03
-2.132930e-02 -4.200244e-03 1.300846e-02
-2.101739e-02 4.324315e-03 1.346976e-02
-4.260107e-03 -6.649459e-03 1.923645e-02
2.163364e-02 -5.001591e-03 1.098617e-02
-1.290513e-02 2.065965e-02 -2.747150e-02
-8.524709e-03 -2.815627e-02 -2.094897e-02
7.463077e-04 2.978038e-04 1.995135e-02
-5.468581e-04 -2.859730e-02 5.127453e-03
-2.569131e-03 5.471722e-04 -4.407472e-02
-1.194466e-03 -7.580391e-03 1.901941e-02
-7.833373e-04 -6.575727e-03 -4.410795e-02
-1.741286e-02 -1.504950e-02 8.472508e-03
-7.170871e-03 -1.150269e-02 -4.225514e-02
2.800982e-02 1.398035e-02 -4.671104e-03
-6.462492e-03 -2.654265e-02 -1.628864e-03
3.565480e-03 -1.050836e-02 -4.219936e-02
3.865144e-03 -2.180524e-02 1.267682e-02
-1.171149e-02 2.022405e-04 1.919746e-02
-8.957913e-04 7.162489e-03 1.818929e-02
6.890522e-03 -6.474587e-03 1.986890e-02
2.764023e-03 2.040428e-02 1.270680e-02
-7.568507e-03 2.430296e-03 1.999856e-02
-1.382285e-02 -1.809304e-02 1.200614e-02
-2.066682e-02 2.472461e-02 -3.635394e-03
7.328095e-05 9.032460e-03 1.947613e-02
-6.922261e-03 5.957916e-03 1.936329e-02
2.920259e-03 -2.106616e-02 1.191434e-02
-2.038171e-02 6.734587e-03 8.775501e-03
-2.309611e-02 1.264337e-03 1.090708e-02
-6.149978e-03 6.323644e-03 1.959703e-02
7.879838e-03 4.155228e-03 1.958472e-02
-2.494923e-02 -3.926338e-03 6.158315e-03
-2.472091e-02 4.249923e-03 6.332924e-03
8.875942e-03 1.002975e-03 1.851341e-02
-2.622732e-02 2.720085e-03 6.386369e-03
1.428753e-02 2.836047e-02 -6.662869e-03
2.342555e-02 9.062849e-03 9.327907e-03
-4.803422e-03 -1.363208e-02 -3.577803e-02
2.384250e-02 -1.963919e-02 -2.090928e-02
-2.879208e-02 -7.584890e-04 -8.358207e-04
8.184550e-03 2.828903e-03 2.015821e-02
-2.282177e-02 9.739962e-03 -2.707558e-02
-1.250369e-03 3.771963e-03 -4.095748e-02
-1.452031e-02 -1.583429e-02 1.243630e-02
7.332043e-03 2.171264e-02 1.204938e-02
-1.301423e-02 -1.512505e-02 1.436381e-02
-1.681836e-02 9.074194e-03 1.319099e-02
-3.707677e-04 3.086668e-02 -1.850873e-03
1.205320e-02 1.290986e-02 1.445436e-02
-9.940009e-03 2.195393e-02 -3.256989e-02
-3.186103e-02 -8.467950e-04 -1.752136e-02
-7.427040e-04 1.939425e-03 -4.335641e-02
4.606750e-03 6.728820e-03 1.864056e-02
9.560308e-03 -1.733912e-03 1.956170e-02
2.249810e-03 3.673751e-03 -4.364302e-02
-7.563637e-04 -2.036458e-03 -4.197160e-02
1.293790e-02 1.347638e-02 1.270766e-02
1.517212e-02 -1.863602e-02 9.709052e-03
1.852709e-02 2.619732e-02 -1.910679e-02
-1.162333e-03 9.430696e-03 1.992832e-02
-1.342660e-03 1.608505e-04 -4.464965e-02
-2.055484e-02 4.756710e-04 -3.853175e-02
-4.532536e-03 -2.437321e-02 9.799970e-03
-1.304784e-03 2.252719e-02 8.944944e-03
-1.951817e-02 -4.437394e-03 1.218159e-02
-1.042023e-03 -2.872391e-04 -4.462426e-02
-6.814089e-03 2.953777e-02 -2.529015e-02
7.991665e-03 -3.939689e-03 1.880317e-02
-1.644958e-02 -2.467252e-02 1.010150e-03
1.914525e-02 -8.503340e-03 1.280101e-02
3.416708e-03 -1.979493e-02 -3.391672e-02
-1.714670e-02 8.808097e-03 1.183952e-02
1.930297e-03 2.061169e-04 -3.986947e-02
7.356227e-04 -9.156183e-03 1.984999e-02
-3.075542e-02 6.438097e-03 -1.569455e-02
-1.746043e-02 1.678646e-02 8.087053e-03
-6.400315e-03 -5.463417e-03 1.987310e-02
7.183874e-03 3.374386e-03 1.925170e-02
1.912313e-02 -9.682717e-03 1.305136e-02
2.807130e-05 2.581647e-02 -2.669397e-02
2.677940e-03 8.479308e-03 1.860021e-02
8.966297e-03 1.252078e-03 1.979865e-02
-2.155734e-02 -2.587190e-03 1.301538e-02
2.011432e-02 1.454002e-04 -3.838126e-02
-2.189030e-02 2.072949e-03 1.268461e-02
1.685711e-02 -1.436108e-02 1.227877e-02
-3.224341e-02 -4.031428e-03 -6.864793e-03
-2.228785e-02 2.298607e-02 -1.024050e-02
6.328660e-04 6.912022e-03 -4.364016e-02
-1.028891e-02 -1.917271e-02 1.132322e-02
2.600671e-02 8.533129e-03 -2.803838e-02
-5.206793e-04 -1.979891e-02 1.272822e-02
-1.954223e-02 -1.400407e-02 -3.223721e-02
1.392954e-02 -2.021436e-02 5.071652e-03
-8.277984e-04 2.010004e-05 2.125845e-02
3.173881e-02 -9.391821e-05 -1.949081e-02
-1.661449e-02 1.534094e-02 1.186083e-02
3.057190e-03 -7.513137e-03 1.989910e-02
1.996158e-02 8.880193e-03 1.242303e-02
5.128516e-03 4.583846e-03 -4.358157e-02
-1.592162e-02 -1.827706e-02 1.047831e-02
7.570189e-03 -3.318694e-03 1.843033e-02
6.475972e-03 -4.391574e-03 1.915504e-02
7.282344e-03 9.983747e-04 1.941745e-02
7.600536e-03 -9.268415e-04 1.828119e-02
8.018361e-03 -3.751860e-03 1.965853e-02
2.862712e-02 -4.843475e-05 -3.765100e-03
9.582994e-03 2.393947e-02 -3.021432e-02
1.840740e-02 -1.896479e-02 -2.950426e-02
-3.229985e-02 -3.803050e-04 -2.428569e-03
1.272931e-02 -2.812982e-02 -2.253952e-02
-2.372699e-02 -2.050118e-02 -7.584147e-03
2.919503e-02 -6.496456e-04 -5.049731e-03
2.836056e-02 1.143614e-03 -4.543217e-03
-6.927122e-03 -4.985753e-03 1.761368e-02
-3.631790e-03 -7.733154e-03 1.773706e-02
2.073453e-02 1.294817e-02 1.040896e-02
2.280163e-02 -4.899915e-04 1.296544e-02
-1.884860e-02 -1.249109e-02 1.174743e-02
2.535723e-02 -1.913557e-02 -3.665562e-03
5.845968e-03 -2.603423e-02 -2.312195e-02
5.150570e-03 2.014811e-02 -3.555839e-02
-1.313443e-03 2.318596e-02 1.124731e-02
-1.510293e-02 -8.152094e-03 1.598667e-02
-9.650229e-03 2.189801e-03 1.985326e-02
-8.001529e-03 -1.584464e-03 1.885658e-02
-9.559545e-03 2.604020e-02 4.442869e-03
-1.531606e-02 2.948768e-03 1.438015e-02
1.059098e-02 -1.655402e-04 1.741745e-02
1.495051e-03 -2.635674e-03 -4.458558e-02
-2.492945e-02 -1.605866e-02 -7.947110e-04
-2.237135e-02 -7.563762e-03 1.195016e-02
-2.182429e-02 7.098207e-03 1.257727e-02
-1.046074e-02 6.404719e-03 -4.208779e-02
-2.609597e-02 -1.400359e-02 -1.527974e-02
2.781208e-02 -9.708212e-03 -6.273491e-04
1.054158e-02 2.915015e-02 -6.377994e-04
-4.207304e-04 -3.719033e-03 -4.454461e-02
2.040328e-02 3.966364e-03 1.364244e-02
1.074357e-02 2.618334e-02 -2.920299e-02
1.614018e-02 -2.682411e-02 -1.519697e-02
-1.811229e-02 2.101744e-02 -2.943508e-02
1.314951e-02 -3.002636e-02 -1.843142e-02
2.869018e-02 1.088397e-02 -3.824752e-04
3.225961e-02 -3.835873e-04 -5.425580e-03
-7.667679e-03 3.076480e-02 -5.161205e-03
-5.598459e-03 -9.712494e-03 -3.904076e-02
2.406088e-03 1.058691e-03 -4.515890e-02
5.433466e-03 6.859641e-03 1.914020e-02
-1.129428e-02 -1.957696e-02 1.140011e-02
1.109373e-02 -2.501823e-02 -3.071317e-02
9.811459e-03 -2.073349e-02 8.105307e-03
7.445061e-03 -1.771175e-02 -3.147545e-02
2.498115e-02 1.840314e-02 -1.992343e-03
6.077665e-03 -1.915351e-02 1.285259e-02
2.491548e-02 -1.519628e-02 -2.661855e-02
-1.271647e-03 -3.182337e-02 -1.865882e-02
1.214524e-02 -1.845083e-02 1.294868e-02
2.703265e-02 -9.169886e-03 -2.716233e-02
-3.028177e-02 1.217077e-02 -2.951452e-03
1.307606e-02 1.885120e-02 1.212832e-02
2.030437e-02 -1.431742e-02 4.821840e-03
1.732366e-03 1.824815e-02 1.548786e-02
7.394452e-03 2.215794e-03 2.032447e-02
-2.848089e-03 -2.128151e-02 1.325834e-02
-5.162626e-03 2.538635e-02 -3.286455e-02
-4.208413e-03 2.016019e-02 1.399874e-02
-6.615257e-03 -2.153392e-02 1.158874e-02
5.394356e-03 -5.262740e-03 1.994732e-02
1.984688e-02 4.892589e-03 1.287568e-02
2.716024e-02 7.728510e-03 -2.662623e-02
1.939641e-02 -2.458235e-03 1.208243e-02
2.188182e-02 1.528574e-02 6.951009e-03
-6.640383e-03 -4.860981e-03 1.789711e-02
4.402639e-04 -1.672108e-02 -3.886619e-02
2.624600e-02 1.242685e-02 -4.011927e-03
3.098858e-03 2.125185e-02 1.294884e-02
-2.441044e-03 2.192716e-02 7.707990e-03
-1.935620e-02 8.132408e-03 1.207531e-02
3.146077e-02 5.942704e-03 -6.774011e-03
3.257556e-02 -5.674907e-03 -7.565114e-03
1.605122e-02 1.303272e-02 1.354483e-02
-6.730635e-03 -3.235969e-03 1.959568e-02
-2.938812e-02 -1.064726e-02 -9.456950e-03
1.204307e-02 2.145136e-02 -3.136832e-02
-8.710331e-03 -3.975113e-03 1.976183e-02
-1.965364e-02 -1.959647e-02 -2.277886e-02
4.757157e-03 -5.133925e-03 -4.487216e-02
-5.060421e-03 -8.274119e-03 1.959658e-02
7.489055e-03 -6.063661e-04 2.044396e-02
4.898842e-03 -3.099233e-02 -3.457624e-03
3.908194e-03 3.004403e-02 -2.951451e-03
-6.558246e-03 3.304184e-02 -1.422610e-02
2.373999e-02 2.784297e-03 -2.684051e-02
-2.924576e-02 1.291422e-02 -9.277776e-03
-3.102039e-02 2.242109e-03 -1.482931e-02
-2.221782e-03 2.297573e-02 -3.105145e-02
-1.899457e-02 -1.977390e-04 1.556520e-02
-1.736779e-02 1.176121e-03 1.567908e-02
-6.557126e-03 -7.124253e-03 1.939696e-02
2.007411e-02 -6.876943e-03 1.212853e-02
7.572106e-03 1.623348e-02 1.459930e-02
7.495598e-04 2.177395e-02 1.157360e-02
-1.589855e-02 2.480762e-02 1.163620e-03
-7.808645e-03 -4.948127e-03 1.966512e-02
-2.096942e-04 -7.388658e-04 2.021015e-02
-2.229475e-03 2.964136e-02 1.183235e-03
1.823572e-02 -1.022909e-02 1.302017e-02
1.236475e-03 2.979733e-03 -4.397800e-02
2.650106e-03 -1.534461e-03 -4.481664e-02
-2.406013e-03 -3.229249e-02 -8.341911e-03
-9.490264e-03 2.426860e-02 -3.081906e-02
-1.361033e-02 2.896730e-02 -2.302335e-02
2.606475e-02 1.451526e-02 -1.041071e-03
-1.386635e-03 -1.971675e-02 1.279769e-02
1.832226e-02 -2.694154e-02 -1.503113e-02
2.495460e-02 -1.583809e-02 -1.190043e-03
-8.303252e-03 8.639559e-03 1.850000e-02
-3.095365e-02 6.474943e-03 -1.081829e-02
-2.781119e-02 -6.768172e-03 -9.874055e-03
-5.087049e-03 1.930611e-02 1.020642e-02
1.286812e-02 -2.070295e-02 9.709741e-03
3.683755e-03 -7.806276e-03 2.038029e-02
1.490436e-02 1.684955e-02 1.117235e-02
-7.743738e-03 1.523409e-03 -4.360193e-02
8.720997e-03 1.234284e-02 -4.045372e-02
1.138054e-03 -7.748833e-05 -4.373965e-02
-2.045616e-02 2.649304e-02 -1.122027e-02
-9.570291e-03 1.266534e-03 1.836505e-02
-1.003374e-02 1.822209e-02 -3.645860e-02
-8.593731e-03 -1.740442e-03 1.827740e-02
-1.584825e-02 -1.285837e-02 1.140420e-02
-8.390454e-03 -2.663074e-02 4.261745e-03
-1.949365e-02 1.516947e-02 6.110294e-03
6.561704e-03 2.687415e-03 1.900268e-02
-1.068251e-02 1.777468e-02 1.071681e-02
1.495707e-02 7.362858e-03 -3.759609e-02
-9.585389e-03 3.329444e-03 -4.167160e-02
5.801944e-03 -3.652423e-03 2.034786e-02
-7.586250e-03 -4.931250e-03 1.801658e-02
-1.524098e-02 7.816519e-03 1.379904e-02
4.628777e-03 -8.597331e-03 1.816789e-02
1.162655e-02 -3.019193e-02 -2.021310e-02
-8.711870e-03 -9.664151e-03 -4.128159e-02
2.111832e-02 -2.090651e-02 -9.397472e-03
2.075961e-02 -6.812690e-03 1.253169e-02
-1.870128e-02 1.786675e-02 8.425621e-03
1.491994e-02 -1.551711e-02 -3.166424e-02
2.914100e-02 -1.562326e-02 -6.976661e-03
5.976432e-03 -2.708161e-03 1.844695e-02
-3.497815e-03 -9.941915e-03 1.802689e-02
5.597080e-03 4.607134e-03 2.017944e-02
1.544794e-03 7.269997e-03 1.861120e-02