# vtk DataFile Version 2.0
Electric current density generated by TTH
ASCII
DATASET UNSTRUCTURED_GRID
POINTS 4449 double
3.386583e-05 -8.294736e-21 -2.329906e-22
3.344186e-05 5.341931e-06 -2.329906e-22
-5.782884e-06 3.336844e-05 -2.329906e-22
-1.900757e-05 -2.734314e-05 8.693765e-07
-3.340749e-05 3.596694e-07 8.124097e-07
3.193157e-05 3.472947e-06 -5.228321e-07
3.193157e-05 -3.472947e-06 -5.228321e-07
3.136885e-05 1.149467e-05 -8.129344e-07
3.136885e-05 -1.149467e-05 -8.129344e-07
-2.599560e-05 -1.887684e-05 -5.326283e-07
2.348925e-05 2.179332e-05 3.789613e-07
2.348925e-05 -2.179332e-05 3.789613e-07
2.473354e-05 -2.255383e-05 -7.702944e-07
-6.369241e-06 3.326150e-05 -2.329906e-22
2.473354e-05 2.255383e-05 -7.702944e-07
-3.228575e-05 8.569280e-06 8.159135e-07
2.786685e-05 -1.625620e-05 6.919606e-07
2.786685e-05 1.625620e-05 6.919606e-07
-2.510829e-05 -1.978547e-05 -8.390870e-08
-2.279781e-05 -2.287545e-05 7.226062e-07
1.876299e-05 -2.612181e-05 5.819142e-07
1.876299e-05 2.612181e-05 5.819142e-07
1.167793e-05 2.978518e-05 2.344889e-07
-3.048714e-05 1.020959e-05 -5.676162e-07
-6.953626e-06 3.314425e-05 -2.329906e-22
-2.766977e-05 1.637446e-05 -5.684094e-07
-2.607674e-07 3.331112e-05 8.641901e-07
9.141660e-06 3.083276e-05 -5.784867e-07
-3.339826e-05 2.992668e-06 7.235902e-07
-1.025420e-06 -3.197400e-05 -2.255290e-07
-2.888768e-05 1.450468e-05 7.462549e-07
-1.517456e-05 -2.973650e-05 8.270624e-07
-3.007718e-05 -1.081885e-05 -3.022744e-08
9.140250e-06 -3.083731e-05 -5.836227e-07
-3.168294e-05 -6.592955e-06 -7.740495e-07
-7.535856e-06 3.301674e-05 -2.329906e-22
-3.236981e-05 -8.400714e-06 7.915592e-07
-2.974627e-05 -1.175886e-05 2.069814e-07
-1.987708e-05 2.535666e-05 -6.488064e-07
-2.924982e-05 1.346890e-05 -6.300846e-07
3.182127e-05 -5.216325e-06 -6.766603e-07
3.182127e-05 5.216325e-06 -6.766603e-07
1.995318e-05 -2.684313e-05 -7.884860e-07
1.995318e-05 2.684313e-05 -7.884860e-07
6.384512e-08 -3.218694e-05 -6.128073e-07
-1.431535e-05 -2.886764e-05 6.522999e-07
-8.115752e-06 3.287900e-05 -2.329906e-22
3.302298e-06 -3.325642e-05 -8.058928e-07
2.200250e-05 2.328460e-05 -3.638410e-07
2.200250e-05 -2.328460e-05 -3.638410e-07
-3.222514e-05 1.992500e-06 -7.145862e-07
8.629533e-06 3.081229e-05 2.541951e-07
1.235695e-05 -2.973223e-05 -6.254290e-07
-2.859928e-05 1.502890e-05 -7.325120e-07
-3.111436e-05 8.699607e-06 -7.325120e-07
2.893073e-05 -1.673370e-05 8.048652e-07
2.893073e-05 1.673370e-05 8.048652e-07
-8.693134e-06 3.273108e-05 -2.329906e-22
-3.159991e-05 5.435143e-06 -4.257627e-07
-2.729266e-05 1.670155e-05 2.522045e-07
1.071121e-05 -3.051876e-05 -7.610283e-07
1.071121e-05 3.051876e-05 -7.610283e-07
2.554500e-05 -1.956314e-05 -5.988886e-07
2.554500e-05 1.956314e-05 -5.988886e-07
-7.771366e-06 -3.126235e-05 6.432784e-07
-4.022323e-06 -3.172422e-05 -1.676073e-07
-2.433656e-05 -2.110781e-05 6.446073e-07
8.625872e-06 -3.081311e-05 2.534862e-07
-9.267824e-06 3.257302e-05 -2.329906e-22
2.466614e-05 2.085586e-05 -7.273212e-07
2.466614e-05 -2.085586e-05 -7.273212e-07
-2.892789e-05 1.372475e-05 3.196037e-07
3.236837e-05 8.002762e-06 8.493195e-07
3.236837e-05 -8.002762e-06 8.493195e-07
-2.067253e-05 -2.472995e-05 6.629117e-07
-1.717781e-05 -2.727457e-05 6.637906e-07
-1.194260e-05 -2.993924e-05 6.638598e-07
2.167214e-05 2.378096e-05 5.979756e-07
2.167214e-05 -2.378096e-05 5.979756e-07
-9.839643e-06 3.240487e-05 -2.329906e-22
-3.049145e-05 -1.041810e-05 6.522341e-07
-2.605276e-05 -2.096256e-05 7.935556e-07
2.839179e-05 1.508643e-05 -5.674706e-07
2.839179e-05 -1.508643e-05 -5.674706e-07
-3.207193e-05 -4.834753e-06 8.211076e-07
1.126849e-05 3.033287e-05 7.716788e-07
1.965126e-06 -3.218893e-05 -6.794941e-07
-3.113629e-05 7.749897e-06 4.677907e-07
-9.377356e-06 3.068276e-05 -4.632647e-07
-1.255919e-05 2.952344e-05 -4.632647e-07
-1.040841e-05 3.222669e-05 -2.329906e-22
-2.229290e-05 2.307365e-05 -4.632647e-07
-2.460076e-05 2.059537e-05 -4.632647e-07
-1.560111e-05 2.803519e-05 -4.632647e-07
-6.091046e-06 3.150025e-05 -4.632647e-07
-9.300349e-07 3.207026e-05 -4.632646e-07
6.477849e-07 3.207721e-05 -4.632650e-07
5.813561e-06 3.155261e-05 -4.632149e-07
-3.201197e-05 -3.661609e-06 -6.507141e-07
2.898394e-05 1.434838e-05 -7.589350e-07
2.898394e-05 -1.434838e-05 -7.589350e-07
-1.097396e-05 3.203852e-05 -2.329906e-22
3.338906e-05 -1.943632e-06 7.892539e-07
3.338906e-05 1.943632e-06 7.892539e-07
2.998419e-05 -1.310302e-05 9.315963e-07
2.998419e-05 1.310302e-05 9.315963e-07
3.077117e-05 -9.160619e-06 -5.007672e-07
3.077117e-05 9.160619e-06 -5.007672e-07
1.595252e-05 -2.821010e-05 8.052943e-07
1.595654e-05 2.821038e-05 8.066857e-07
3.220352e-05 1.884345e-06 6.889082e-07
3.220352e-05 -1.884345e-06 6.889082e-07
3.334267e-05 5.929648e-06 -2.329906e-22
-1.153611e-05 3.184042e-05 -2.329906e-22
4.887237e-06 -3.309928e-05 -7.806513e-07
2.907462e-05 1.638290e-05 -8.337062e-07
2.907462e-05 -1.638290e-05 -8.337062e-07
6.732028e-06 3.267695e-05 -8.388230e-07
-2.677577e-07 3.336216e-05 -8.388040e-07
-7.234039e-06 3.256072e-05 -8.433471e-07
-2.512722e-05 2.194831e-05 -8.388040e-07
-1.683090e-05 2.880670e-05 -8.388040e-07
-1.379740e-05 3.035487e-05 -8.490844e-07
3.064772e-05 -1.322193e-05 -8.306398e-07
-1.209468e-05 3.163247e-05 -2.329906e-22
3.064772e-05 1.322193e-05 -8.306398e-07
6.760457e-06 -3.266236e-05 -8.433342e-07
3.387216e-06 3.319262e-05 -8.378572e-07
-3.646321e-06 3.316516e-05 -8.378551e-07
-1.050988e-05 3.166817e-05 -8.369878e-07
-2.716801e-05 1.936729e-05 -8.381051e-07
-2.266706e-05 2.448258e-05 -8.381051e-07
-3.271437e-05 6.543749e-06 -8.392415e-07
2.724014e-05 -1.731889e-05 7.082547e-07
2.724014e-05 1.731889e-05 7.082547e-07
-1.264951e-05 3.141471e-05 -2.329906e-22
3.814568e-06 -3.190442e-05 5.402923e-07
3.037943e-05 -1.033195e-05 4.713441e-07
3.037943e-05 1.033195e-05 4.713441e-07
1.726397e-05 -2.872252e-05 7.405641e-07
1.726397e-05 2.872252e-05 7.405641e-07
-2.099288e-05 -2.530608e-05 -9.506302e-07
-1.206470e-05 -3.058664e-05 -9.506306e-07
-1.762924e-05 -2.775445e-05 -9.506306e-07
2.073456e-05 2.443998e-05 3.978328e-07
2.073456e-05 -2.443998e-05 3.978328e-07
-1.320042e-05 3.118723e-05 -2.329906e-22
-3.020050e-05 1.051722e-05 1.741962e-07
-8.175577e-06 -3.182712e-05 -9.497124e-07
-3.337309e-05 -2.647173e-06 -7.665077e-07
3.153855e-05 -6.651444e-06 -6.628824e-07
3.153855e-05 6.651444e-06 -6.628824e-07
2.878389e-05 -1.485967e-05 7.956772e-07
2.878389e-05 1.485967e-05 7.956772e-07
4.962328e-06 3.310151e-05 7.712532e-07
-2.087096e-06 3.340627e-05 7.712524e-07
-8.708445e-06 3.231869e-05 7.712524e-07
-1.374724e-05 3.095008e-05 -2.329906e-22
-1.531241e-05 2.976703e-05 7.689647e-07
-2.404804e-05 2.328146e-05 7.712524e-07
-1.206644e-05 3.122076e-05 7.712524e-07
-5.253429e-06 3.305656e-05 7.712524e-07
1.793041e-06 3.342334e-05 7.712511e-07
-3.058221e-05 -1.337841e-05 -8.293736e-07
-2.904194e-05 -1.657972e-05 -7.921096e-07
-2.118334e-05 2.591816e-05 7.696281e-07
-2.735880e-06 -3.265543e-05 -9.401802e-07
-3.381405e-06 -3.331001e-05 -7.640814e-07
-1.428981e-05 3.070335e-05 -2.329906e-22
3.123605e-05 -8.382571e-06 -7.590939e-07
3.123605e-05 8.382571e-06 -7.590939e-07
1.082526e-05 -3.174452e-05 7.171514e-07
-2.843489e-05 1.772239e-05 7.453566e-07
8.789967e-06 3.233207e-05 7.453579e-07
8.789453e-06 -3.233155e-05 7.458594e-07
-2.004343e-05 2.493747e-05 2.396810e-07
1.993448e-05 -2.529932e-05 6.383399e-07
1.993448e-05 2.529932e-05 6.383399e-07
-3.031881e-05 -1.431998e-05 -7.249614e-07
-1.482794e-05 3.044711e-05 -2.329906e-22
-3.081784e-05 -9.420692e-06 -6.558874e-07
3.193517e-05 9.964735e-06 -7.837205e-07
3.193517e-05 -9.964735e-06 -7.837205e-07
3.126526e-05 -1.188997e-05 7.864083e-07
3.126526e-05 1.188997e-05 7.864083e-07
-2.244869e-05 -2.481650e-05 -7.769305e-07
-2.316265e-05 -2.424446e-05 -7.248307e-07
-1.360058e-05 -3.057494e-05 -7.769273e-07
-1.445722e-05 -3.025377e-05 -7.248343e-07
-1.671593e-05 -2.898932e-05 -7.769272e-07
-1.536149e-05 3.018144e-05 -2.329906e-22
-1.593328e-05 -2.949896e-05 -7.279088e-07
-2.491507e-05 -2.233927e-05 -7.769187e-07
-2.433012e-05 -2.306734e-05 -7.279242e-07
-2.954627e-05 -1.586601e-05 -7.195890e-07
1.447384e-05 2.896768e-05 7.884555e-07
-3.137268e-05 -7.686503e-06 -7.265666e-07
-2.765548e-05 -1.693677e-05 8.183542e-07
5.089685e-06 -3.310122e-05 7.573033e-07
4.175467e-06 -3.325742e-05 7.349500e-07
2.165114e-05 -2.549808e-05 7.860458e-07
-1.589027e-05 2.990641e-05 -2.329906e-22
2.165114e-05 2.549808e-05 7.860458e-07
-3.104786e-05 1.266084e-05 7.252837e-07
2.128486e-05 2.579686e-05 -7.900955e-07
2.128486e-05 -2.579686e-05 -7.900955e-07
2.045515e-05 2.645652e-05 7.917194e-07
2.045515e-05 -2.645652e-05 7.917194e-07
2.806243e-05 1.824873e-05 -7.692859e-07
2.806243e-05 -1.824873e-05 -7.692859e-07
-3.134710e-05 -7.460469e-06 6.527854e-07
-1.658272e-05 2.913355e-05 7.317464e-07
-1.641414e-05 2.962213e-05 -2.329906e-22
-3.330550e-05 3.169540e-06 -7.821585e-07
-3.084013e-05 1.290275e-05 -7.992288e-07
-2.010467e-05 2.675417e-05 -7.750167e-07
-2.930834e-05 1.608154e-05 -7.992288e-07
-3.202833e-05 9.580217e-06 -7.992288e-07
-2.816497e-05 -1.805484e-05 7.827711e-07
-3.303779e-05 -5.794795e-06 7.148777e-07
3.266242e-05 7.445532e-06 -7.495434e-07
3.266242e-05 -7.445532e-06 -7.495434e-07
-8.592260e-06 -3.231413e-05 7.949893e-07
3.323315e-05 6.515529e-06 -2.329906e-22
-1.693291e-05 2.932867e-05 -2.329906e-22
-3.298859e-05 5.956439e-06 7.320467e-07
1.979303e-05 -2.544902e-05 -6.706878e-07
1.979303e-05 2.544902e-05 -6.706878e-07
2.241983e-05 -2.495344e-05 7.116210e-07
2.241983e-05 2.495344e-05 7.116210e-07
-2.488562e-05 -2.241500e-05 7.558175e-07
1.734745e-05 -2.716165e-05 -6.591439e-07
1.734745e-05 2.716165e-05 -6.591439e-07
-2.908596e-05 -1.420277e-05 -7.788185e-07
-2.677510e-05 -2.004070e-05 -7.899665e-07
-1.744645e-05 2.902612e-05 -2.329906e-22
1.005551e-06 -3.342669e-05 7.917729e-07
-6.840494e-06 -3.276834e-05 -7.688530e-07
1.355094e-05 3.057829e-05 -7.887214e-07
2.586282e-05 2.121254e-05 -7.867206e-07
2.586282e-05 -2.121254e-05 -7.867206e-07
-3.150442e-05 7.061262e-06 7.140470e-07
2.720583e-05 -1.962025e-05 -7.144004e-07
[...]
POINT_DATA 4449
VECTORS 10.000GHz_fone_imag double
1.520485e-04 -5.617452e-05 1.844471e-02
-3.798042e-05 7.935114e-05 1.833799e-02
-2.004336e-04 -3.557475e-04 1.846125e-02
1.072738e-02 1.458727e-02 7.219351e-03
1.701607e-02 -1.138268e-04 9.172686e-03
1.170223e-02 1.193024e-03 -1.897986e-02
1.184193e-02 -1.177627e-03 -1.898628e-02
1.566167e-02 5.546664e-03 9.472435e-03
1.566070e-02 -5.546133e-03 9.472155e-03
-1.044632e-02 -7.183410e-03 -1.843505e-02
-6.216578e-03 -5.955769e-03 -2.062034e-02
-6.216591e-03 5.955814e-03 -2.062045e-02
1.161249e-02 -1.065417e-02 1.045136e-02
3.253496e-04 -9.020256e-04 1.838666e-02
1.161229e-02 1.065360e-02 1.045241e-02
1.627104e-02 -4.198556e-03 9.345212e-03
-1.352020e-02 8.038332e-03 -1.548171e-02
-1.352119e-02 -8.039750e-03 -1.548204e-02
-1.771993e-03 -1.196521e-03 -2.242332e-02
1.158215e-02 1.144386e-02 -1.454725e-02
-7.932277e-03 1.049495e-02 -1.811457e-02
-7.930176e-03 -1.049480e-02 -1.811371e-02
-1.968932e-03 -4.899941e-03 -2.221514e-02
-1.246195e-02 4.226117e-03 -1.794407e-02
5.743062e-04 -2.239750e-05 1.832891e-02
-1.112110e-02 6.820246e-03 -1.795997e-02
4.612307e-04 -1.791781e-02 7.434136e-03
3.826860e-03 1.289019e-02 -1.772833e-02
1.453824e-02 -1.261761e-03 1.156457e-02
-1.163251e-04 -5.095213e-03 -2.222076e-02
1.490915e-02 -7.647530e-03 -1.433834e-02
7.898747e-03 1.526831e-02 8.619853e-03
-1.068996e-03 -2.862477e-04 -2.274252e-02
3.751417e-03 -1.281423e-02 -1.770556e-02
-1.731749e-02 -3.488209e-03 -1.275017e-02
3.936934e-05 3.083272e-04 1.849595e-02
1.593927e-02 4.173738e-03 9.809934e-03
4.165491e-03 1.734766e-03 -2.254529e-02
-9.214386e-03 1.185023e-02 -1.628824e-02
-1.324316e-02 6.109393e-03 -1.660533e-02
1.499773e-02 -2.677426e-03 -1.590859e-02
1.504727e-02 2.590337e-03 -1.589079e-02
9.604568e-03 -1.287235e-02 1.020441e-02
9.604530e-03 1.287423e-02 1.020430e-02
1.310145e-04 -1.422081e-02 -1.695684e-02
6.626651e-03 1.313550e-02 -1.626942e-02
-2.109766e-04 2.174889e-04 1.849405e-02
1.563135e-03 -1.641803e-02 9.592900e-03
5.678128e-03 5.814840e-03 -2.118106e-02
5.678097e-03 -5.815048e-03 -2.118070e-02
-1.607268e-02 1.121575e-03 -1.493599e-02
-1.662219e-03 -5.242603e-03 -2.204785e-02
5.248865e-03 -1.319498e-02 -1.652908e-02
-1.445314e-02 7.969669e-03 -1.435239e-02
-1.578016e-02 4.572063e-03 -1.437384e-02
-1.443363e-02 8.356735e-03 9.365586e-03
-1.442466e-02 -8.356753e-03 9.362753e-03
-1.303894e-04 -5.847952e-05 1.813165e-02
-9.417912e-03 1.545938e-03 -2.047512e-02
4.784493e-03 -3.129844e-03 -2.192625e-02
5.590894e-03 -1.595348e-02 -1.350034e-02
5.345963e-03 1.631943e-02 -1.347983e-02
1.112669e-02 -8.109179e-03 -1.755733e-02
1.112637e-02 8.108518e-03 -1.755730e-02
3.603258e-03 1.422631e-02 -1.626368e-02
-7.291881e-04 -4.113754e-03 -2.239008e-02
1.115572e-02 9.619590e-03 -1.612789e-02
-1.275570e-03 5.597012e-03 -2.194368e-02
1.196396e-04 1.586205e-04 1.822601e-02
1.257580e-02 1.052403e-02 -1.470862e-02
1.257590e-02 -1.052377e-02 -1.470831e-02
6.582591e-03 -3.358239e-03 -2.150425e-02
-1.732494e-02 -4.170623e-03 8.221790e-03
-1.732414e-02 4.171191e-03 8.223431e-03
9.529017e-03 1.171757e-02 -1.600702e-02
8.287334e-03 1.269164e-02 -1.595476e-02
5.745026e-03 1.412084e-02 -1.598520e-02
-9.220083e-03 -1.043123e-02 -1.739176e-02
-9.220379e-03 1.043163e-02 -1.739165e-02
-1.387158e-04 -3.063127e-06 1.852355e-02
1.412787e-02 4.859096e-03 -1.664057e-02
1.297567e-02 1.019510e-02 9.740983e-03
1.150442e-02 6.025732e-03 -1.794201e-02
1.150520e-02 -6.025476e-03 -1.794230e-02
1.813750e-02 2.655150e-03 -1.170424e-02
-6.045922e-03 -1.621577e-02 -1.308161e-02
9.695916e-04 -1.568848e-02 -1.571792e-02
1.054360e-02 -2.731063e-03 -1.948809e-02
-3.040945e-03 1.053194e-02 -1.949776e-02
-3.870787e-03 9.932816e-03 -1.954602e-02
2.737673e-05 -2.394185e-04 1.830718e-02
-7.669210e-03 7.858358e-03 -1.951865e-02
-8.306715e-03 6.577511e-03 -1.946963e-02
-4.428617e-03 9.190786e-03 -1.973116e-02
-1.848776e-03 1.041199e-02 -1.963227e-02
-6.011265e-04 1.045825e-02 -1.962666e-02
4.452736e-04 1.042491e-02 -1.972325e-02
1.670617e-03 1.046749e-02 -1.955665e-02
-1.484658e-02 -1.527974e-03 -1.622074e-02
1.508358e-02 7.868295e-03 -1.343456e-02
1.508367e-02 -7.868832e-03 -1.343449e-02
1.896502e-04 2.262306e-04 1.844587e-02
-1.636216e-02 9.466775e-04 1.004520e-02
-1.641471e-02 -1.162086e-03 1.001415e-02
-1.851287e-02 7.918490e-03 -4.879581e-03
-1.851327e-02 -7.918363e-03 -4.879564e-03
1.134345e-02 -3.239080e-03 -1.900626e-02
1.134210e-02 3.238884e-03 -1.900433e-02
-9.035535e-03 1.525981e-02 -1.196429e-02
-8.917204e-03 -1.568331e-02 -1.182544e-02
-1.570918e-02 -3.395557e-04 -1.521115e-02
-1.572262e-02 8.247709e-04 -1.523874e-02
1.150738e-04 1.568087e-05 1.820664e-02
-1.081297e-04 4.188809e-04 1.838742e-02
2.573898e-03 -1.584895e-02 1.042277e-02
1.519662e-02 8.259057e-03 8.802571e-03
1.519873e-02 -8.259489e-03 8.803326e-03
3.482893e-03 1.689668e-02 8.938895e-03
-5.956571e-04 1.730487e-02 8.764906e-03
-3.715514e-03 1.712457e-02 8.385407e-03
-1.319547e-02 1.130282e-02 8.942496e-03
-8.527416e-03 1.496529e-02 9.003841e-03
-7.193024e-03 1.606721e-02 8.363280e-03
1.560893e-02 -6.722244e-03 8.991283e-03
-4.019579e-04 -2.545564e-05 1.810590e-02
1.560928e-02 6.723858e-03 8.991189e-03
3.499701e-03 -1.707526e-02 8.717523e-03
1.632672e-03 1.713099e-02 8.716751e-03
-1.982454e-03 1.711449e-02 8.740248e-03
-5.430007e-03 1.672555e-02 8.752961e-03
-1.412306e-02 9.964107e-03 8.767398e-03
-1.161961e-02 1.275475e-02 8.836460e-03
-1.696235e-02 3.440704e-03 8.798618e-03
-1.380255e-02 8.568270e-03 -1.480049e-02
-1.380308e-02 -8.568096e-03 -1.480043e-02
8.575533e-05 -1.167145e-04 1.809672e-02
-1.272355e-03 1.252333e-02 -1.858189e-02
-1.041210e-02 3.661739e-03 -1.947892e-02
-1.041052e-02 -3.661548e-03 -1.947720e-02
-7.711595e-03 1.281018e-02 1.121067e-02
-7.688939e-03 -1.295377e-02 1.108862e-02
-1.313998e-02 -1.582518e-02 -1.770217e-03
-7.819455e-03 -1.880130e-02 -1.454751e-03
-1.098004e-02 -1.721319e-02 -1.702522e-03
-5.798261e-03 -6.956866e-03 -2.066025e-02
-5.799371e-03 6.957019e-03 -2.066059e-02
3.893130e-05 -1.113212e-04 1.844642e-02
3.766524e-03 -1.047863e-03 -2.223694e-02
-5.086693e-03 -1.976562e-02 -1.836798e-03
-1.549042e-02 -1.060198e-03 1.070615e-02
1.475252e-02 -2.984209e-03 -1.623129e-02
1.474611e-02 2.986975e-03 -1.622991e-02
-1.559761e-02 7.998222e-03 -1.249176e-02
-1.559669e-02 -7.998086e-03 -1.249351e-02
-2.217432e-03 -1.584476e-02 1.052853e-02
1.126654e-03 -1.593084e-02 1.045132e-02
4.378560e-03 -1.501082e-02 1.100118e-02
4.742435e-05 -1.141414e-04 1.830126e-02
6.797754e-03 -1.419219e-02 1.079924e-02
1.133962e-02 -1.083834e-02 1.071759e-02
5.866548e-03 -1.445077e-02 1.105570e-02
2.277096e-03 -1.583995e-02 1.055926e-02
-9.449187e-04 -1.585435e-02 1.062559e-02
-1.554640e-02 -6.672799e-03 9.060596e-03
-1.409493e-02 -8.430156e-03 9.919769e-03
9.785689e-03 -1.200872e-02 1.084471e-02
-1.727763e-03 -2.047800e-02 -4.056894e-03
-1.596237e-03 -1.561692e-02 1.091708e-02
6.953303e-05 2.487038e-04 1.834652e-02
1.634738e-02 -4.390229e-03 -1.332695e-02
1.634521e-02 4.390084e-03 -1.332811e-02
-4.692403e-03 1.379898e-02 1.168185e-02
1.286382e-02 -8.102807e-03 1.129935e-02
-3.979002e-03 -1.464304e-02 1.127212e-02
-3.986022e-03 1.461229e-02 1.127663e-02
3.753748e-03 -4.065173e-03 -2.206787e-02
-8.915632e-03 1.119273e-02 -1.700306e-02
-8.913459e-03 -1.119276e-02 -1.700458e-02
-1.358282e-02 -6.384137e-03 1.160596e-02
-1.408274e-04 3.522184e-04 1.828582e-02
-1.410106e-02 -4.485889e-03 -1.657781e-02
1.545029e-02 4.702308e-03 1.035709e-02
1.544774e-02 -4.700983e-03 1.035602e-02
-1.526410e-02 5.779147e-03 1.012754e-02
-1.526495e-02 -5.780076e-03 1.012591e-02
-1.080878e-02 -1.182230e-02 1.032406e-02
-1.036526e-02 -1.081313e-02 1.179143e-02
-6.512545e-03 -1.456996e-02 1.046872e-02
-6.472202e-03 -1.349772e-02 1.186275e-02
-7.846818e-03 -1.399299e-02 1.046331e-02
-4.215553e-04 4.589079e-05 1.820727e-02
-7.044827e-03 -1.305498e-02 1.177481e-02
-1.176739e-02 -1.058590e-02 1.055280e-02
-1.085680e-02 -1.032908e-02 1.159799e-02
-1.301347e-02 -7.175287e-03 1.178445e-02
-7.978666e-03 -1.575312e-02 -1.270832e-02
-1.605042e-02 -3.644420e-03 -1.456860e-02
1.538801e-02 9.508266e-03 -1.113801e-02
-2.348634e-03 1.533648e-02 1.084550e-02
-1.819808e-03 1.470490e-02 1.149975e-02
-1.048983e-02 1.221689e-02 1.031148e-02
-2.333131e-05 -2.612750e-04 1.833942e-02
-1.048894e-02 -1.221615e-02 1.031247e-02
1.337803e-02 -5.679974e-03 1.189759e-02
1.023558e-02 1.247779e-02 1.009654e-02
1.023555e-02 -1.247521e-02 1.009716e-02
-9.788659e-03 -1.285813e-02 1.003683e-02
-9.788911e-03 1.286029e-02 1.003954e-02
1.332149e-02 8.611699e-03 1.075273e-02
1.332106e-02 -8.611062e-03 1.075310e-02
1.423503e-02 3.165904e-03 -1.654589e-02
7.530519e-03 -1.312449e-02 1.139969e-02
1.237753e-04 5.216029e-05 1.854397e-02
-1.630652e-02 1.485630e-03 1.061499e-02
-1.506414e-02 6.296680e-03 9.858116e-03
-9.328630e-03 1.247605e-02 1.083209e-02
-1.412702e-02 7.866860e-03 9.735489e-03
-1.572592e-02 4.617586e-03 9.997366e-03
1.352287e-02 8.870328e-03 1.008129e-02
1.424253e-02 2.499132e-03 1.181711e-02
1.461862e-02 3.074273e-03 1.142023e-02
1.461561e-02 -3.070300e-03 1.142073e-02
4.159602e-03 1.562464e-02 9.944010e-03
-1.605746e-04 1.390581e-04 1.807480e-02
8.753240e-06 -3.022685e-04 1.838590e-02
1.467216e-02 -2.679784e-03 1.149993e-02
9.287044e-03 -1.211683e-02 -1.571387e-02
9.288351e-03 1.211755e-02 -1.571558e-02
-9.629358e-03 1.072293e-02 1.195806e-02
-9.629215e-03 -1.072239e-02 1.195759e-02
1.147277e-02 1.031975e-02 1.100847e-02
8.117312e-03 -1.279640e-02 -1.621188e-02
8.151417e-03 1.272953e-02 -1.626978e-02
-1.569017e-02 -7.724372e-03 -1.295427e-02
-1.282131e-02 -9.667665e-03 1.017583e-02
1.471979e-04 -2.375450e-04 1.834843e-02
-5.511448e-04 1.620204e-02 9.946986e-03
-3.597395e-03 -1.593774e-02 9.955726e-03
6.528161e-03 1.465312e-02 1.029948e-02
1.191195e-02 1.026709e-02 1.070688e-02
1.191154e-02 -1.026622e-02 1.070652e-02
1.585252e-02 -3.367731e-03 -1.462395e-02
1.162326e-02 -8.686424e-03 1.193036e-02
1.162374e-02 8.687420e-03 1.193067e-02
1.941138e-02 9.411540e-04 -8.262469e-03
1.396882e-02 5.391940e-03 1.179080e-02
1.646902e-04 -9.419990e-06 1.830614e-02
-1.509852e-02 -7.694706e-03 -1.366175e-02
-1.363917e-02 -2.491717e-03 1.246937e-02
-1.361681e-02 2.478018e-03 1.248539e-02
1.032332e-03 -1.465501e-02 1.139538e-02
6.460834e-04 -5.846501e-03 -2.193033e-02
4.616538e-03 -1.457081e-02 1.121728e-02
4.651427e-03 1.453233e-02 1.116901e-02
4.992101e-03 1.367469e-02 1.191224e-02
-7.074284e-03 1.381277e-02 1.111120e-02
1.534845e-02 1.644019e-03 1.117400e-02
-5.708712e-05 -2.715376e-04 1.825953e-02
1.055969e-02 1.096440e-02 1.077378e-02
1.055955e-02 -1.096445e-02 1.077353e-02
-1.475892e-02 -3.378209e-03 1.137113e-02
6.383118e-03 1.432642e-02 -1.498859e-02
6.717705e-03 -1.439020e-02 1.063751e-02
-3.967693e-03 6.600199e-03 -2.140665e-02
-3.849216e-03 -6.490678e-03 -2.147683e-02
1.482510e-03 -1.422046e-02 1.221196e-02
-1.535392e-03 -1.421328e-02 1.221286e-02
-1.491423e-02 3.894176e-04 1.167206e-02
1.818736e-04 -4.881658e-05 1.833281e-02
-1.264261e-02 -1.285929e-02 -1.204945e-02
-1.310387e-02 -1.264351e-02 -1.168635e-02
-1.092730e-02 -1.446861e-02 -1.191601e-02
-1.060492e-02 -1.473068e-02 -1.167667e-02
-7.967383e-03 -1.617758e-02 -1.200851e-02
-8.564289e-03 -1.617828e-02 -1.170314e-02
-5.730372e-03 -1.712425e-02 -1.193335e-02
-5.405278e-03 -1.745693e-02 -1.174657e-02
1.389326e-02 -8.352199e-03 -1.504148e-02
1.389124e-02 8.348864e-03 -1.504282e-02
2.133234e-05 4.681227e-05 1.831104e-02
-2.042028e-03 -1.531267e-02 1.115967e-02
-2.555049e-03 -1.533356e-02 1.104783e-02
2.237459e-03 1.985217e-02 -6.834674e-03
-1.878849e-02 -7.786197e-03 -3.654368e-03
9.973087e-03 1.230569e-02 1.036473e-02
-3.043380e-04 -1.574128e-02 1.055986e-02
5.713083e-03 1.494831e-02 1.039247e-02
8.269232e-03 1.331448e-02 1.054658e-02
2.454164e-03 -5.423255e-03 -2.189543e-02
-8.440756e-03 -1.154082e-02 1.208303e-02
-1.815356e-05 -8.318656e-05 1.810269e-02
-8.441214e-03 1.154328e-02 1.208701e-02
9.340647e-03 1.031923e-02 1.234730e-02
9.333128e-03 -1.031512e-02 1.235029e-02
1.712879e-02 8.581352e-03 -8.281216e-03
-4.388044e-03 -1.466921e-02 1.113484e-02
-4.863049e-03 -1.449494e-02 1.128335e-02
-8.922945e-03 -1.280699e-02 1.114949e-02
-9.304063e-03 -1.214769e-02 1.123113e-02
-1.449301e-02 1.117958e-02 -1.121862e-02
-1.449261e-02 -1.117909e-02 -1.121898e-02
1.193944e-04 4.697672e-05 1.806988e-02
-1.449798e-02 -1.275183e-02 5.262209e-03
-1.434097e-02 -1.210987e-02 6.160102e-03
-1.449818e-02 1.275162e-02 5.262512e-03
-1.434089e-02 1.210940e-02 6.159691e-03
6.818478e-03 1.238771e-02 1.221365e-02
-8.112536e-03 -2.936723e-03 -2.076326e-02
-8.113030e-03 2.936813e-03 -2.076402e-02
8.049709e-03 -1.326479e-02 -1.509529e-02
7.555650e-03 1.252171e-02 1.172061e-02
7.714388e-03 -1.252492e-02 1.173344e-02
3.010912e-05 1.239129e-04 1.828803e-02
-1.143248e-03 -2.242205e-03 -2.254844e-02
-1.147101e-03 -2.322644e-03 -2.265511e-02
-1.874290e-03 -1.755980e-03 -2.258279e-02
-2.866384e-03 1.707311e-02 -1.309831e-02
1.428235e-02 -1.949403e-03 1.207013e-02
9.763271e-04 -2.530104e-03 -2.283573e-02
1.413674e-02 -4.452671e-03 1.173892e-02
5.483262e-04 1.430242e-02 1.224255e-02
-2.444409e-03 1.427554e-02 1.222865e-02
-5.358116e-03 1.296992e-02 1.233101e-02
-2.787049e-04 3.082368e-05 1.812769e-02
-1.027302e-02 9.786432e-03 1.221351e-02
-1.106109e-02 9.047402e-03 1.215865e-02
-6.820645e-03 1.272690e-02 1.220410e-02
-3.686728e-03 1.368313e-02 1.226233e-02
-5.202258e-04 1.414616e-02 1.235358e-02
2.380429e-03 1.395724e-02 1.217796e-02
2.163196e-04 -1.039863e-03 -2.278146e-02
7.151396e-04 -5.050294e-04 -2.286479e-02
2.734644e-04 -9.301681e-04 -2.265515e-02
5.064976e-04 -4.773807e-04 -2.285979e-02
-2.894662e-04 2.218579e-05 1.821662e-02
2.033213e-05 -4.386451e-04 1.818062e-02
-1.169263e-02 -2.732796e-03 -1.898783e-02
-9.401864e-03 -1.165226e-02 1.156599e-02
-5.478141e-03 -1.411057e-02 1.158812e-02
-8.250896e-03 -1.271753e-02 1.155884e-02
1.294274e-02 6.569921e-03 1.220477e-02
9.878760e-03 1.082953e-02 -1.615854e-02
-1.464932e-02 5.115366e-03 1.105842e-02
-1.464982e-02 -5.116414e-03 1.105886e-02
8.394137e-03 1.410258e-02 -1.431974e-02
7.668626e-03 -1.421333e-02 -1.448537e-02
3.973047e-04 -5.502895e-04 1.818152e-02
-3.851650e-03 -1.444360e-02 1.164083e-02
1.366373e-02 -7.155827e-04 1.282244e-02
1.369927e-02 6.950217e-04 1.282058e-02
-1.210379e-02 -9.472220e-03 1.124818e-02
-1.210339e-02 9.472616e-03 1.124816e-02
1.755687e-02 5.055774e-03 -1.090687e-02
-1.446118e-02 6.358820e-03 1.072877e-02
-1.305399e-02 6.227371e-03 1.218963e-02
-1.446087e-02 -6.358418e-03 1.072890e-02
-1.305434e-02 -6.227466e-03 1.218967e-02
4.479999e-04 -2.659316e-04 1.817699e-02
1.825211e-02 -6.816478e-03 -8.346051e-03
1.825208e-02 6.816959e-03 -8.345999e-03
-8.965940e-03 1.215624e-02 1.161304e-02
-1.537171e-02 1.210278e-03 1.154456e-02
-1.191505e-02 7.013951e-03 1.250269e-02
-1.753048e-04 -1.118706e-04 -2.281628e-02
-1.219930e-04 -1.699491e-04 -2.289065e-02
5.217463e-04 -1.210192e-03 -2.279960e-02
4.975991e-03 -1.319107e-02 1.250745e-02
-1.029784e-02 1.404703e-02 -1.319846e-02
2.718316e-04 3.334359e-05 1.823383e-02
-1.603565e-02 6.686156e-03 -1.320557e-02
2.346437e-03 1.496358e-02 1.181627e-02
-1.019764e-03 2.831986e-04 -2.273024e-02
-1.019422e-03 -2.827815e-04 -2.272816e-02
-1.736665e-02 1.657450e-03 -1.276240e-02
-1.727694e-02 -1.978866e-03 -1.291947e-02
-1.664673e-02 -2.512638e-03 -1.368077e-02
-1.646751e-02 2.579245e-03 -1.377472e-02
1.345156e-02 1.257938e-02 -1.144712e-02
1.703803e-02 1.400333e-03 -1.350452e-02
-3.640581e-05 1.573941e-04 1.834729e-02
-7.894753e-03 1.205988e-02 1.230211e-02
-1.202076e-02 7.933108e-03 1.221377e-02
-1.395751e-02 3.297113e-03 1.218341e-02
-9.369070e-03 1.104048e-02 1.190925e-02
-1.443696e-02 2.168413e-03 1.191482e-02
9.736875e-03 9.818619e-03 1.266269e-02
7.437945e-03 1.575644e-02 -1.319639e-02
1.320244e-02 -6.177116e-03 1.175232e-02
1.417509e-02 -4.984655e-03 1.138965e-02
1.244334e-02 -6.241312e-03 1.256537e-02
-7.723782e-05 3.597660e-05 1.838713e-02
1.244368e-02 6.241548e-03 1.256444e-02
1.141566e-02 8.671955e-03 1.214674e-02
1.429899e-02 -2.935843e-03 1.179669e-02
1.439357e-02 2.990520e-03 1.178380e-02
-1.099055e-02 -1.024331e-02 1.145990e-02
-1.099074e-02 1.024345e-02 1.146012e-02
-1.515849e-02 4.324338e-03 -1.519953e-02
-1.515969e-02 -4.321705e-03 -1.519607e-02
-7.054888e-03 -1.314601e-02 1.120871e-02
7.003584e-03 -6.115177e-05 -2.168041e-02
-5.761682e-05 -1.450164e-04 1.817143e-02
-5.495111e-03 -1.390097e-02 1.130803e-02
-4.734401e-03 -1.414250e-02 1.115144e-02
-6.329409e-03 -1.365604e-02 1.119924e-02
1.257330e-02 -6.979140e-03 1.211822e-02
-1.189050e-02 6.289804e-03 1.289450e-02
-1.189092e-02 -6.289615e-03 1.289429e-02
2.930872e-04 1.787972e-05 -2.292494e-02
2.344377e-05 -4.935020e-06 -2.286005e-02
3.443564e-03 1.423088e-02 1.200465e-02
3.445312e-03 -1.411671e-02 1.196849e-02
6.938869e-05 -9.695284e-05 1.824521e-02
-1.499999e-02 -1.985889e-03 -1.582673e-02
7.452539e-03 -1.168983e-02 1.270438e-02
7.456206e-03 1.170617e-02 1.271125e-02
3.867616e-04 -1.393839e-02 1.263024e-02
-2.373928e-03 -1.813728e-02 -1.114171e-02
-3.029794e-03 -1.810807e-02 -1.123861e-02
9.445252e-03 1.006914e-02 1.220576e-02
9.445122e-03 -1.006871e-02 1.220565e-02
-5.687479e-03 1.397391e-02 1.153072e-02
1.888861e-02 -3.828019e-03 -9.066306e-03
1.532974e-04 -2.819171e-04 1.820660e-02
1.886698e-02 3.826099e-03 -9.078872e-03
-2.355158e-04 -1.421815e-02 1.227885e-02
4.487593e-03 -2.553943e-03 -2.241594e-02
4.488494e-03 2.554505e-03 -2.241696e-02
7.195915e-03 1.253663e-02 -1.676742e-02
1.719429e-02 1.020441e-02 -5.847273e-03
-7.554399e-03 1.625125e-02 -1.181000e-02
1.507936e-02 1.368227e-03 1.151921e-02
1.489471e-02 -1.094327e-03 1.170098e-02
1.875975e-02 -4.935901e-03 -8.772918e-03
3.063882e-04 -7.357600e-05 1.838748e-02
4.476082e-03 1.324696e-02 1.262009e-02
1.493667e-02 1.076602e-02 -1.113661e-02
-9.686204e-04 -1.968410e-02 -8.672835e-03
1.601315e-02 6.814136e-04 1.055778e-02
1.547891e-02 -5.958438e-04 1.109739e-02
-8.639423e-04 -3.330275e-03 -2.263580e-02
1.880341e-02 -5.843376e-03 -7.667213e-03
1.880333e-02 5.843783e-03 -7.667639e-03
3.654526e-04 1.201013e-04 -2.267474e-02
2.145997e-04 1.276145e-04 -2.297020e-02
-2.994297e-04 -4.102103e-04 1.823927e-02
9.616175e-05 6.890132e-05 1.853111e-02
-6.727182e-03 1.593489e-02 -1.352899e-02
-1.079295e-03 1.746161e-02 -1.318571e-02
1.744221e-02 9.342169e-04 -1.253992e-02
1.745858e-02 -1.011041e-03 -1.242315e-02
1.184200e-02 7.158524e-03 1.270589e-02
1.182730e-02 -7.152819e-03 1.272926e-02
5.631706e-05 6.548750e-04 -2.267287e-02
1.691636e-02 -7.559744e-03 -1.082645e-02
1.110894e-02 -1.466132e-02 -1.098230e-02
1.589561e-02 -1.162312e-02 -7.796918e-03
-5.358867e-05 9.611514e-05 1.819678e-02
7.080047e-03 -8.702186e-03 -1.939490e-02
7.079576e-03 8.701733e-03 -1.939501e-02
1.401296e-03 1.778501e-03 -2.268313e-02
1.397652e-03 -1.781014e-03 -2.268223e-02
-1.172763e-02 5.994483e-03 -1.784732e-02
-1.172683e-02 -5.993852e-03 -1.784813e-02
-1.367506e-02 2.413003e-03 1.283996e-02
8.135650e-03 1.134375e-02 1.280398e-02
-1.791449e-02 3.884627e-03 -1.166238e-02
-1.790659e-02 -3.886918e-03 -1.166187e-02
-1.141711e-04 1.022581e-04 1.840530e-02
-5.697494e-03 1.769385e-02 -1.076582e-02
-5.781856e-03 -1.778634e-02 -1.068150e-02
-1.766713e-02 -1.054463e-02 -2.238263e-03
-1.347412e-02 -4.118363e-03 1.246644e-02
-1.347214e-02 4.115684e-03 1.246836e-02
-7.263643e-03 1.193214e-02 1.265502e-02
1.313513e-02 6.309335e-03 1.237092e-02
-1.241106e-02 6.176429e-03 1.253248e-02
-1.287048e-02 5.052775e-03 1.257008e-02
2.939393e-03 1.345731e-02 1.288102e-02
-1.673876e-04 -1.102949e-04 1.844301e-02
-2.037994e-02 7.992375e-04 -5.660538e-03
-7.695729e-03 -1.164685e-02 1.266932e-02
-7.686660e-03 1.165343e-02 1.267805e-02
1.382536e-02 -9.543080e-03 -1.403985e-02
1.382490e-02 9.543033e-03 -1.404028e-02
-1.134200e-02 7.832426e-03 1.281304e-02
-9.101700e-03 1.026508e-02 1.289644e-02
-1.513568e-02 1.298727e-03 1.154975e-02
-1.515300e-02 -9.587274e-04 1.158324e-02
2.977309e-03 -1.324368e-02 1.293592e-02
2.546494e-04 -2.533244e-04 1.831342e-02
1.661108e-02 -9.632197e-03 -1.002107e-02
-1.161599e-02 -7.680836e-03 1.257317e-02