# vtk DataFile Version 2.0
Electric current density generated by TTH
ASCII
DATASET UNSTRUCTURED_GRID
POINTS 10449 double
3.296539e-05 2.351344e-05 -1.254186e-22
-1.545311e-05 -3.640101e-05 2.708221e-07
2.604970e-05 -3.029301e-05 -5.113605e-07
-3.458606e-06 -3.980316e-05 -5.113605e-07
3.881810e-05 9.267209e-06 5.071236e-07
3.936948e-05 6.887862e-06 -9.807618e-09
3.808049e-05 -1.222433e-05 1.850118e-08
1.073823e-05 -3.845911e-05 -3.476109e-08
7.028553e-06 -3.937998e-05 4.723738e-08
3.230088e-05 2.354531e-05 7.974821e-09
-1.616081e-05 -3.659850e-05 2.226750e-08
1.186705e-05 -3.818753e-05 -4.204980e-08
3.624651e-05 1.561866e-05 2.330199e-08
1.288979e-05 3.777858e-05 3.139417e-08
3.069476e-05 -2.568043e-05 1.513428e-10
1.735978e-06 -3.994170e-05 -6.508056e-09
3.855445e-05 -1.062277e-05 5.137192e-08
2.268018e-05 3.288873e-05 2.638810e-08
3.559790e-05 1.815545e-05 -3.996024e-08
3.556467e-05 -1.816182e-05 3.401740e-08
-1.104484e-05 -3.841652e-05 1.002163e-08
3.317934e-05 -2.226756e-05 -4.896424e-08
3.195670e-05 2.396393e-05 -1.746354e-08
3.925689e-05 5.231302e-06 3.476167e-07
1.984112e-05 3.473558e-05 -9.904636e-09
2.363482e-06 -3.996589e-05 -1.485254e-08
2.115515e-05 3.388832e-05 -2.234884e-08
1.345643e-05 3.764937e-05 -1.960614e-08
1.895807e-05 3.518724e-05 2.464374e-08
-1.416478e-05 -3.739220e-05 3.915943e-09
2.465449e-05 -3.154143e-05 -5.120517e-09
-1.606337e-06 -3.999421e-05 -1.412658e-08
-1.206946e-05 -3.810308e-05 1.577480e-09
3.102515e-05 -2.512224e-05 -3.421254e-09
3.925689e-05 -5.231302e-06 -3.476167e-07
-2.110183e-05 -3.395593e-05 -2.996517e-08
-1.529483e-05 3.695989e-05 -2.722363e-08
3.365382e-06 3.985771e-05 -2.729300e-08
-6.138174e-06 3.952579e-05 -2.722363e-08
-3.761952e-05 -1.359127e-05 -2.747044e-08
-3.796208e-05 1.260341e-05 -2.722377e-08
-3.914007e-05 -8.142940e-06 -4.165569e-08
3.064385e-05 2.568634e-05 2.179702e-08
-8.501531e-06 -3.908710e-05 2.215231e-08
-4.737509e-07 3.998306e-05 -2.762256e-08
-5.449047e-06 -3.909095e-05 -3.306854e-08
-3.488912e-05 1.953508e-05 -2.761909e-08
-2.360178e-05 3.227646e-05 -2.715546e-08
-2.424509e-05 -3.179606e-05 -2.715389e-08
3.890734e-05 -9.401545e-06 1.613124e-08
3.693028e-05 -1.537503e-05 -2.448366e-08
2.777501e-05 2.877476e-05 3.054961e-09
3.848821e-05 1.080919e-05 1.785372e-08
2.844953e-05 -2.809118e-05 5.021552e-08
-6.692764e-06 -3.941695e-05 5.029609e-08
-3.554350e-05 -1.840145e-05 3.248887e-09
2.724968e-05 2.855258e-05 3.308304e-08
3.788985e-05 -1.283850e-05 -3.759553e-08
2.985233e-05 2.658850e-05 3.148504e-09
2.984294e-05 -2.659609e-05 -8.463568e-09
1.563417e-05 3.683405e-05 2.877955e-08
1.692022e-05 3.629771e-05 6.900014e-08
3.998571e-05 -1.312008e-07 -4.279762e-10
3.489884e-05 1.948862e-05 2.551486e-08
3.905536e-05 -8.423222e-06 -4.498914e-08
-4.565949e-06 -3.975184e-05 -1.817035e-08
2.691868e-05 -2.960474e-05 -1.816979e-08
2.724968e-05 -2.855258e-05 -3.308304e-08
3.873024e-05 -9.976595e-06 -1.060516e-08
-3.851798e-05 1.073276e-05 -4.193813e-08
-8.056102e-06 3.916537e-05 -4.194408e-08
-1.707348e-05 3.615693e-05 -4.193633e-08
-3.871734e-05 -9.989786e-06 -4.192964e-08
1.075855e-05 3.849572e-05 -5.083063e-08
3.486723e-05 -1.955899e-05 -2.648692e-08
1.598060e-05 -3.665755e-05 1.411877e-08
-3.985326e-05 3.241094e-06 -4.150187e-08
-2.043562e-05 3.436809e-05 -4.159090e-08
2.255611e-05 -3.238902e-05 -3.880985e-08
-2.714978e-05 -2.935433e-05 -4.149414e-08
8.300975e-06 -3.906039e-05 1.493799e-09
7.688285e-06 -3.927177e-05 -4.231655e-09
3.937076e-05 -6.765229e-06 3.698549e-08
-3.690300e-05 -1.533303e-05 -5.055188e-09
-3.613917e-05 -1.706709e-05 -1.912614e-08
1.483576e-06 3.993412e-05 -5.077699e-09
-3.386549e-05 2.122080e-05 -1.822849e-08
3.991797e-05 3.007642e-06 -1.639688e-08
1.730979e-05 -3.606944e-05 -1.223342e-08
3.844295e-06 -3.938252e-05 3.065048e-07
3.837931e-05 -1.122880e-05 -2.493320e-09
-1.263531e-05 -3.792125e-05 -1.454045e-08
3.351707e-05 -2.180204e-05 -5.433887e-09
3.653185e-05 -1.626018e-05 -6.182147e-09
3.731750e-05 1.442885e-05 -3.786304e-08
-1.821457e-05 3.561789e-05 -1.975798e-08
-2.152184e-05 3.372261e-05 -1.975358e-08
-2.622237e-05 -3.021244e-05 -1.975313e-08
-3.840185e-05 -1.121171e-05 -1.975553e-08
-2.322811e-05 -3.257066e-05 -2.078766e-08
2.594537e-06 -3.946771e-05 2.826298e-07
2.247020e-05 -3.307860e-05 2.047675e-08
-3.885577e-05 9.517343e-06 -1.986252e-08
-3.995472e-05 1.982896e-06 -2.080170e-08
-3.551081e-05 1.842065e-05 -2.090043e-08
-2.463249e-05 3.152109e-05 -2.089740e-08
-1.749030e-06 3.996548e-05 -2.185895e-08
-9.290762e-06 3.891006e-05 -2.080648e-08
9.594390e-06 3.883662e-05 -2.000366e-08
1.402930e-05 -3.744809e-05 -8.764542e-09
3.880311e-05 9.713033e-06 5.052705e-08
3.277758e-05 2.377455e-05 -1.254186e-22
2.454235e-05 -3.102479e-05 2.907158e-07
5.703225e-06 -3.960974e-05 -5.972311e-09
3.765930e-05 -1.344432e-05 -2.200801e-08
3.511839e-05 1.904191e-05 1.546716e-08
-3.949437e-05 -6.252215e-06 -1.394301e-08
2.550654e-05 3.076723e-05 -1.349563e-08
-1.521676e-05 -3.700263e-05 -1.035248e-08
-1.725335e-05 -3.608948e-05 9.507041e-09
8.979147e-06 3.895278e-05 -2.736788e-08
-3.936360e-05 6.971147e-06 -3.853684e-08
-2.799890e-05 2.853335e-05 -3.825909e-08
2.552522e-05 -3.024317e-05 3.135626e-07
-3.659416e-05 1.607474e-05 -4.312897e-08
-3.973751e-05 -4.472340e-06 -6.482896e-08
-3.218328e-05 -2.369678e-05 -3.862640e-08
-3.988754e-05 -2.506612e-06 -3.860978e-08
-3.432770e-05 -2.048384e-05 -2.789611e-08
-3.994426e-05 1.381056e-06 -4.559351e-08
-3.058749e-05 2.573900e-05 -3.825920e-08
-2.347492e-06 3.989914e-05 -4.586005e-08
-3.176557e-05 2.425862e-05 -4.334563e-08
-3.101862e-05 -2.521776e-05 -3.825920e-08
-1.807623e-06 -3.951705e-05 2.907158e-07
-2.510399e-05 3.110844e-05 -2.740467e-08
-1.178835e-05 3.819854e-05 -3.873431e-08
-2.978544e-05 -2.665258e-05 -4.334564e-08
-9.865570e-06 3.873141e-05 -4.559366e-08
-3.897054e-05 8.901777e-06 -2.736061e-08
-3.576798e-05 1.784929e-05 -2.740514e-08
-2.931191e-05 2.716829e-05 -3.884543e-08
-2.659308e-05 2.983470e-05 -3.862495e-08
-3.327571e-05 -2.213659e-05 -3.862503e-08
-3.996174e-05 -6.033704e-07 -3.883501e-08
-3.061932e-06 -3.945644e-05 3.135626e-07
7.049303e-06 3.934967e-05 -3.853631e-08
2.845007e-05 2.809190e-05 -4.899881e-08
3.769916e-05 1.330483e-05 1.390078e-08
3.888755e-05 9.170303e-06 1.212833e-08
-2.268899e-05 -3.292521e-05 -2.356614e-08
-2.571964e-05 -3.061631e-05 -2.359054e-08
-3.962953e-05 5.071709e-06 -4.572507e-08
-3.288633e-05 2.268655e-05 -4.576803e-08
-1.359942e-05 3.756702e-05 -4.562973e-08
-3.819774e-05 -1.182340e-05 -2.352350e-08
2.551285e-05 3.023315e-05 -2.922536e-07
-2.205185e-05 3.335527e-05 -2.359056e-08
-4.347338e-06 3.971555e-05 -4.562296e-08
5.147694e-06 3.962182e-05 -4.317481e-08
-3.731217e-05 1.428259e-05 -4.576920e-08
-1.877713e-05 3.530266e-05 -2.359257e-08
-2.845143e-05 -2.804824e-05 -4.586438e-08
3.142185e-05 2.473108e-05 7.357995e-09
3.992637e-05 -2.576302e-06 1.019411e-08
-7.885596e-06 -3.917235e-05 -2.247672e-08
3.921073e-05 -7.614608e-06 7.533450e-09
3.822391e-05 1.041854e-05 3.626085e-07
2.338739e-05 -3.247340e-05 1.678678e-08
6.321964e-06 -3.948660e-05 -2.633121e-08
2.920587e-05 -2.726428e-05 -5.663149e-08
1.223145e-05 3.803454e-05 -7.197208e-09
2.512190e-05 3.111110e-05 4.323185e-09
-3.492881e-05 -1.940419e-05 2.676917e-09
2.165288e-05 3.362148e-05 -2.056162e-08
3.952150e-05 5.832901e-06 -2.895593e-08
3.970190e-05 -4.951146e-06 -7.966366e-11
3.952185e-05 -5.847711e-06 3.124423e-08
2.067111e-05 -3.377699e-05 3.436197e-07
2.921454e-05 2.726178e-05 4.555197e-08
4.744473e-06 -3.964756e-05 -1.103283e-08
3.970145e-05 4.916647e-06 -2.200796e-08
-6.572117e-07 -4.000099e-05 1.786474e-08
3.991589e-05 1.980674e-06 1.949635e-08
3.745710e-05 -1.402588e-05 2.296740e-08
3.993758e-05 -1.437844e-06 8.312171e-09
3.804506e-05 1.221588e-05 -2.296433e-08
-1.468252e-05 -3.719671e-05 -1.725696e-08
3.205908e-05 -2.391735e-05 -2.615485e-09
2.071730e-05 3.374729e-05 -3.423066e-07
2.348038e-05 3.236340e-05 4.389629e-09
2.541685e-05 -3.088177e-05 -1.148753e-08
-2.601133e-06 -3.991132e-05 -1.168256e-08
1.764835e-05 3.588587e-05 -3.952363e-08
-3.819748e-05 1.177020e-05 1.277698e-08
-3.895975e-05 -8.934419e-06 1.297779e-08
-6.986863e-06 3.935440e-05 1.277696e-08
2.499418e-06 3.989068e-05 1.322612e-08
-1.607908e-05 3.659301e-05 1.277699e-08
-3.728788e-05 -1.439192e-05 1.322461e-08
3.739549e-05 -1.307653e-05 3.601368e-07
2.427867e-05 3.177093e-05 -3.612971e-09
2.050461e-05 -3.427611e-05 -1.999701e-08
-2.106039e-06 -3.992978e-05 -3.607941e-08
2.899995e-06 -3.986041e-05 -2.989416e-08
3.582869e-05 -1.773694e-05 1.821965e-08
3.347797e-05 2.179968e-05 -9.845155e-09
3.974155e-05 4.333040e-06 -4.005708e-09
3.972452e-05 -4.440862e-06 2.091364e-08
3.995338e-05 1.337152e-06 -1.893678e-08
2.708962e-05 2.947515e-05 1.609186e-08
-1.883801e-05 -3.492184e-05 -4.141638e-07
3.623515e-05 1.682635e-05 4.001412e-08
3.512475e-06 -3.982810e-05 2.805940e-09
-1.784210e-05 -3.584577e-05 -3.737082e-08
-1.913093e-05 -3.508582e-05 2.701125e-09
2.031586e-05 3.452654e-05 4.052778e-08
1.922447e-05 -3.505452e-05 1.360252e-08
7.052848e-07 -3.999592e-05 -3.468254e-10
2.502530e-05 -3.118678e-05 -3.471744e-08
3.982684e-05 -3.405327e-06 2.638253e-08
3.710777e-05 -1.492879e-05 -1.798459e-08
3.258770e-05 2.403416e-05 -1.254186e-22
3.631363e-05 -1.569822e-05 2.952424e-07
6.187895e-06 3.955854e-05 -1.523282e-08
-2.920960e-05 -2.732517e-05 4.078428e-08
-3.166675e-05 -2.447816e-05 4.627451e-08
-2.589832e-05 3.051674e-05 4.654917e-08
-2.732292e-05 2.924759e-05 4.627515e-08
-3.231824e-05 2.356685e-05 4.078457e-08
-3.279699e-05 -2.294163e-05 4.627499e-08
-1.085625e-05 3.855276e-05 3.655878e-09
-3.319428e-06 3.990322e-05 -1.379923e-08
-1.264956e-05 3.798887e-05 -1.526251e-08
2.305984e-05 3.219403e-05 -3.440647e-07
-4.005028e-05 3.800497e-07 3.668531e-09
-3.385335e-05 -2.135289e-05 4.654801e-08
-2.869869e-05 2.793648e-05 2.071683e-09
-3.922840e-05 7.945402e-06 4.654788e-08
-3.048959e-05 -2.597014e-05 2.056136e-09
-2.998255e-05 2.651434e-05 4.627399e-08
-3.999489e-05 -1.539454e-06 4.627450e-08
-3.624427e-05 1.698084e-05 4.653113e-08
[...]
POINT_DATA 10449
VECTORS 10.000GHz_fone_imag double
4.395632e+10 -6.061098e+10 -3.356758e+08
-7.340928e+10 3.127553e+10 3.858928e+08
-5.833167e+10 -5.185430e+10 5.539855e+08
-7.775485e+10 8.040610e+09 -5.546429e+08
1.807994e+10 -7.666516e+10 -1.244208e+09
1.327799e+10 -7.630355e+10 -5.247496e+07
-2.412460e+10 -7.425025e+10 -5.905492e+08
-7.549425e+10 -2.119163e+10 1.977847e+08
-7.671464e+10 -1.381326e+10 2.219960e+08
4.616793e+10 -6.274898e+10 1.989258e+07
-7.052404e+10 3.248308e+10 1.209764e+08
-7.501676e+10 -2.215470e+10 -2.664632e+08
3.146585e+10 -7.623414e+10 -8.085654e+08
7.465357e+10 -2.546095e+10 2.742760e+06
-4.952607e+10 -5.951134e+10 -5.513419e+07
-7.813028e+10 -2.946293e+09 1.109954e+08
-2.076864e+10 -7.533263e+10 9.163748e+07
6.390055e+10 -4.528246e+10 1.360015e+08
3.524354e+10 -6.959155e+10 -7.102737e+08
-3.516321e+10 -6.988599e+10 -5.938984e+08
-7.533517e+10 2.182443e+10 -4.514420e+08
-4.351985e+10 -6.480405e+10 -1.353364e+08
4.670779e+10 -6.281457e+10 2.669647e+08
1.149053e+10 -8.205912e+10 3.825498e+08
6.766181e+10 -3.808154e+10 1.735093e+08
-7.801239e+10 -4.884903e+09 -1.829111e+08
6.615766e+10 -4.065971e+10 -1.322865e+09
7.303113e+10 -2.524128e+10 -5.105476e+08
6.840306e+10 -3.724567e+10 -2.908755e+08
-7.239414e+10 2.730317e+10 9.960040e+07
-6.156714e+10 -4.800607e+10 -1.020560e+08
-7.813402e+10 3.186140e+09 3.406802e+08
-7.401763e+10 2.362161e+10 1.619765e+08
-4.975144e+10 -6.129077e+10 -4.893823e+08
-1.201906e+10 -8.093776e+10 6.741401e+08
-6.640000e+10 4.055651e+10 4.829625e+08
7.142288e+10 3.024816e+10 3.627948e+08
7.733573e+10 -5.900951e+09 3.717501e+08
7.654856e+10 1.253276e+10 3.767224e+08
-2.693986e+10 7.273433e+10 3.566251e+08
2.383240e+10 7.381552e+10 3.732463e+08
-1.652867e+10 7.594975e+10 2.414852e+08
4.988033e+10 -5.982587e+10 9.914267e+07
-7.593717e+10 1.628696e+10 -2.900625e+08
7.773840e+10 1.349772e+09 5.447228e+07
-7.974711e+10 9.152179e+09 4.617439e+08
3.761082e+10 6.804916e+10 4.788071e+07
6.249552e+10 4.625603e+10 1.764940e+08
-6.209762e+10 4.678701e+10 1.744526e+08
-1.850919e+10 -7.535199e+10 3.609009e+07
-3.051003e+10 -7.157270e+10 -1.182484e+08
5.622993e+10 -5.438667e+10 4.871978e+08
2.146602e+10 -7.472487e+10 4.581253e+08
-5.563351e+10 -5.554958e+10 -3.385584e+08
-7.761398e+10 1.261983e+10 3.736745e+08
-3.584410e+10 6.933454e+10 8.292521e+08
5.960482e+10 -5.460209e+10 -3.088880e+07
-2.517584e+10 -7.405016e+10 -2.885601e+08
5.114884e+10 -5.808414e+10 1.077594e+09
-5.119570e+10 -5.818909e+10 1.268815e+09
7.167539e+10 -3.064458e+10 3.800466e+08
6.905378e+10 -3.393009e+10 1.625742e+09
-1.315888e+08 -7.776895e+10 8.858823e+07
3.738611e+10 -6.829133e+10 -1.870676e+08
-1.612208e+10 -7.623928e+10 -2.347090e+08
-7.694204e+10 8.959886e+09 4.989491e+08
-5.723385e+10 -5.219896e+10 -4.967898e+08
-5.935934e+10 -5.398532e+10 -4.560512e+08
-1.942357e+10 -7.513022e+10 1.834144e+07
2.041597e+10 7.506532e+10 1.899402e+08
7.608871e+10 1.618941e+10 1.935983e+08
7.011681e+10 3.368644e+10 1.874684e+08
-1.990061e+10 7.520443e+10 1.871898e+08
7.519542e+10 -2.026058e+10 3.031079e+08
-3.763444e+10 -6.813448e+10 -2.249296e+08
-7.108847e+10 -3.133866e+10 2.607290e+07
5.753194e+09 7.757523e+10 3.156776e+08
6.658455e+10 4.021786e+10 2.961512e+08
-6.647413e+10 -4.677843e+10 2.611153e+08
-5.747784e+10 5.240668e+10 3.089862e+08
-7.664208e+10 -1.675648e+10 -2.048293e+08
-7.589262e+10 -1.507347e+10 2.178610e+08
-1.304725e+10 -7.699271e+10 4.609168e+07
-2.993481e+10 7.192123e+10 -2.966007e+08
-3.327619e+10 7.039738e+10 -6.237031e+07
7.784844e+10 -2.839419e+09 -2.797012e+08
4.131037e+10 6.602489e+10 1.065506e+08
5.201526e+09 -7.765628e+10 2.007295e+08
-7.007907e+10 -3.373521e+10 3.283607e+08
-8.008085e+10 -7.240366e+09 1.347937e+08
-2.190253e+10 -7.461713e+10 -3.240907e+08
-7.391631e+10 2.415832e+10 8.269247e+07
-4.282529e+10 -6.473843e+10 5.976542e+07
-3.111687e+10 -7.102660e+10 4.837602e+07
2.829768e+10 -7.214764e+10 -2.886421e+08
6.940189e+10 3.563538e+10 5.632512e+07
6.569263e+10 4.208001e+10 5.181588e+07
-5.900529e+10 5.102987e+10 5.004742e+07
-2.200356e+10 7.484658e+10 4.937544e+07
-6.360814e+10 4.517883e+10 -4.019934e+07
-7.957991e+10 -6.528328e+09 -7.165986e+08
-6.440813e+10 -4.417376e+10 -9.773233e+05
1.836422e+10 7.582583e+10 5.178055e+07
3.638596e+09 7.794815e+10 1.322717e+08
3.572345e+10 6.936496e+10 -4.034430e+07
6.134055e+10 4.821881e+10 -3.683743e+07
7.795186e+10 3.686999e+09 4.671144e+07
7.584675e+10 1.834953e+10 1.350571e+08
7.579254e+10 -1.850853e+10 4.355412e+07
-7.273999e+10 -2.721816e+10 6.628063e+07
1.878761e+10 -7.547318e+10 4.992858e+08
4.290696e+10 -6.248612e+10 -5.651783e+08
-6.163847e+10 -5.001674e+10 -6.025236e+08
-7.692102e+10 -1.109936e+10 4.238895e+08
-2.632393e+10 -7.355776e+10 6.755357e+08
3.684989e+10 -6.859432e+10 1.809754e+08
-1.247865e+10 7.687062e+10 1.400847e+08
6.048628e+10 -4.929175e+10 -7.706557e+08
-7.195781e+10 2.915764e+10 -5.326454e+07
-7.030008e+10 3.299738e+10 -3.496396e+08
7.609014e+10 -1.741688e+10 2.831421e+08
1.342534e+10 7.686171e+10 3.611218e+07
5.556283e+10 5.477034e+10 1.329569e+07
-6.201522e+10 -5.217241e+10 -8.997169e+08
3.153612e+10 7.148908e+10 3.386835e+08
-8.570612e+09 7.761757e+10 -5.878910e+07
-4.625457e+10 6.296552e+10 2.320239e+08
-4.805164e+09 7.798847e+10 2.286048e+08
-4.017291e+10 6.692224e+10 2.194504e+08
2.768377e+09 7.807124e+10 -1.798022e+08
5.007477e+10 5.983127e+10 1.752512e+07
7.799625e+10 4.536428e+09 -1.843407e+08
4.749581e+10 6.204700e+10 2.947748e+08
-4.938515e+10 6.040213e+10 7.731298e+06
-7.953565e+10 4.465953e+09 6.760572e+08
6.065588e+10 4.913596e+10 2.707734e+08
7.448884e+10 2.321641e+10 -2.025494e+06
-5.203886e+10 5.828831e+10 2.913672e+08
7.572541e+10 1.915278e+10 -1.934702e+08
1.726759e+10 7.612456e+10 2.831204e+08
3.475125e+10 6.989700e+10 2.667744e+08
5.316014e+10 5.725568e+10 1.838969e+08
5.838625e+10 5.191492e+10 2.304697e+08
-4.319652e+10 6.510162e+10 2.320744e+08
-1.117543e+09 7.812789e+10 1.892915e+08
-8.073040e+10 6.202850e+09 8.210884e+08
7.683531e+10 -1.357009e+10 3.482325e+07
5.557751e+10 -5.554766e+10 -3.301243e+08
2.516384e+10 -7.352015e+10 4.833219e+08
1.795158e+10 -7.554030e+10 -7.305499e+08
-6.441332e+10 4.388737e+10 -9.619912e+07
-5.994614e+10 4.981287e+10 -7.602732e+07
9.824008e+09 7.776549e+10 -2.000971e+08
4.442283e+10 6.455491e+10 -1.676333e+08
7.365497e+10 2.678544e+10 -2.192846e+08
-2.341798e+10 7.434038e+10 -8.510550e+07
6.194934e+10 -4.965337e+10 4.495493e+08
6.480695e+10 4.330718e+10 -7.304631e+07
7.789927e+10 8.648786e+09 -2.119844e+08
7.768474e+10 -9.841582e+09 -1.122663e+08
2.794755e+10 7.321871e+10 -1.736063e+08
6.863498e+10 3.694476e+10 -7.127347e+07
-5.507378e+10 5.575807e+10 -1.524804e+08
4.877035e+10 -6.052129e+10 1.227922e+09
-5.141001e+09 -7.703707e+10 4.885705e+08
-7.668229e+10 1.596318e+10 3.111810e+08
-1.519123e+10 -7.651127e+10 -6.815577e+08
2.133407e+10 -7.668668e+10 1.253780e+08
-6.290821e+10 -4.547359e+10 -1.406815e+08
-7.703382e+10 -1.223733e+10 -3.806868e+08
-5.329927e+10 -5.757277e+10 -6.189339e+08
7.404574e+10 -2.424558e+10 2.448140e+08
6.025348e+10 -4.908666e+10 -1.469216e+08
-3.734909e+10 6.817467e+10 -5.517659e+08
6.564315e+10 -4.194092e+10 6.474633e+08
1.113141e+10 -7.768742e+10 4.028504e+08
-1.017794e+10 -7.673635e+10 1.233500e+08
-1.084533e+10 -7.764974e+10 6.666911e+08
-6.827992e+10 -4.088727e+10 -5.608588e+08
5.323814e+10 -5.761168e+10 -4.303822e+08
-7.795745e+10 -9.375838e+09 -3.969235e+08
1.015915e+10 -7.699990e+10 1.551243e+08
-7.764969e+10 1.103200e+09 -1.202479e+07
4.475999e+09 -7.774143e+10 -2.468978e+08
-2.730135e+10 -7.305182e+10 -2.974242e+08
-2.296325e+09 -7.805768e+10 -4.935878e+08
2.338959e+10 -7.426415e+10 -3.744168e+08
-7.220941e+10 2.815940e+10 -9.287848e+07
-4.664699e+10 -6.229483e+10 -1.212269e+08
6.708634e+10 -4.199494e+10 -1.910329e+09
6.320677e+10 -4.578870e+10 -2.876175e+08
-6.034887e+10 -4.931485e+10 -8.156650e+07
-7.779884e+10 4.751620e+09 1.065842e+08
7.017394e+10 -3.366056e+10 -5.665817e+07
2.357237e+10 7.457551e+10 -3.416553e+08
-1.698372e+10 7.633716e+10 -3.117446e+08
7.710565e+10 1.311322e+10 -3.413640e+08
7.803816e+10 -5.432299e+09 -3.765872e+08
7.183160e+10 3.094552e+10 -3.361634e+08
-2.766026e+10 7.317417e+10 -3.775298e+08
-2.625860e+10 -7.444649e+10 1.735230e+09
6.184474e+10 -4.741151e+10 -4.163848e+08
-6.700675e+10 -4.070691e+10 2.581101e+08
-7.784427e+10 4.548668e+09 -2.007489e+07
-7.798002e+10 -6.295207e+09 -9.676826e+06
-3.417745e+10 -6.970127e+10 9.907861e+08
4.302855e+10 -6.590357e+10 2.071111e+08
8.466295e+09 -7.767979e+10 3.085470e+08
-8.589284e+09 -7.755328e+10 3.690238e+08
2.276230e+09 -7.787556e+10 -1.336654e+08
5.722308e+10 -5.239838e+10 -1.663504e+08
-7.019218e+10 3.831359e+10 -2.391621e+08
3.291236e+10 -7.143362e+10 3.493400e+07
-7.793281e+10 -6.640169e+09 -3.032145e+08
-7.017011e+10 3.484283e+10 -1.363440e+08
-6.948029e+10 3.669091e+10 -1.014420e+09
6.705247e+10 -3.995778e+10 1.048399e+09
-6.824251e+10 -3.777759e+10 1.650132e+08
-7.747209e+10 -9.636222e+08 8.220004e+08
-6.046513e+10 -4.921360e+10 6.908930e+07
-5.826753e+09 -7.761516e+10 -4.948925e+08
-2.898613e+10 -7.249390e+10 2.383123e+08
4.518819e+10 -5.888552e+10 -4.135390e+07
-3.178604e+10 -7.522727e+10 2.374552e+08
7.658899e+10 -1.264841e+10 -3.559348e+08
-5.294539e+10 5.675784e+10 -8.466565e+08
-4.757682e+10 6.141687e+10 -6.371832e+07
5.917369e+10 5.032661e+10 -5.147508e+07
5.671896e+10 5.310059e+10 -5.722695e+07
4.582857e+10 6.264328e+10 -8.515530e+08
-4.460327e+10 6.361510e+10 -5.749835e+07
7.482492e+10 2.099713e+10 2.771302e+08
7.744736e+10 6.037825e+09 -1.967366e+08
7.385316e+10 2.391004e+10 -3.424772e+08
6.552032e+10 -4.564484e+10 -1.510815e+09
8.163167e+08 7.768536e+10 2.656670e+08
-4.155602e+10 6.565399e+10 -4.645464e+07
5.436817e+10 5.540964e+10 1.317347e+08
1.532362e+10 7.617625e+10 -4.862178e+07
-5.006915e+10 5.930851e+10 1.408429e+08
5.139883e+10 5.826026e+10 -6.163613e+07
-3.079788e+09 7.762140e+10 -6.059311e+07
3.286764e+10 7.040556e+10 -4.047103e+07
2.973041e+10 7.169905e+10 -8.361323e+08
4.886281e+10 6.030656e+10 1.469843e+08
6.167088e+09 -7.937545e+10 8.001947e+08
1.248370e+10 7.661778e+10 -3.479315e+08
-6.860741e+09 7.736776e+10 -7.235919e+07
7.614337e+10 -1.548192e+10 -4.691996e+07
-7.571200e+10 1.886296e+10 6.987082e+08
4.344156e+10 -6.464899e+10 -4.492836e+08
-6.389771e+10 -4.441091e+10 2.455110e+08
-6.867866e+10 3.670337e+10 1.485388e+09
-5.655137e+10 -5.428588e+10 6.847444e+07
-7.760561e+10 1.104603e+10 -6.583220e+07
3.727545e+10 6.833940e+10 -1.290520e+08
-6.546078e+09 -7.897258e+10 -2.502406e+08
7.782766e+10 1.793581e+09 -1.227052e+08
6.232377e+10 4.664363e+10 -1.134574e+08
-6.241187e+10 4.652626e+10 -1.201084e+08
-3.730403e+10 -6.854001e+10 9.317614e+07
-6.562681e+10 -4.184493e+10 1.560839e+07
-7.136535e+10 3.257252e+10 -3.806172e+07
-3.471589e+10 7.002150e+10 -4.713970e+08
7.812122e+10 -1.382490e+09 -3.121240e+08
4.017714e+10 6.701776e+10 -3.223088e+08
-3.141643e+10 7.156690e+10 -4.218556e+08
6.307449e+10 -4.891401e+10 -2.450115e+08
3.172103e+10 -7.161986e+10 -2.976268e+08
-7.536790e+10 1.929939e+10 -4.036472e+08
-3.906707e+10 6.747985e+10 2.070057e+08
-6.811689e+10 -3.816064e+10 -3.456496e+08
5.867486e+10 -5.197444e+10 -2.959216e+07
-6.625139e+10 -4.030641e+10 -5.051330e+07
-5.129540e+10 -5.871941e+10 -8.915586e+07
-6.950473e+10 -3.438412e+10 2.617007e+08
2.231546e+10 -7.432540e+10 2.426537e+08
7.021215e+09 -7.765869e+10 -4.686300e+08
-7.071314e+10 3.488899e+10 -1.347231e+09
-7.352635e+10 -2.563184e+10 1.995629e+07
6.887925e+10 -3.605830e+10 -3.310634e+07
-6.652706e+10 4.049160e+10 -4.909115e+08
7.610561e+10 1.649850e+10 -3.198309e+08
6.648754e+10 4.052802e+10 -3.182481e+08
7.005785e+10 3.399407e+10 -3.232807e+08
-2.029092e+10 7.516982e+10 -3.292255e+08
2.007664e+10 7.522614e+10 -3.262370e+08
-5.772889e+10 5.226025e+10 -3.113077e+08
5.469935e+09 7.767978e+10 -3.031255e+08
8.973375e+09 -7.839139e+10 7.201900e+08
7.517451e+10 -2.031709e+10 -3.962422e+08
-7.560482e+10 -1.855608e+10 -5.223555e+08
5.113093e+10 -5.875550e+10 5.171949e+07
3.918238e+10 -6.715708e+10 5.888858e+08
6.486497e+10 -4.317312e+10 2.720002e+08
-6.771208e+10 3.795502e+10 7.701751e+07
4.512987e+10 -6.379394e+10 3.616125e+08
-4.022159e+10 -6.628881e+10 3.069790e+08
-9.391212e+09 7.738181e+10 -7.319436e+08
4.383425e+10 6.505759e+10 -6.137563e+08
-9.931104e+09 -8.076441e+10 2.347707e+08
7.346687e+10 2.748785e+10 -6.138967e+08
-2.404581e+10 7.482163e+10 -5.478065e+08
7.787715e+10 9.365863e+09 -6.148340e+08
2.726434e+10 7.355489e+10 -6.082170e+08
-6.520292e+10 4.387211e+10 -5.514371e+08
-4.461179e+10 -6.430300e+10 1.030532e+08
7.791821e+10 -9.464175e+09 -7.278933e+08
6.897043e+10 3.765626e+10 -4.464668e+08
-5.565864e+10 5.525694e+10 -4.994424e+08
6.507812e+10 4.404005e+10 -4.538379e+08
-2.206662e+10 -7.758827e+10 -1.420622e+09
9.118153e+09 7.789305e+10 -5.004514e+08
-6.070413e+10 4.992335e+10 -4.478244e+08
-1.297632e+10 7.710148e+10 -2.687602e+08
7.121951e+10 -3.176372e+10 -6.405210e+08
-3.393592e+10 -7.038844e+10 7.468223e+07
-7.191452e+10 -3.024842e+10 2.962184e+08
-4.150195e+09 -7.764750e+10 -1.017872e+08
3.507311e+10 -6.936929e+10 5.082604e+08
1.540194e+10 -7.712804e+10 -2.968658e+08
-4.731459e+10 -6.239901e+10 5.293974e+08
-1.698262e+10 -7.925811e+10 9.009956e+07
7.258687e+10 -2.854947e+10 -7.621774e+08
1.232176e+10 -7.680789e+10 -2.221845e+08
2.005450e+10 -7.560068e+10 -4.015437e+07
2.532711e+10 -7.368346e+10 -1.345078e+08
-7.519217e+10 -2.200332e+10 3.860642e+08
7.225839e+10 -2.887015e+10 1.143525e+09
-6.264326e+10 -4.672568e+10 6.423260e+08
-7.834637e+10 -4.079018e+08 -5.481625e+08
3.073628e+10 -7.192648e+10 3.770543e+07
-6.928005e+10 -3.707116e+10 -4.986947e+08
4.464233e+10 -6.037593e+10 -7.157361e+08
1.630183e+10 -7.685553e+10 -1.022802e+09
1.495460e+10 -7.685896e+10 4.127823e+08
-3.750113e+10 6.861821e+10 2.060331e+08
-7.475878e+10 2.241489e+10 -2.149086e+08
-3.897088e+10 -6.758785e+10 1.988482e+08
5.937725e+10 -5.000817e+10 2.558380e+08
7.486396e+10 -2.364477e+10 6.488363e+07
-7.359122e+10 2.709594e+10 8.426691e+07
-7.803210e+10 -8.108864e+09 4.573070e+08
-7.659462e+10 -1.669153e+10 6.104184e+08
5.385286e+10 -5.615628e+10 7.626824e+08
7.420770e+10 -3.621854e+10 6.791915e+08
-7.786348e+10 7.502225e+09 4.568311e+07
-5.884272e+10 -5.154616e+10 -4.799498e+07
-7.651439e+10 1.413935e+10 -6.896042e+08
-5.386533e+10 -5.615159e+10 8.587216e+08
4.192399e+10 -6.655193e+10 1.460384e+08
-7.262944e+10 -2.862388e+10 -6.799907e+08
-7.570541e+10 -1.999234e+10 1.722468e+08
-1.370648e+10 7.725272e+10 -7.177331e+07
-1.221120e+10 -7.670019e+10 4.432449e+07
2.974107e+10 -7.269276e+10 -1.296786e+08
-7.379933e+10 -3.685660e+10 9.895880e+08
-7.608116e+10 1.787831e+10 -2.255686e+08
-7.106545e+10 -3.254331e+10 8.084773e+07
7.821097e+10 -3.850970e+09 4.324884e+08
-2.918775e+10 7.266552e+10 4.263702e+08
-3.256756e+10 7.125622e+10 5.281445e+08
2.223337e+10 7.495059e+10 7.254601e+08
7.123247e+10 3.221229e+10 7.302644e+08
7.682479e+10 1.447848e+10 7.301781e+08
-1.827915e+10 7.601149e+10 7.320836e+08
3.920870e+10 6.762442e+10 6.276898e+08
-8.030745e+10 -3.384833e+09 1.545165e+09
7.816305e+10 -2.954424e+08 6.265707e+08
-5.657688e+10 5.393963e+10 7.779521e+08
7.521697e+09 7.780142e+10 7.793959e+08
6.784862e+10 3.876754e+10 7.190163e+08
-6.132601e+10 4.841519e+10 6.219816e+08
6.383239e+10 4.506979e+10 6.205594e+08
-4.138865e+10 -6.613862e+10 1.824251e+08
-7.364328e+10 -2.564287e+10 8.885589e+07
4.987966e+10 -6.132240e+10 -5.848298e+08
1.417716e+09 -7.831532e+10 4.927143e+07
-7.902624e+10 -1.223209e+10 -5.824787e+08
-1.119980e+10 7.723528e+10 2.081079e+08
-6.581436e+10 4.248308e+10 5.779149e+08
4.244012e+10 6.587923e+10 6.026612e+08
-2.529362e+10 7.413645e+10 5.692580e+08
2.588932e+10 7.396050e+10 6.298201e+08
7.287433e+10 2.880027e+10 6.276150e+08
7.761611e+10 1.076086e+10 6.235799e+08
7.793317e+10 -7.937523e+09 5.942731e+08
-2.035001e+09 -7.822513e+10 5.867307e+08
-7.770577e+09 -7.776129e+10 -3.566992e+08
-4.172379e+10 -6.885066e+10 -2.819250e+08
-7.356842e+10 2.568671e+10 1.293744e+08
-7.743770e+10 9.974045e+09 -1.925287e+07
-5.704235e+10 -5.331778e+10 2.392612e+07
2.666054e+10 -7.294019e+10 3.400493e+08
6.176738e+10 -4.821687e+10 8.937527e+07
6.821293e+10 -3.745505e+10 -2.692681e+08
-3.693325e+10 -6.843551e+10 -1.002469e+08
6.283343e+10 -4.647816e+10 2.028758e+08
7.052293e+10 -3.538755e+10 3.377616e+08
7.725370e+10 -1.413203e+10 5.498701e+08
-4.159822e+10 -6.830647e+10 3.839353e+08
-5.235493e+10 5.860433e+10 3.213953e+08
-4.330508e+10 6.551995e+10 5.480626e+08
-8.348997e+09 7.824823e+10 7.536240e+08
5.878136e+10 5.208652e+10 5.471993e+08
-1.159169e+09 7.857209e+10 3.097484e+08
4.775339e+10 6.241453e+10 3.159545e+08
5.079494e+10 5.989862e+10 5.500106e+08
3.180900e+10 7.181001e+10 5.734497e+08
7.509845e+10 2.310299e+10 3.176352e+08
1.397980e+10 7.728087e+10 5.525235e+08
4.197209e+10 -6.751189e+10 -9.084142e+08
-4.931250e+10 6.112811e+10 5.514014e+08
-4.697146e+09 7.840434e+10 5.408930e+08
5.627031e+10 5.478605e+10 5.510136e+08
5.345700e+10 5.759711e+10 2.896178e+08
-4.638318e+10 6.337883e+10 5.452917e+08
4.084148e+10 -6.651270e+10 -2.544878e+08
6.722116e+10 -4.168251e+10 -6.601980e+08
-7.839454e+10 7.724869e+09 -1.877130e+08
-5.912663e+10 -5.203839e+10 1.846810e+08
-4.602616e+10 -6.342875e+10 -2.434944e+08
4.065612e+10 -6.887277e+10 6.134568e+08
7.508355e+10 -2.144475e+10 3.223420e+08
6.428671e+10 -4.510169e+10 1.026955e+08
1.006833e+10 7.761643e+10 2.759984e+08
2.838795e+10 7.298268e+10 6.145901e+08
7.781904e+10 8.415624e+09 2.945421e+08
4.482435e+10 6.421298e+10 6.077354e+08
7.364679e+10 2.650000e+10 2.711158e+08
-5.467018e+10 5.606488e+10 6.156749e+08
7.759735e+10 -1.027048e+10 2.364697e+08
-6.766146e+10 3.986850e+10 1.557581e+08
1.869110e+10 -7.508533e+10 6.377389e+07
3.711320e+10 -6.868835e+10 -2.358515e+08
-1.663026e+10 -7.597450e+10 5.287249e+08
5.511758e+10 -5.491104e+10 -3.136314e+08
-5.531369e+10 -5.490909e+10 -1.228914e+08
-7.697096e+10 1.227325e+10 1.329554e+08
4.708917e+10 -6.200935e+10 -1.521182e+08
-7.705707e+10 -9.357598e+09 -2.679094e+08
-4.929449e+10 -6.077125e+10 2.579247e+08
-7.903042e+10 1.537857e+09 -7.676112e+08
-6.997590e+10 -3.490416e+10 -1.654700e+08
4.510611e+10 -6.053224e+10 -2.078211e+08
-5.018752e+09 -7.770339e+10 1.116668e+09
-7.808775e+10 -2.583552e+09 1.145825e+08
7.689087e+10 -1.378813e+10 -3.646745e+08
1.363850e+10 7.691445e+10 -3.641195e+08
-4.923839e+10 6.066241e+10 -4.954338e+08
7.765248e+10 4.983568e+09 -2.258280e+08
7.464147e+10 2.303644e+10 -3.701610e+08
7.532262e+10 1.960774e+10 -3.289850e+08
5.036905e+10 5.973814e+10 -4.842208e+08
5.578701e+10 5.467929e+10 -4.869820e+08
2.301474e+09 7.778955e+10 -3.256310e+08
5.424670e+09 -7.783098e+10 1.057552e+09
-4.329078e+10 6.467243e+10 -9.583766e+08
-5.221359e+10 5.771821e+10 -9.992345e+08
5.794722e+10 5.194807e+10 -9.541089e+08
1.692155e+10 7.596023e+10 -8.674029e+08
4.689571e+10 6.211648e+10 -9.996159e+08
-5.113187e+09 7.765874e+10 -9.497182e+08
3.436581e+10 6.982041e+10 -8.695900e+08
3.089861e+10 7.143065e+10 -9.911502e+08
6.028797e+10 4.920741e+10 -8.734174e+08
-1.410714e+09 7.781400e+10 -9.614147e+08
-7.648634e+10 -2.181387e+10 -3.110340e+08
-4.632992e+10 6.253366e+10 -9.489691e+08
5.273901e+10 5.723053e+10 -9.600059e+08
-4.027067e+10 6.659009e+10 -8.793706e+08
7.592707e+10 -1.706755e+10 -8.645316e+08
-4.130040e+10 -6.695320e+10 -5.412416e+08
-5.271631e+10 -5.742133e+10 -4.622335e+08
5.257184e+10 -5.739683e+10 -4.672215e+08
-3.069672e+10 -7.207484e+10 -3.417130e+07
7.350081e+10 -2.840000e+10 -9.075003e+08
-7.394475e+10 -2.490168e+10 -6.986355e+08
-7.519335e+10 -2.498430e+10 1.592632e+09
-6.098867e+09 -7.869764e+10 3.484284e+07
7.146555e+10 3.108430e+10 -2.994063e+08
7.677494e+10 1.337169e+10 -2.964825e+08
2.320483e+10 7.439868e+10 -2.962455e+08
-2.779675e+10 7.281022e+10 -3.058169e+08
7.776881e+10 -5.139565e+09 -3.033116e+08
-1.687904e+10 7.592566e+10 -5.023440e+08
-1.443096e+10 -7.654990e+10 -2.835075e+08
7.738158e+10 -1.866773e+09 5.584416e+07
4.022281e+10 6.615179e+10 -5.109256e+06
-7.362735e+10 -2.697027e+10 -2.094601e+08
-3.062255e+10 7.108867e+10 3.159432e+07
-3.401188e+10 6.954324e+10 -5.771378e+07