# vtk DataFile Version 2.0
Electric current density generated by TTH
ASCII
DATASET UNSTRUCTURED_GRID
POINTS 9981 double
4.049196e-05 -9.917670e-21 -1.254186e-22
4.038853e-05 2.892309e-06 -1.254186e-22
2.860370e-05 2.866055e-05 -1.254186e-22
2.305984e-05 3.219403e-05 -3.440647e-07
3.946291e-05 3.662879e-06 -3.762201e-07
3.946291e-05 -3.662879e-06 3.762201e-07
2.475385e-05 3.100747e-05 -4.124176e-07
-1.753191e-05 -3.561189e-05 4.244803e-07
3.954396e-05 4.553637e-06 -4.813663e-07
3.954396e-05 -4.553637e-06 4.813663e-07
3.808685e-05 -1.103409e-05 -3.941209e-07
3.877155e-05 -8.342693e-06 -3.990064e-07
3.891972e-05 7.689173e-06 4.091560e-07
2.837514e-05 2.888686e-05 -1.254186e-22
1.756522e-05 3.569016e-05 -4.707661e-07
1.745885e-05 -3.550650e-05 -3.024282e-07
3.923506e-07 -3.951408e-05 -2.168701e-07
6.045864e-06 -3.903525e-05 -1.804009e-07
3.381171e-05 -2.075424e-05 4.101242e-07
3.403066e-05 -1.999067e-05 -5.731510e-09
3.381172e-05 2.075424e-05 -4.101247e-07
3.403066e-05 1.999067e-05 5.731510e-09
3.860583e-05 9.805481e-06 -4.901207e-07
3.979700e-05 -1.915981e-06 4.934469e-07
2.814478e-05 2.911134e-05 -1.254186e-22
3.979700e-05 1.915981e-06 -4.934469e-07
1.191837e-05 -3.801218e-05 -4.916691e-07
1.282078e-05 -3.771752e-05 -4.917062e-07
1.367379e-05 -3.721706e-05 -3.911972e-07
-1.351787e-05 -3.731930e-05 4.235287e-07
3.243034e-05 -2.293801e-05 4.426817e-07
3.240033e-05 2.291679e-05 -4.191582e-07
3.305732e-05 -2.221900e-05 4.897871e-07
-1.113007e-05 -3.813463e-05 4.444887e-07
-1.023853e-05 -3.811866e-05 -4.392838e-08
2.791266e-05 2.933398e-05 -1.254186e-22
3.067368e-05 2.518389e-05 -4.204141e-07
3.106842e-05 2.434288e-05 -3.814801e-08
3.068172e-05 -2.517347e-05 4.201396e-07
3.138037e-05 -2.442724e-05 4.657241e-07
3.304391e-05 2.225183e-05 -4.919253e-07
-1.848012e-05 -3.527638e-05 4.876970e-07
-1.932178e-05 -3.483747e-05 4.916959e-07
-2.014641e-05 -3.436722e-05 4.917060e-07
-2.095959e-05 -3.387742e-05 4.917060e-07
-2.176086e-05 -3.336838e-05 4.917060e-07
2.767877e-05 2.955477e-05 -1.254186e-22
-2.254978e-05 -3.284039e-05 4.917060e-07
-2.332589e-05 -3.229375e-05 4.917060e-07
-2.408875e-05 -3.172878e-05 4.917060e-07
-2.483794e-05 -3.114579e-05 4.917060e-07
-2.557302e-05 -3.054512e-05 4.917060e-07
-2.629358e-05 -2.992709e-05 4.917060e-07
-2.699922e-05 -2.929208e-05 4.917060e-07
-2.768951e-05 -2.864043e-05 4.917060e-07
-2.836409e-05 -2.797252e-05 4.917060e-07
-2.902256e-05 -2.728873e-05 4.917060e-07
2.744313e-05 2.977370e-05 -1.254186e-22
-2.966455e-05 -2.658943e-05 4.917060e-07
-3.028969e-05 -2.587505e-05 4.917060e-07
-3.089764e-05 -2.514596e-05 4.917060e-07
-3.148804e-05 -2.440260e-05 4.917060e-07
-3.206056e-05 -2.364538e-05 4.917060e-07
-3.261487e-05 -2.287474e-05 4.917060e-07
-3.315067e-05 -2.209110e-05 4.917060e-07
-3.366764e-05 -2.129492e-05 4.917060e-07
-3.416549e-05 -2.048665e-05 4.917060e-07
-3.464394e-05 -1.966675e-05 4.917060e-07
2.720577e-05 2.999075e-05 -1.254186e-22
-3.510272e-05 -1.883568e-05 4.917060e-07
-3.554156e-05 -1.799391e-05 4.917060e-07
-3.596023e-05 -1.714192e-05 4.917060e-07
-3.635847e-05 -1.628020e-05 4.917060e-07
-3.673607e-05 -1.540924e-05 4.917060e-07
-3.709281e-05 -1.452953e-05 4.917060e-07
-3.742848e-05 -1.364156e-05 4.917060e-07
-3.774290e-05 -1.274585e-05 4.917060e-07
-3.803589e-05 -1.184290e-05 4.917060e-07
-3.830728e-05 -1.093323e-05 4.917060e-07
2.696669e-05 3.020590e-05 -1.254186e-22
-3.855692e-05 -1.001735e-05 4.917060e-07
-3.878467e-05 -9.095778e-06 4.917060e-07
-3.899039e-05 -8.169043e-06 4.917060e-07
-3.917397e-05 -7.237670e-06 4.917060e-07
-3.933530e-05 -6.302186e-06 4.917060e-07
-3.947430e-05 -5.363124e-06 4.917060e-07
-3.959089e-05 -4.421016e-06 4.917060e-07
-3.968499e-05 -3.476398e-06 4.917060e-07
-3.975656e-05 -2.529806e-06 4.917060e-07
-3.980555e-05 -1.581778e-06 4.917060e-07
2.672590e-05 3.041915e-05 -1.254186e-22
-3.983194e-05 -6.328508e-07 4.917060e-07
-3.983571e-05 3.164354e-07 4.917060e-07
-3.981686e-05 1.265542e-06 4.917060e-07
-3.977540e-05 2.213930e-06 4.917060e-07
-3.971135e-05 3.161060e-06 4.917060e-07
-3.962475e-05 4.106396e-06 4.917060e-07
-3.951566e-05 5.049400e-06 4.917060e-07
-3.938412e-05 5.989537e-06 4.917060e-07
-3.923022e-05 6.926272e-06 4.917060e-07
-3.905405e-05 7.859075e-06 4.917060e-07
2.648343e-05 3.063049e-05 -1.254186e-22
-3.885569e-05 8.787414e-06 4.917060e-07
-3.863528e-05 9.710764e-06 4.917060e-07
-3.839292e-05 1.062860e-05 4.917060e-07
-3.812877e-05 1.154040e-05 4.917060e-07
-3.784296e-05 1.244565e-05 4.917060e-07
-3.753566e-05 1.334383e-05 4.917060e-07
-3.720705e-05 1.423443e-05 4.917060e-07
-3.685731e-05 1.511695e-05 4.917060e-07
-3.648664e-05 1.599089e-05 4.917060e-07
-3.609526e-05 1.685574e-05 4.917060e-07
4.036428e-05 3.213034e-06 -1.254186e-22
2.623929e-05 3.083988e-05 -1.254186e-22
-3.568337e-05 1.771103e-05 4.917060e-07
-3.525123e-05 1.855625e-05 4.917060e-07
-3.479907e-05 1.939094e-05 4.917060e-07
-3.432714e-05 2.021462e-05 4.917060e-07
-3.383573e-05 2.102682e-05 4.917060e-07
-3.332510e-05 2.182708e-05 4.917060e-07
-3.279554e-05 2.261495e-05 4.917060e-07
-3.224737e-05 2.338997e-05 4.917060e-07
-3.168088e-05 2.415171e-05 4.917060e-07
-3.109641e-05 2.489974e-05 4.917060e-07
2.599349e-05 3.104734e-05 -1.254186e-22
-3.049427e-05 2.563363e-05 4.917060e-07
-2.987482e-05 2.635296e-05 4.917060e-07
-2.923841e-05 2.705733e-05 4.917060e-07
-2.858539e-05 2.774634e-05 4.917060e-07
-2.791614e-05 2.841958e-05 4.917060e-07
-2.723104e-05 2.907669e-05 4.917060e-07
-2.653047e-05 2.971729e-05 4.917060e-07
-2.581484e-05 3.034102e-05 4.917060e-07
-2.508456e-05 3.094751e-05 4.917060e-07
-2.434002e-05 3.153644e-05 4.917060e-07
2.574606e-05 3.125283e-05 -1.254186e-22
-2.358167e-05 3.210745e-05 4.917060e-07
-2.280992e-05 3.266023e-05 4.917060e-07
-2.202523e-05 3.319447e-05 4.917060e-07
-2.122802e-05 3.370986e-05 4.917060e-07
-2.041877e-05 3.420610e-05 4.917060e-07
-1.959791e-05 3.468293e-05 4.917060e-07
-1.876593e-05 3.514005e-05 4.917060e-07
-1.792329e-05 3.557723e-05 4.917060e-07
-1.707048e-05 3.599420e-05 4.917060e-07
-1.620797e-05 3.639073e-05 4.917060e-07
2.549699e-05 3.145635e-05 -1.254186e-22
-1.533626e-05 3.676660e-05 4.917060e-07
-1.445584e-05 3.712159e-05 4.917060e-07
-1.356721e-05 3.745550e-05 4.917060e-07
-1.267088e-05 3.776814e-05 4.917060e-07
-1.176735e-05 3.805934e-05 4.917060e-07
-1.085714e-05 3.832892e-05 4.917060e-07
-9.940761e-06 3.857674e-05 4.917060e-07
-9.018740e-06 3.880265e-05 4.917060e-07
-8.091599e-06 3.900653e-05 4.917060e-07
-7.159862e-06 3.918826e-05 4.917060e-07
2.524632e-05 3.165789e-05 -1.254186e-22
-6.224060e-06 3.934774e-05 4.917060e-07
-5.284724e-06 3.948487e-05 4.917060e-07
-4.342387e-06 3.959959e-05 4.917060e-07
-3.397584e-06 3.969181e-05 4.917060e-07
-2.450851e-06 3.976150e-05 4.917060e-07
-1.502727e-06 3.980861e-05 4.917060e-07
-5.537499e-07 3.983311e-05 4.917060e-07
3.955419e-07 3.983500e-05 4.917060e-07
1.344609e-06 3.981426e-05 4.917060e-07
2.292913e-06 3.977092e-05 4.917060e-07
2.499406e-05 3.185743e-05 -1.254186e-22
3.239914e-06 3.970499e-05 4.917060e-07
4.185076e-06 3.961652e-05 4.917060e-07
5.127862e-06 3.950555e-05 4.917060e-07
6.067735e-06 3.937215e-05 4.917060e-07
7.004163e-06 3.921639e-05 4.917060e-07
7.936614e-06 3.903836e-05 4.917060e-07
8.864558e-06 3.883817e-05 4.917060e-07
9.787468e-06 3.861592e-05 4.917060e-07
1.070482e-05 3.837174e-05 4.917060e-07
1.161610e-05 3.810577e-05 4.917060e-07
2.474022e-05 3.205496e-05 -1.254186e-22
1.252077e-05 3.781817e-05 4.917060e-07
1.341834e-05 3.750909e-05 4.917060e-07
1.430829e-05 3.717871e-05 4.917060e-07
1.519518e-05 3.680024e-05 4.844252e-07
1.597834e-05 3.626198e-05 3.703072e-07
3.913215e-05 -7.430914e-06 -4.900678e-07
3.850010e-05 -1.016598e-05 -4.863398e-07
1.755870e-05 -3.573834e-05 4.860576e-07
-2.530044e-05 -3.071191e-05 -4.759931e-07
-2.226256e-05 -3.298048e-05 -4.759931e-07
2.448482e-05 3.225046e-05 -1.254186e-22
-3.293620e-05 2.232801e-05 -4.759931e-07
-2.810862e-05 -2.816450e-05 -4.759931e-07
-3.950901e-05 4.729909e-06 -4.759931e-07
-3.950901e-05 -4.729909e-06 -4.759931e-07
-1.902255e-05 3.494962e-05 -4.759931e-07
-3.396256e-05 -2.073351e-05 -4.759931e-07
-2.941852e-05 2.679336e-05 -4.759931e-07
-3.887948e-05 8.468740e-06 -4.759931e-07
-3.789697e-05 -1.213068e-05 -4.759931e-07
-2.673489e-05 -2.947167e-05 -4.759931e-07
2.422787e-05 3.244394e-05 -1.254186e-22
-2.226256e-05 3.298048e-05 -4.759931e-07
-4.651441e-06 3.951832e-05 -4.759931e-07
-3.293620e-05 -2.232801e-05 -4.759931e-07
-3.923880e-05 -6.606827e-06 -4.759931e-07
-1.384835e-05 3.730358e-05 -4.759931e-07
-3.657038e-05 -1.568249e-05 -4.759931e-07
-3.977983e-05 -9.481340e-07 -4.759931e-07
-3.923880e-05 6.606827e-06 -4.759931e-07
-3.727600e-05 1.392240e-05 -4.759931e-07
1.027128e-06 3.977786e-05 -4.759931e-07
2.396940e-05 3.263536e-05 -1.254186e-22
-1.205540e-05 3.792098e-05 -4.759931e-07
4.808358e-06 3.949953e-05 -4.759931e-07
-1.023508e-05 3.845226e-05 -4.759931e-07
-3.657038e-05 1.568249e-05 -4.759931e-07
2.921060e-06 3.968376e-05 -4.759931e-07
-2.673489e-05 2.947167e-05 -4.759931e-07
-2.530044e-05 3.071191e-05 -4.759931e-07
-3.977983e-05 9.481340e-07 -4.759931e-07
-8.391516e-06 3.889622e-05 -4.759931e-07
-3.578171e-05 -1.740697e-05 -4.759931e-07
4.033749e-05 3.533557e-06 -1.254186e-22
2.370941e-05 3.282473e-05 -1.254186e-22
-1.560984e-05 3.660145e-05 -4.759931e-07
-3.183505e-05 2.387180e-05 -4.759931e-07
-3.887948e-05 -8.468740e-06 -4.759931e-07
-3.183505e-05 -2.387180e-05 -4.759931e-07
6.684736e-06 3.922560e-05 -4.759931e-07
-2.763426e-06 3.969505e-05 -4.759931e-07
-2.066602e-05 3.400366e-05 -4.759931e-07
-6.528892e-06 3.925184e-05 -4.759931e-07
-8.691360e-07 3.978163e-05 -4.759931e-07
-2.380854e-05 3.188240e-05 -4.759931e-07
2.344793e-05 3.301202e-05 -1.254186e-22
-3.066160e-05 -2.536138e-05 -4.759931e-07
-3.843186e-05 1.031142e-05 -4.759931e-07
-3.066160e-05 2.536138e-05 -4.759931e-07
-3.578171e-05 1.740697e-05 -4.759931e-07
-3.491178e-05 1.909192e-05 -4.759931e-07
-3.727600e-05 -1.392240e-05 -4.759931e-07
-2.810862e-05 2.816450e-05 -4.759931e-07
-3.968948e-05 -2.842249e-06 -4.759931e-07
[...]
POINT_DATA 9981
VECTORS 10.000GHz_fone_imag double
-1.435712e-05 4.049862e-05 2.321738e-02
-7.088674e-05 -1.237556e-04 2.321452e-02
3.583294e-04 -1.009532e-04 2.326941e-02
9.895832e-03 1.386544e-02 -1.867879e-02
1.803599e-02 1.605586e-03 -1.741647e-02
-1.811517e-02 1.729228e-03 -1.744843e-02
1.239591e-02 1.570243e-02 -1.524440e-02
9.089467e-03 1.827301e-02 -1.475204e-02
2.307141e-02 2.519853e-03 -9.226997e-03
-2.308841e-02 2.618231e-03 -9.152618e-03
1.835889e-02 -5.262349e-03 -1.655617e-02
1.911690e-02 -4.008875e-03 -1.592535e-02
-1.974273e-02 -3.947755e-03 -1.493046e-02
-1.868569e-05 1.587948e-04 2.314288e-02
9.902467e-03 2.035891e-02 -1.080688e-02
6.661607e-03 -1.329183e-02 -2.035960e-02
-6.811863e-05 -1.068869e-02 -2.309529e-02
1.450995e-03 -8.434122e-03 -2.408192e-02
-1.713736e-02 1.056504e-02 -1.493309e-02
1.433803e-04 -1.362606e-04 -2.558933e-02
1.710346e-02 1.057884e-02 -1.501846e-02
-2.766081e-04 -2.327551e-04 -2.560619e-02
2.268388e-02 5.581724e-03 -7.684857e-03
-2.347538e-02 1.300112e-03 -7.255014e-03
-2.255382e-04 -1.725653e-04 2.328814e-02
2.349118e-02 1.362919e-03 -7.226193e-03
6.707087e-03 -2.238657e-02 -7.791458e-03
7.658882e-03 -2.227900e-02 -7.471405e-03
6.547946e-03 -1.794030e-02 -1.652793e-02
7.028196e-03 1.893039e-02 -1.465855e-02
-1.767875e-02 1.224764e-02 -1.293390e-02
1.657852e-02 1.153305e-02 -1.476214e-02
-1.948322e-02 1.311062e-02 -7.598852e-03
6.130402e-03 2.046067e-02 -1.287096e-02
-6.435408e-04 -1.898699e-03 -2.556841e-02
-3.030164e-04 -1.146363e-04 2.318867e-02
1.570402e-02 1.297080e-02 -1.476871e-02
1.392397e-03 1.143363e-03 -2.535984e-02
-1.609522e-02 1.268228e-02 -1.445585e-02
-1.776178e-02 1.365907e-02 -1.119479e-02
1.953324e-02 1.316474e-02 -7.382144e-03
1.109707e-02 2.077770e-02 -8.151744e-03
1.154807e-02 2.070628e-02 -7.498209e-03
1.197247e-02 2.039594e-02 -7.583693e-03
1.215383e-02 2.006006e-02 -7.442569e-03
1.295192e-02 1.976828e-02 -7.579406e-03
5.665756e-05 -3.656339e-04 2.321156e-02
1.310808e-02 1.944824e-02 -7.448270e-03
1.378983e-02 1.906337e-02 -7.466584e-03
1.397144e-02 1.878649e-02 -7.426982e-03
1.475724e-02 1.841307e-02 -7.559885e-03
1.490770e-02 1.812456e-02 -7.427096e-03
1.555070e-02 1.768801e-02 -7.452888e-03
1.570243e-02 1.735812e-02 -7.445171e-03
1.640856e-02 1.695585e-02 -7.613291e-03
1.655914e-02 1.657321e-02 -7.313120e-03
1.720477e-02 1.622540e-02 -7.595616e-03
2.817979e-05 8.709816e-05 2.310964e-02
1.732290e-02 1.572252e-02 -7.380905e-03
1.788270e-02 1.523923e-02 -7.632617e-03
1.805466e-02 1.493586e-02 -7.364188e-03
1.861391e-02 1.445790e-02 -7.690582e-03
1.876430e-02 1.401615e-02 -7.389020e-03
1.927684e-02 1.355443e-02 -7.696910e-03
1.940836e-02 1.310373e-02 -7.389979e-03
1.989744e-02 1.262936e-02 -7.695168e-03
1.998500e-02 1.217704e-02 -7.468962e-03
2.046980e-02 1.151909e-02 -7.481664e-03
1.881950e-04 -2.414826e-04 2.332852e-02
2.044549e-02 1.125245e-02 -7.333943e-03
2.108221e-02 1.061059e-02 -7.479254e-03
2.116651e-02 1.016616e-02 -7.503275e-03
2.157917e-02 9.616834e-03 -7.467361e-03
2.164649e-02 9.146445e-03 -7.505700e-03
2.200253e-02 8.563244e-03 -7.427247e-03
2.196460e-02 8.235196e-03 -7.559645e-03
2.240858e-02 7.501072e-03 -7.590459e-03
2.234179e-02 7.165223e-03 -7.444149e-03
2.264227e-02 6.453991e-03 -7.448346e-03
1.764222e-04 3.909412e-04 2.322319e-02
2.258311e-02 6.072274e-03 -7.442313e-03
2.297885e-02 5.333289e-03 -7.424201e-03
2.291385e-02 5.011351e-03 -7.489811e-03
2.320856e-02 4.233745e-03 -7.519531e-03
2.313976e-02 3.918114e-03 -7.466505e-03
2.334358e-02 3.119277e-03 -7.535122e-03
2.322597e-02 2.754610e-03 -7.403291e-03
2.347767e-02 2.100476e-03 -7.674602e-03
2.336793e-02 1.629692e-03 -7.374278e-03
2.354751e-02 9.656941e-04 -7.686647e-03
-3.594976e-04 -2.220761e-04 2.340857e-02
2.339982e-02 5.195661e-04 -7.380113e-03
2.348490e-02 -1.701717e-04 -7.657889e-03
2.346889e-02 -7.164640e-04 -7.460058e-03
2.350344e-02 -1.314959e-03 -7.434032e-03
2.334510e-02 -1.639136e-03 -7.437661e-03
2.346621e-02 -2.445276e-03 -7.609225e-03
2.325097e-02 -2.788191e-03 -7.304280e-03
2.325041e-02 -3.530198e-03 -7.595454e-03
2.310440e-02 -3.894870e-03 -7.363368e-03
2.311812e-02 -4.620334e-03 -7.690695e-03
-3.106233e-05 3.007057e-05 2.320088e-02
2.288963e-02 -5.022555e-03 -7.432984e-03
2.283149e-02 -5.742405e-03 -7.444475e-03
2.258549e-02 -6.046185e-03 -7.434925e-03
2.256122e-02 -6.891994e-03 -7.415330e-03
2.234763e-02 -7.116409e-03 -7.554864e-03
2.225647e-02 -7.940879e-03 -7.640650e-03
2.194974e-02 -8.214344e-03 -7.315267e-03
2.189487e-02 -8.944054e-03 -7.596423e-03
2.149379e-02 -9.263872e-03 -7.387600e-03
2.137173e-02 -9.945316e-03 -7.693603e-03
1.368023e-04 1.762873e-04 2.332916e-02
-1.493672e-04 -7.411234e-05 2.336934e-02
2.105089e-02 -1.028179e-02 -7.439824e-03
2.081173e-02 -1.096482e-02 -7.452112e-03
2.054653e-02 -1.118626e-02 -7.424904e-03
2.029513e-02 -1.199007e-02 -7.463707e-03
1.998772e-02 -1.233568e-02 -7.509387e-03
1.976626e-02 -1.296097e-02 -7.640821e-03
1.939122e-02 -1.315985e-02 -7.315472e-03
1.916115e-02 -1.385995e-02 -7.600997e-03
1.869201e-02 -1.406678e-02 -7.386681e-03
1.831901e-02 -1.470242e-02 -7.629923e-03
-7.805386e-05 -9.829167e-05 2.307716e-02
1.805920e-02 -1.493479e-02 -7.354174e-03
1.769533e-02 -1.557274e-02 -7.693137e-03
1.727946e-02 -1.579616e-02 -7.387373e-03
1.684153e-02 -1.637556e-02 -7.631274e-03
1.654321e-02 -1.658462e-02 -7.371372e-03
1.613149e-02 -1.718573e-02 -7.693714e-03
1.570406e-02 -1.738121e-02 -7.388457e-03
1.529717e-02 -1.793988e-02 -7.692295e-03
1.487252e-02 -1.809905e-02 -7.432985e-03
1.436630e-02 -1.862660e-02 -7.458766e-03
-8.872997e-05 5.219694e-05 2.331767e-02
1.404488e-02 -1.872621e-02 -7.437076e-03
1.346266e-02 -1.937430e-02 -7.567029e-03
1.313054e-02 -1.942756e-02 -7.450640e-03
1.253951e-02 -1.992596e-02 -7.453794e-03
1.217205e-02 -1.997137e-02 -7.463392e-03
1.156008e-02 -2.056122e-02 -7.552941e-03
1.122386e-02 -2.059152e-02 -7.440228e-03
1.058723e-02 -2.103941e-02 -7.441900e-03
1.021086e-02 -2.104586e-02 -7.433300e-03
9.546721e-03 -2.157217e-02 -7.424246e-03
-1.542472e-04 -4.103559e-04 2.316758e-02
9.234510e-03 -2.156816e-02 -7.555809e-03
8.551760e-03 -2.202294e-02 -7.643105e-03
8.143666e-03 -2.196090e-02 -7.312406e-03
7.485927e-03 -2.229880e-02 -7.590880e-03
7.098104e-03 -2.231507e-02 -7.358717e-03
6.421437e-03 -2.259509e-02 -7.668215e-03
5.877730e-03 -2.272719e-02 -7.469042e-03
5.325289e-03 -2.293412e-02 -7.443348e-03
4.956019e-03 -2.286181e-02 -7.429403e-03
4.184322e-03 -2.321427e-02 -7.415482e-03
1.883574e-04 -6.166413e-06 2.315712e-02
3.884976e-03 -2.313299e-02 -7.557226e-03
3.106068e-03 -2.342563e-02 -7.629408e-03
2.734118e-03 -2.326332e-02 -7.308632e-03
2.050236e-03 -2.343714e-02 -7.626884e-03
1.482086e-03 -2.343409e-02 -7.447714e-03
8.853406e-04 -2.350260e-02 -7.446981e-03
5.556210e-04 -2.338002e-02 -7.420330e-03
-2.783114e-04 -2.357419e-02 -7.445064e-03
-7.296391e-04 -2.347703e-02 -7.501475e-03
-1.415783e-03 -2.357003e-02 -7.416413e-03
2.543848e-04 1.243533e-04 2.315709e-02
-1.691422e-03 -2.339868e-02 -7.561214e-03
-2.527550e-03 -2.348753e-02 -7.599035e-03
-2.835040e-03 -2.329347e-02 -7.325246e-03
-3.580133e-03 -2.324743e-02 -7.598560e-03
-3.939919e-03 -2.309646e-02 -7.363053e-03
-4.667297e-03 -2.310845e-02 -7.688811e-03
-5.068143e-03 -2.287988e-02 -7.434576e-03
-5.787591e-03 -2.281425e-02 -7.443191e-03
-6.063445e-03 -2.256622e-02 -7.404939e-03
-6.959078e-03 -2.250410e-02 -7.493349e-03
3.266284e-04 5.032458e-04 2.329558e-02
-7.451769e-03 -2.238318e-02 -7.395335e-03
-7.549419e-03 -2.195663e-02 -7.661143e-03
-8.495302e-03 -2.199511e-02 -7.149464e-03
-8.631184e-03 -2.150421e-02 -8.662521e-03
-7.303050e-03 -1.628207e-02 -1.773140e-02
2.292638e-02 -4.486699e-03 -7.531630e-03
2.236756e-02 -6.026428e-03 -8.263940e-03
-1.039074e-02 2.081494e-02 -8.064200e-03
-1.453897e-02 -1.778109e-02 -9.335385e-03
-1.274944e-02 -1.907563e-02 -9.361040e-03
-1.442606e-04 -1.429137e-04 2.318697e-02
-1.891240e-02 1.303226e-02 -9.549793e-03
-1.635938e-02 -1.612996e-02 -9.553147e-03
-2.281101e-02 2.910575e-03 -9.559318e-03
-2.273654e-02 -2.634606e-03 -9.773927e-03
-1.105848e-02 2.012259e-02 -9.359190e-03
-1.953745e-02 -1.188048e-02 -9.681214e-03
-1.687604e-02 1.544756e-02 -9.673845e-03
-2.232781e-02 4.916303e-03 -9.667602e-03
-2.182541e-02 -7.088937e-03 -9.350913e-03
-1.522371e-02 -1.694059e-02 -9.402788e-03
3.349151e-04 1.115748e-04 2.314410e-02
-1.291925e-02 1.896965e-02 -9.366158e-03
-2.516372e-03 2.284368e-02 -9.557088e-03
-1.897274e-02 -1.278822e-02 -9.678761e-03
-2.248695e-02 -3.652482e-03 -9.487133e-03
-7.833097e-03 2.159878e-02 -9.554306e-03
-2.083636e-02 -8.797452e-03 -9.483998e-03
-2.289402e-02 -4.885568e-04 -9.674695e-03
-2.261261e-02 3.827730e-03 -9.569460e-03
-2.146328e-02 8.206702e-03 -9.542186e-03
7.134913e-04 2.262598e-02 -9.483979e-03
5.718576e-05 2.835065e-04 2.320509e-02
-6.935380e-03 2.186242e-02 -9.564121e-03
2.852669e-03 2.278910e-02 -9.530853e-03
-5.837847e-03 2.211483e-02 -9.663713e-03
-2.101482e-02 9.070048e-03 -9.706887e-03
1.736404e-03 2.262467e-02 -9.361012e-03
-1.532583e-02 1.698654e-02 -9.671662e-03
-1.451002e-02 1.768405e-02 -9.656544e-03
-2.288191e-02 5.855551e-04 -9.629463e-03
-4.911739e-03 2.225776e-02 -9.413335e-03
-2.039774e-02 -9.785602e-03 -9.499353e-03
-2.746067e-04 4.380415e-05 2.321563e-02
-4.695728e-05 1.194553e-04 2.309931e-02
-8.827696e-03 2.090201e-02 -9.359903e-03
-1.828133e-02 1.377256e-02 -9.707609e-03
-2.219530e-02 -4.751794e-03 -9.414274e-03
-1.834216e-02 -1.367819e-02 -9.674318e-03
3.871657e-03 2.260605e-02 -9.567302e-03
-1.545709e-03 2.283798e-02 -9.637102e-03
-1.192896e-02 1.941180e-02 -9.417366e-03
-3.649418e-03 2.239364e-02 -9.355142e-03
-4.357878e-04 2.270858e-02 -9.500126e-03
-1.352477e-02 1.821777e-02 -9.497515e-03
-4.196782e-05 -7.333093e-05 2.322489e-02
-1.768697e-02 -1.461183e-02 -9.548194e-03
-2.203567e-02 5.806569e-03 -9.441588e-03
-1.766562e-02 1.464405e-02 -9.530467e-03
-2.053934e-02 1.004690e-02 -9.668973e-03
-1.988944e-02 1.094522e-02 -9.494947e-03
-2.128194e-02 -7.866772e-03 -9.357928e-03
-1.618104e-02 1.623823e-02 -9.566044e-03
-2.283996e-02 -1.573007e-03 -9.678330e-03
-1.362479e-02 -1.813804e-02 -9.494658e-03
4.959665e-03 2.231896e-02 -9.668159e-03
3.047845e-04 3.780891e-05 2.323014e-02
-2.158709e-02 6.989941e-03 -9.352586e-03
-1.002361e-02 2.046812e-02 -9.414660e-03
-2.274297e-02 1.517514e-03 -9.408582e-03
-2.013663e-02 -1.101016e-02 -9.523842e-03
-1.695879e-02 -1.537307e-02 -9.698721e-03
-1.923757e-02 1.189635e-02 -9.503113e-03
-1.186469e-02 -1.936353e-02 -9.444473e-03
-2.197706e-02 -6.015948e-03 -9.432888e-03
7.286142e-03 2.171784e-02 -9.391173e-03
5.875935e-03 2.204502e-02 -9.429674e-03
9.378006e-05 2.762809e-04 2.305759e-02
-2.237633e-02 -6.734825e-03 -7.883397e-03
-6.227152e-03 2.217969e-02 -9.692375e-03
-5.971881e-03 2.277603e-02 -7.700610e-03
1.337689e-02 1.917668e-02 -7.931508e-03
-2.112603e-02 8.682708e-03 -9.406689e-03
8.605767e-03 -2.182764e-02 -7.713879e-03
9.182474e-03 -2.160045e-02 -7.200700e-03
9.637290e-03 -2.157068e-02 -6.786275e-03
-4.529417e-03 1.895345e-02 -1.618224e-02
2.213941e-02 -9.919031e-03 -5.129039e-03
-2.595780e-05 2.537561e-04 2.322552e-02
2.186252e-02 -1.049133e-02 -3.927777e-03
-2.143859e-02 -1.086912e-02 -5.034789e-03
-1.375914e-02 -1.095671e-02 -1.802702e-02
1.365074e-02 -1.075224e-02 -1.826974e-02
-4.679990e-03 -2.351958e-02 -4.672383e-03
1.752749e-02 -1.639729e-02 -4.686064e-03
-1.752863e-02 -1.638913e-02 -4.683518e-03
-1.059143e-02 -2.151347e-02 -5.751140e-03
-1.021702e-02 -2.114711e-02 -6.857089e-03
-1.114960e-02 -2.059234e-02 -7.517330e-03
-2.155111e-05 5.557411e-05 2.322575e-02
-1.425221e-02 -1.931070e-02 -5.580389e-03
-1.499318e-02 -1.884954e-02 -4.873202e-03
-1.359693e-02 -1.999969e-02 -5.277795e-03
-1.268377e-02 -2.059233e-02 -4.342219e-03
1.276495e-02 -2.013377e-02 -5.745419e-03
2.250162e-02 -9.010143e-03 -5.239563e-03
2.283764e-02 -8.201052e-03 -4.474537e-03
1.788686e-02 -1.332308e-03 -1.781335e-02
-1.767985e-02 -1.586218e-03 -1.787448e-02
6.927682e-03 1.696609e-03 -2.449701e-02
-3.641720e-04 -1.404823e-04 2.325610e-02
1.098758e-02 -2.088862e-02 -6.558424e-03
1.114515e-02 -2.026373e-02 -9.306384e-03
-1.624981e-03 -4.356076e-03 -2.498120e-02
-2.160885e-02 -1.163698e-02 -6.797172e-04
2.152296e-02 -1.163221e-02 -9.182430e-04
-1.313409e-02 1.892793e-03 -2.190079e-02
2.127984e-02 -3.202373e-03 -1.232390e-02
1.312435e-02 1.947282e-03 -2.192072e-02
-2.121337e-02 -3.305633e-03 -1.275611e-02
-6.967503e-03 -8.434294e-03 -2.304323e-02
9.552816e-05 -2.498002e-04 2.317680e-02
-9.015499e-03 2.244160e-03 -2.376325e-02
-5.468581e-03 -2.369985e-02 -2.361996e-03
1.822189e-02 -1.605464e-02 -2.281609e-03
-1.823474e-02 -1.602393e-02 -2.337583e-03
-1.164992e-02 2.136746e-02 -2.385772e-03
1.168228e-02 2.130096e-02 -2.183824e-03
-1.883306e-02 1.205521e-02 -1.073869e-02
1.903367e-02 1.208437e-02 -1.063794e-02
2.135932e-02 5.001675e-03 -1.155546e-02
-2.350780e-02 5.249709e-03 -3.905310e-03
-7.750792e-05 5.716963e-05 2.302713e-02
2.395083e-02 4.520461e-03 -3.578693e-03
2.414352e-02 4.011205e-03 -1.844115e-03
-2.395006e-02 4.434234e-03 -3.812449e-03
-2.415834e-02 4.078740e-03 -1.865910e-03
1.463526e-02 1.935008e-02 -2.240032e-03
2.337348e-02 -5.276618e-04 -8.012386e-03
1.948120e-02 -6.136938e-04 -1.589653e-02
-2.336394e-02 -4.705132e-04 -8.084412e-03
-1.950288e-02 -7.053650e-04 -1.587108e-02
1.770895e-02 -7.841555e-03 -1.625685e-02
1.235502e-04 -3.737580e-04 2.317283e-02
-1.027786e-02 -1.441578e-02 -1.766231e-02
-1.010852e-02 -2.179716e-02 -5.280122e-03
-1.028347e-02 -2.223257e-02 -1.320307e-03
2.323024e-02 7.188478e-03 -3.167426e-03
-2.317017e-02 6.989770e-03 -4.825436e-03
1.803720e-02 1.575557e-02 -6.236600e-03
1.799390e-02 1.551340e-02 -6.397258e-03
-1.804989e-02 1.574432e-02 -6.225310e-03
-1.794969e-02 1.560006e-02 -6.310069e-03
5.269283e-03 2.338848e-02 -6.200022e-03
1.404166e-04 -3.491804e-04 2.322767e-02
1.390475e-04 1.275263e-04 2.313749e-02
-4.247607e-03 2.040956e-02 -1.349098e-02
-2.352716e-02 5.872999e-03 1.296675e-03
1.950993e-02 -1.406880e-02 -4.765979e-03
1.927991e-02 -1.481665e-02 -2.865848e-03
-2.364124e-02 -5.164128e-03 -4.005714e-03
-7.061983e-03 -2.322865e-02 -3.881010e-03
-7.543072e-03 -2.278119e-02 -5.479481e-03
-1.180806e-02 -2.110648e-02 -4.454755e-03
-2.092661e-02 1.129312e-02 -6.313759e-03
2.095189e-02 1.127289e-02 -6.213477e-03
4.091124e-04 5.617442e-04 2.349845e-02
4.893425e-03 -2.273823e-02 -8.080301e-03
-8.826061e-03 1.757288e-03 -2.390614e-02
-2.371470e-02 -4.056255e-03 4.560230e-04
-1.793637e-02 -1.355485e-02 -1.091160e-02
1.012830e-02 2.220807e-02 -2.051853e-03
-6.037666e-03 -1.486622e-02 -1.950387e-02
-8.552490e-03 -2.267480e-02 -2.644555e-03
2.291845e-03 -1.093889e-02 -2.305063e-02
-2.292935e-02 7.414375e-03 3.383974e-03
2.294562e-02 7.305253e-03 2.988442e-03
-1.768420e-04 3.141002e-04 2.323926e-02
-1.320082e-02 1.025860e-03 -2.173286e-02
1.312942e-02 7.601774e-04 -2.167635e-02
-1.565504e-02 -5.385394e-03 -1.923085e-02
-2.291098e-02 -7.254293e-03 -5.115897e-03
-1.948117e-02 -1.455273e-02 -1.505105e-03
-2.159017e-02 -8.027025e-03 -9.226784e-03
-1.714702e-02 1.628834e-02 -7.521430e-03
1.714503e-02 1.628761e-02 -7.529648e-03
4.416853e-03 2.324254e-02 -7.535793e-03
1.998855e-02 7.622054e-03 -1.299967e-02
-2.493195e-04 -2.999997e-04 2.332348e-02
-2.107178e-02 1.015609e-02 -8.512420e-03
-2.082254e-02 9.757808e-03 -8.981961e-03
-2.177332e-02 1.098249e-02 -2.306743e-03
2.108183e-02 1.025684e-02 -8.479558e-03
2.179666e-02 1.106286e-02 -2.372525e-03
2.190193e-02 1.009637e-02 8.516447e-04
2.279243e-02 -7.431156e-03 4.137132e-03
1.770434e-02 -6.168267e-03 -1.668711e-02
-1.194936e-03 -2.400012e-02 4.194842e-03
-1.156465e-03 -1.536805e-02 -2.000904e-02
-9.396184e-05 -6.616664e-05 2.310612e-02
-1.769057e-03 -2.140149e-02 -1.301103e-02
-1.517503e-02 -1.825810e-02 4.016160e-03
1.499059e-02 -1.875492e-02 4.161159e-03
9.907567e-03 -1.179233e-02 -1.999525e-02
1.392255e-02 -1.633398e-02 -1.300576e-02
1.741609e-03 -2.376564e-02 4.960660e-03
1.377881e-03 -1.553033e-02 -1.995414e-02
2.283392e-03 -2.166044e-02 -1.248972e-02
-1.189465e-02 -2.084981e-02 3.853405e-03
-1.014506e-02 -1.648590e-02 -1.624422e-02
-1.318763e-04 -3.842801e-04 2.323597e-02
1.146602e-02 -2.020125e-02 5.713964e-03
9.768237e-03 -1.595543e-02 -1.668791e-02
5.599910e-03 -2.310918e-02 4.338787e-03
3.942724e-03 -2.368400e-02 4.390058e-03
3.369371e-03 -2.358884e-02 3.651909e-03
1.421666e-02 -1.906505e-02 3.933298e-03
1.471095e-02 -1.949491e-02 -2.691127e-04
1.340114e-02 -1.962210e-02 4.504549e-03
-1.392400e-04 -2.376047e-02 4.708557e-03
-5.977427e-04 -2.443866e-02 -1.785839e-04
1.433061e-04 6.422381e-05 2.323340e-02
6.220744e-04 -2.376705e-02 4.408897e-03
8.875290e-04 -2.429252e-02 -4.501762e-04
1.655611e-02 -1.687368e-02 5.295398e-03
-1.658569e-02 -1.691094e-02 5.246886e-03
-1.593000e-02 -1.780216e-02 3.914581e-03
-1.620826e-02 -1.815297e-02 -2.041873e-04
1.607878e-02 -1.729690e-02 4.005130e-03
-2.953949e-03 -2.343981e-02 4.016267e-03
-3.588111e-03 -2.337453e-02 5.307111e-03
-2.170496e-02 -9.666615e-03 5.202448e-03
1.197411e-04 7.065986e-05 2.317068e-02
-2.205097e-02 -9.083400e-03 4.303810e-03
-2.092872e-02 5.845500e-04 1.124789e-02
2.103327e-02 4.895028e-04 1.130200e-02
1.041346e-02 -2.225199e-02 2.849275e-04
2.052427e-02 -1.323098e-02 4.188227e-04
-2.057533e-02 -1.335361e-02 -2.085797e-05
3.964362e-03 2.418645e-02 2.206706e-03
-1.733475e-02 1.732145e-02 2.192372e-03
1.735548e-02 1.730407e-02 2.190068e-03
-8.409363e-05 -1.018312e-03 -2.537573e-02
-2.261865e-04 -1.127686e-05 2.319181e-02
6.255779e-03 -2.307736e-02 -6.614217e-03
1.482911e-02 3.100642e-03 -2.040904e-02
5.731270e-03 -4.176145e-03 -2.446517e-02
2.034840e-02 -1.358457e-02 8.828906e-04
1.100602e-02 -7.616614e-03 -2.173363e-02
-6.309239e-03 -4.172405e-03 -2.418175e-02
-1.159052e-02 -8.215455e-03 -2.114853e-02
8.095543e-04 -6.396590e-04 -2.554296e-02
2.354398e-02 -4.034579e-03 2.544049e-03
-5.047991e-03 -1.376876e-02 -2.098878e-02
1.157110e-04 -1.646212e-04 2.322237e-02
2.170725e-02 9.085947e-03 -7.502045e-03
2.230598e-02 9.646528e-03 1.900670e-03
-8.283025e-03 2.282583e-02 -2.458582e-04
-7.943515e-03 2.296368e-02 -6.236127e-04
8.311876e-03 2.288264e-02 -5.531651e-05
-9.098904e-03 2.263697e-02 -9.129128e-05
8.902375e-03 2.278369e-02 -3.684805e-04
-2.006805e-03 2.415280e-02 -1.968977e-03
-1.535930e-02 1.871381e-02 -2.029261e-03
1.527634e-03 2.415439e-02 -2.026974e-03
3.498440e-04 2.064990e-04 2.322887e-02
2.505961e-04 3.115807e-04 2.320930e-02
3.030732e-03 2.314998e-02 -8.015745e-03
3.346713e-03 2.402075e-02 1.311564e-03
1.610378e-02 1.744675e-02 -6.600015e-03
1.673863e-02 1.753435e-02 1.291263e-03
-1.597505e-02 1.702429e-02 -8.023839e-03
-1.674599e-02 1.755012e-02 1.304642e-03
-1.393581e-02 1.928546e-02 -6.657336e-03
-1.367904e-02 1.994990e-02 1.770696e-03
-1.328954e-02 2.003179e-02 -5.323528e-03
-1.314669e-02 2.052196e-02 -1.503046e-04
-2.630177e-04 1.388939e-04 2.319637e-02
-1.242012e-02 2.071889e-02 9.171858e-04
1.262408e-02 2.082301e-02 3.775936e-04
1.299945e-02 2.053375e-02 -2.764262e-04
8.695728e-03 2.226553e-02 -4.760532e-03
8.485063e-03 2.261767e-02 1.778675e-03
-2.277373e-02 8.540015e-03 6.232991e-04
9.987920e-03 2.209328e-02 1.091669e-03
-9.751184e-03 2.222892e-02 1.197491e-03
-2.360737e-02 -6.139131e-03 1.611744e-03
-9.114769e-04 2.201803e-02 -1.120329e-02
2.518082e-04 -1.149854e-04 2.310555e-02
-4.847146e-04 2.435603e-02 -2.299689e-03
-2.719177e-03 2.211973e-02 -1.074397e-02
-3.306796e-03 2.408479e-02 -2.999801e-03
-1.340687e-02 1.789498e-02 -1.121447e-02
4.992838e-04 2.210951e-02 -1.118835e-02
1.397685e-04 2.452070e-02 -1.511772e-03
-1.481539e-02 1.678761e-02 -1.139408e-02
2.228742e-03 2.228292e-02 -1.139264e-02
1.489902e-02 1.665638e-02 -1.139539e-02
2.085048e-02 1.220838e-02 1.293193e-03
1.314436e-04 7.148063e-05 2.322030e-02
2.068529e-02 1.161578e-02 -6.378268e-03
-2.090075e-02 1.219010e-02 1.274324e-03
-2.071523e-02 1.169337e-02 -6.386867e-03
-4.086085e-04 7.996739e-04 -2.559402e-02
2.350149e-02 -5.364251e-03 1.460586e-03
1.414050e-02 1.906087e-02 3.111016e-03
1.035771e-02 2.181249e-02 2.837283e-03
2.297617e-02 -6.860288e-03 3.083849e-03
1.932883e-02 1.405283e-02 3.747020e-03