# vtk DataFile Version 2.0
Electric current density generated by TTH
ASCII
DATASET UNSTRUCTURED_GRID
POINTS 2712 double
-1.975457e-05 1.975457e-05 -3.292392e-22
-2.543168e-05 -6.761920e-06 1.315226e-06
2.252926e-05 1.173449e-05 6.234823e-07
-4.731815e-06 -2.718410e-05 -8.984164e-07
2.620967e-05 8.646663e-06 8.913857e-07
-1.121820e-05 2.378820e-05 1.312064e-06
-2.002449e-05 1.885222e-05 9.898072e-07
-2.005924e-05 -1.892958e-05 -9.116195e-07
-2.757613e-05 5.978663e-07 9.096863e-07
-1.180994e-05 2.359756e-05 -1.328483e-06
2.736910e-05 3.261832e-06 -9.307897e-07
-2.034221e-05 1.914891e-05 -3.292392e-22
2.521410e-05 -4.367847e-06 8.945595e-07
-1.427080e-05 -2.084059e-05 -1.606970e-07
-2.305113e-05 1.533901e-05 -7.792610e-07
1.870847e-05 -1.697221e-05 -1.728680e-07
1.870847e-05 1.697221e-05 -1.728680e-07
-2.108199e-05 1.414560e-05 5.957163e-07
-2.314730e-05 1.221600e-05 -1.276949e-06
1.746925e-05 1.836311e-05 4.999848e-07
1.746925e-05 -1.836311e-05 4.999848e-07
8.391462e-06 2.484536e-05 -1.292650e-06
-2.091128e-05 1.852578e-05 -3.292392e-22
8.391462e-06 -2.484536e-05 -1.292650e-06
-6.787494e-06 -2.448669e-05 -6.383784e-07
-2.563101e-05 3.583117e-06 -1.139727e-06
-1.810420e-05 -2.083553e-05 -8.879024e-07
-2.459309e-05 -5.720830e-06 5.090369e-08
-2.438492e-05 6.858272e-06 4.630442e-07
1.317826e-05 2.254083e-05 1.254636e-06
1.317826e-05 -2.254083e-05 1.254636e-06
-2.696957e-05 -5.577167e-06 9.537756e-07
2.710277e-05 -5.144493e-06 9.052227e-07
-2.146128e-05 1.788575e-05 -3.292392e-22
-4.350294e-06 2.513749e-05 7.978667e-07
2.672009e-05 -6.671132e-06 -9.536877e-07
2.359246e-05 -1.134909e-05 -1.279298e-06
6.894265e-06 -2.674205e-05 8.714426e-07
6.894265e-06 2.674205e-05 8.714426e-07
2.672805e-05 6.831254e-06 9.046464e-07
1.977900e-05 1.714669e-05 1.278136e-06
1.977900e-05 -1.714669e-05 1.278136e-06
2.288846e-06 2.661900e-05 1.338466e-06
4.917967e-07 -2.557222e-05 8.801413e-07
-2.199169e-05 1.722939e-05 -3.292392e-22
2.529990e-05 4.352911e-06 9.788163e-07
-2.604867e-05 9.836493e-07 -1.237149e-06
-1.864379e-05 1.790945e-05 1.121732e-06
-2.386773e-05 1.396143e-05 -8.288737e-07
-2.608738e-05 3.732218e-06 1.322630e-06
2.169154e-05 -1.511867e-05 1.335540e-06
2.161468e-05 1.516569e-05 1.330931e-06
-2.548072e-05 5.542781e-06 1.241093e-06
-1.365260e-05 2.303757e-05 -1.331263e-06
2.741042e-05 -3.204102e-06 -8.937249e-07
-2.250204e-05 1.655731e-05 -3.292392e-22
-2.754435e-06 -2.602428e-05 1.275822e-06
4.367307e-06 2.597811e-05 -1.320711e-06
4.372699e-06 -2.597850e-05 -1.320953e-06
-2.757539e-05 -2.057588e-06 8.278074e-07
2.509887e-05 -3.039632e-06 -2.983044e-07
-1.927664e-05 1.798998e-05 -1.325123e-06
-2.331535e-05 -9.987673e-06 5.457802e-07
-1.894217e-05 -1.698698e-05 6.966267e-07
-1.357285e-05 -2.402454e-05 -8.977037e-07
-1.785646e-06 -2.754883e-05 -8.828332e-07
-2.299185e-05 1.587013e-05 -3.292392e-22
-1.728823e-05 -2.044706e-05 -1.331673e-06
-2.725947e-05 4.231254e-06 -9.060887e-07
-2.737091e-05 3.271793e-06 -9.276771e-07
-1.659910e-05 2.022773e-05 -1.274811e-06
2.381056e-05 8.423246e-06 1.447698e-07
-2.665748e-05 -4.084370e-07 -1.342518e-06
2.255227e-05 1.411769e-05 -1.344151e-06
8.849019e-06 2.428387e-05 -1.117522e-06
8.849019e-06 -2.428387e-05 -1.117522e-06
2.404176e-05 -7.783977e-06 2.407022e-07
-2.346069e-05 1.516847e-05 -3.292392e-22
2.063078e-05 1.834274e-05 8.836932e-07
2.063078e-05 -1.834274e-05 8.836932e-07
-1.324311e-05 -2.262974e-05 1.291426e-06
-7.991752e-06 2.642490e-05 8.824858e-07
2.444515e-05 -6.422926e-06 2.637421e-07
-2.527275e-05 8.925763e-07 3.245477e-07
-2.359125e-05 -1.432468e-05 -8.907407e-07
-7.542436e-08 2.758218e-05 -9.100415e-07
2.537617e-05 -1.103268e-05 -8.033161e-07
-1.530459e-05 -2.008285e-05 5.282993e-08
-2.390812e-05 1.445296e-05 -3.292392e-22
-2.534471e-05 2.761100e-06 7.750284e-07
2.751456e-05 -2.352529e-06 8.732007e-07
2.751456e-05 2.352529e-06 8.732007e-07
4.109613e-06 2.728397e-05 8.996635e-07
2.558323e-05 -1.041569e-05 8.645928e-07
1.767261e-05 -1.816707e-05 -4.992490e-07
1.767261e-05 1.816707e-05 -4.992490e-07
2.551206e-05 1.051336e-05 -8.978073e-07
2.514858e-05 1.139726e-05 -8.781874e-07
-6.234634e-06 2.457449e-05 5.191350e-07
-2.433374e-05 1.372427e-05 -3.292392e-22
2.339933e-05 -1.472193e-05 8.363383e-07
2.339933e-05 1.472193e-05 8.363383e-07
-2.325360e-05 1.006164e-05 4.791908e-07
-1.628136e-05 2.229845e-05 -8.791369e-07
-1.819041e-05 1.926772e-05 -1.340852e-06
-2.107424e-05 -1.407066e-05 4.864015e-07
1.736932e-05 -2.009850e-05 1.343908e-06
1.736932e-05 2.009850e-05 1.343908e-06
1.366319e-05 -2.390210e-05 9.621573e-07
1.366319e-05 2.390210e-05 9.621573e-07
-2.473715e-05 1.298306e-05 -3.292392e-22
-5.827130e-06 2.697209e-05 -8.967257e-07
2.444740e-05 -8.071454e-06 -1.043311e-06
-2.633361e-05 8.348782e-06 8.608468e-07
8.331850e-07 -2.526108e-05 -2.634719e-07
1.718580e-06 -2.525395e-05 -4.086449e-07
-2.206008e-05 1.675763e-05 -7.578853e-07
-2.132085e-05 -1.755116e-05 8.724223e-07
9.301296e-07 2.525764e-05 -2.632074e-07
-2.346022e-05 1.248880e-05 1.344130e-06
-2.516023e-05 -2.458497e-06 2.884536e-07
-2.511799e-05 1.223000e-05 -3.292392e-22
1.253855e-06 2.765299e-05 7.888229e-07
-1.668036e-05 -1.896390e-05 -1.391783e-07
-5.663652e-06 2.561895e-05 -1.296375e-06
-2.100967e-05 -1.575200e-05 -1.302058e-06
-2.463580e-05 9.090753e-06 -1.302217e-06
5.749918e-06 2.461873e-05 -2.939905e-07
5.749918e-06 -2.461873e-05 -2.939905e-07
-1.340612e-05 2.152054e-05 5.229518e-07
1.251139e-06 -2.639240e-05 -1.333309e-06
-1.522825e-05 -2.132470e-05 -1.286674e-06
-2.547592e-05 1.146578e-05 -3.292392e-22
3.541980e-06 -2.628786e-05 1.342523e-06
-2.317729e-05 -1.300033e-05 1.344092e-06
-2.322111e-05 -1.114025e-05 1.051149e-06
3.535089e-06 2.624396e-05 1.339548e-06
-2.626745e-05 2.835902e-06 -1.333058e-06
2.168818e-05 -1.309137e-05 -4.684342e-07
-2.196396e-05 1.358785e-05 1.104792e-06
-1.547360e-05 2.034253e-05 8.587012e-07
-2.116745e-05 -1.774680e-05 -8.641257e-07
-1.899212e-05 -1.952011e-05 1.181083e-06
-2.581059e-05 1.069110e-05 -3.292392e-22
-5.519868e-06 -2.471821e-05 4.520523e-07
2.398324e-05 1.134909e-05 -1.342881e-06
2.358099e-05 1.256965e-05 -1.338025e-06
-1.055452e-05 -2.313389e-05 -6.703759e-07
-1.880283e-05 -2.024969e-05 -8.513129e-07
-1.979309e-05 1.728583e-05 1.306952e-06
-2.389140e-05 -1.397715e-05 7.913172e-07
1.932249e-05 1.625653e-05 -8.443545e-08
1.932249e-05 -1.625653e-05 -8.443545e-08
-2.637800e-05 8.194528e-06 -8.654371e-07
-2.612172e-05 9.906663e-06 -3.292392e-22
2.572497e-05 -5.834730e-06 -1.326980e-06
2.317218e-05 -1.003622e-05 9.686135e-08
2.447376e-05 6.337299e-06 2.924905e-07
-8.059132e-06 2.393898e-05 1.669160e-07
-2.471212e-05 1.247043e-05 7.902925e-07
-2.094203e-05 1.807212e-05 -8.152950e-07
1.139975e-05 2.515681e-05 -8.682167e-07
1.139975e-05 -2.515681e-05 -8.682167e-07
2.389637e-05 1.394532e-05 -8.072185e-07
-2.486486e-05 1.195367e-05 -9.027157e-07
-2.640902e-05 9.113188e-06 -3.292392e-22
-1.298593e-06 2.638912e-05 -1.333183e-06
1.758268e-05 -2.128688e-05 8.795921e-07
1.758268e-05 2.128688e-05 8.795921e-07
1.315623e-05 -2.155035e-05 -1.592039e-08
1.315623e-05 2.155035e-05 -1.592039e-08
-1.252694e-05 -2.414387e-05 1.199249e-06
-1.645567e-05 -2.217336e-05 8.761244e-07
1.734693e-05 2.156194e-05 -7.993543e-07
1.734693e-05 -2.156194e-05 -7.993543e-07
1.086019e-05 2.279377e-05 6.652351e-09
-2.667221e-05 8.311398e-06 -3.292392e-22
1.086019e-05 -2.279377e-05 6.652351e-09
7.143953e-06 -2.589099e-05 1.317732e-06
7.143953e-06 2.589099e-05 1.317732e-06
-7.491695e-06 -2.483220e-05 -1.173687e-06
4.313054e-06 -2.726511e-05 8.856930e-07
5.389414e-06 2.721829e-05 -6.897531e-07
5.389414e-06 -2.721829e-05 -6.897531e-07
2.472019e-05 5.602411e-06 -5.047036e-07
-2.471744e-05 -1.250026e-05 -7.646354e-07
-2.488362e-05 6.023938e-06 -9.086708e-07
-2.691108e-05 7.502025e-06 -3.292392e-22
2.607693e-05 -9.033345e-06 8.935163e-07
-2.732683e-05 4.582372e-06 7.502056e-07
-7.484272e-06 2.659562e-05 -8.569247e-07
-1.515507e-05 2.053249e-05 -8.094454e-07
-1.953774e-05 1.645713e-05 8.421730e-07
-6.348747e-06 2.453265e-05 -4.889657e-07
1.692219e-05 1.891477e-05 5.787253e-07
1.692219e-05 -1.891477e-05 5.787253e-07
-2.668474e-05 1.608774e-06 -1.336887e-06
1.340924e-06 2.651884e-05 -1.343619e-06
-2.712538e-05 6.685806e-06 -3.292392e-22
-2.188665e-05 -1.259159e-05 6.283828e-08
1.471717e-05 2.236079e-05 1.332594e-06
1.471717e-05 -2.236079e-05 1.332594e-06
-2.481944e-05 5.921189e-06 8.043788e-07
9.094951e-06 2.610550e-05 -8.374462e-07
9.094951e-06 -2.610550e-05 -8.374462e-07
-4.274336e-06 -2.652992e-05 -1.314933e-06
6.668430e-06 2.462476e-05 7.986236e-07
6.668430e-06 -2.462476e-05 7.986236e-07
1.575394e-05 2.119355e-05 -1.331358e-06
-2.731494e-05 5.863487e-06 -3.292392e-22
1.575394e-05 -2.119355e-05 -1.331358e-06
-1.911123e-05 -1.650066e-05 2.484281e-08
-1.929909e-05 1.984489e-05 -7.884529e-07
-9.424825e-06 2.346640e-05 3.237744e-07
-2.365404e-05 -1.157527e-05 -1.319118e-06
1.233166e-05 -2.266759e-05 1.088936e-06
1.233166e-05 2.266759e-05 1.088936e-06
-1.183157e-05 2.233393e-05 -2.608868e-07
2.472192e-05 9.531976e-06 1.340711e-06
2.563300e-05 9.786978e-07 9.596365e-07
-2.747957e-05 5.035819e-06 -3.292392e-22
2.564755e-05 -9.145265e-07 9.714328e-07
2.519318e-05 -7.338208e-06 1.297094e-06
1.661087e-06 2.758100e-05 -8.540885e-07
1.222357e-05 -2.210008e-05 -1.323681e-07
1.222357e-05 2.210008e-05 -1.323681e-07
-8.857179e-06 2.620156e-05 8.199876e-07
-2.086348e-05 1.586943e-05 1.289415e-06
2.357879e-05 1.056947e-05 1.113114e-06
-1.081050e-05 -2.546878e-05 8.068080e-07
1.721132e-06 2.526253e-05 -4.350648e-07
-2.761913e-05 4.203555e-06 -3.292392e-22
-1.143352e-05 -2.514253e-05 -8.670931e-07
-2.764945e-05 -3.636948e-07 8.280705e-07
9.115492e-06 2.470384e-05 1.318638e-06
9.115492e-06 -2.470384e-05 1.318638e-06
2.673614e-05 7.085885e-06 -8.185913e-07
-1.326764e-05 -2.431903e-05 7.584078e-07
-1.606453e-05 -2.255755e-05 -7.723115e-07
2.173145e-05 1.308815e-05 -5.543971e-07
-2.246904e-05 1.151701e-05 3.861098e-09
-1.291541e-05 2.442674e-05 -8.540293e-07
-2.773349e-05 3.367456e-06 -3.292392e-22
2.511844e-05 -8.541830e-06 1.342796e-06
[...]
POINT_DATA 2712
VECTORS 10.000GHz_fone_imag double
1.464970e+10 1.490420e+10 8.146107e+08
-6.711496e+09 2.595835e+10 8.090020e+08
1.334517e+10 -2.758824e+10 1.666658e+08
-2.142162e+10 4.023375e+09 4.242367e+08
7.671466e+09 -2.072311e+10 -7.944969e+08
2.334755e+10 1.055358e+10 5.499259e+07
1.528740e+10 1.675606e+10 1.340899e+08
-1.459656e+10 1.688830e+10 1.615474e+09
-4.321983e+07 2.195172e+10 -6.215510e+08
2.348582e+10 1.175830e+10 9.536799e+07
3.002937e+09 -2.255652e+10 7.187727e+08
1.484996e+10 1.492560e+10 -1.065587e+08
-6.014895e+09 -2.907094e+10 2.717241e+08
-2.639643e+10 1.722660e+10 2.319284e+08
1.200518e+10 1.807198e+10 -8.242832e+08
-1.961460e+10 -2.219249e+10 -1.209404e+08
1.972244e+10 -2.242260e+10 5.492502e+08
1.783298e+10 2.416299e+10 -1.206350e+08
1.392688e+10 2.436074e+10 2.355718e+09
2.461793e+10 -2.435015e+10 -6.885016e+08
-2.482295e+10 -2.448479e+10 4.960676e+08
2.576281e+10 -8.395697e+09 2.988750e+08
1.376199e+10 1.639206e+10 -1.508542e+09
-2.573786e+10 -8.408760e+09 -2.970675e+08
-2.843529e+10 7.099121e+09 5.311031e+08
3.681833e+09 2.741920e+10 9.648990e+08
-1.666869e+10 1.421633e+10 -1.232869e+08
-6.038413e+09 3.136420e+10 -9.519055e+08
8.688470e+09 2.943277e+10 2.299838e+08
2.435035e+10 -1.532030e+10 4.660742e+08
-2.434541e+10 -1.531947e+10 -4.670519e+08
-4.802722e+09 2.172115e+10 -1.151043e+08
-5.039172e+09 -2.127643e+10 1.255269e+09
1.365503e+10 1.573720e+10 -7.222250e+08
3.162292e+10 6.382359e+09 2.789056e+08
-5.453388e+09 -2.359312e+10 1.541692e+08
-1.217061e+10 -2.430945e+10 3.752381e+08
-2.200926e+10 -5.239805e+09 -4.318641e+07
2.172758e+10 -5.139717e+09 2.107594e+07
6.754150e+09 -2.252278e+10 -1.291485e+09
1.789170e+10 -1.937190e+10 -8.631170e+08
-1.793682e+10 -1.927409e+10 1.295914e+09
2.645062e+10 -1.909816e+09 3.773125e+08
-2.880006e+10 -1.741690e+08 2.152528e+08
1.295093e+10 1.604283e+10 -6.223641e+08
3.202455e+09 -2.814573e+10 -8.362917e+08
1.037817e+09 2.777742e+10 -7.033257e+07
1.877824e+10 2.054662e+10 -1.089582e+09
1.200276e+10 1.860850e+10 -1.046243e+09
3.960469e+09 2.687200e+10 -1.033059e+09
-1.494543e+10 -2.103163e+10 1.537213e+09
1.633396e+10 -2.229587e+10 -6.471406e+08
6.074363e+09 2.700611e+10 -2.818540e+08
2.231689e+10 1.231451e+10 -7.318231e+07
-2.854211e+09 -2.215064e+10 3.170936e+08
1.333526e+10 1.781832e+10 -1.768040e+08
-2.830987e+10 2.503699e+09 -2.910343e+08
2.562141e+10 -3.719788e+09 -5.133924e+08
-2.558705e+10 -3.985150e+09 6.887583e+08
-2.354567e+09 2.146219e+10 4.139014e+08
-3.615880e+09 -3.057473e+10 5.553548e+08
1.864423e+10 1.938792e+10 -5.570744e+08
-1.112207e+10 2.851408e+10 -5.209904e+07
-2.004980e+10 2.360003e+10 -1.105928e+08
-2.093174e+10 1.054518e+10 1.382869e+09
-2.164659e+10 2.380310e+09 1.169946e+09
1.271119e+10 1.712992e+10 -4.548607e+08
-1.816457e+10 1.729347e+10 1.870738e+08
3.979084e+09 2.315327e+10 -1.502446e+08
2.586716e+09 2.206700e+10 -1.252178e+08
2.146396e+10 1.813421e+10 -8.668071e+08
1.155664e+10 -3.016680e+10 5.520840e+08
3.484597e+08 2.625335e+10 1.651601e+09
1.393564e+10 -2.319778e+10 -4.588740e+08
2.721772e+10 -9.981122e+09 2.416155e+08
-2.720679e+10 -9.984828e+09 -2.460436e+08
-9.488128e+09 -2.961093e+10 3.122626e+08
1.200039e+10 1.855590e+10 -1.904341e+08
1.492296e+10 -1.708425e+10 -1.441790e+08
-1.442152e+10 -1.578213e+10 -2.076512e+08
-2.258065e+10 1.382765e+10 1.500494e+09
2.118941e+10 6.493057e+09 3.552481e+07
-8.777601e+09 -2.938050e+10 -4.855646e+06
3.068812e+08 3.151204e+10 -8.995439e+08
-1.139451e+10 1.946838e+10 -1.192591e+09
2.300847e+10 -6.582784e+08 -3.140927e+08
-8.769350e+09 -2.037997e+10 -2.235393e+08
-2.578955e+10 1.828088e+10 -4.596316e+08
9.936485e+09 1.831744e+10 -5.278347e+07
5.408276e+09 2.996445e+10 1.394846e+09
-2.036257e+09 -2.197328e+10 -1.737991e+09
2.830661e+09 -2.344789e+10 -5.815413e+08
2.296614e+10 -1.441206e+09 -2.240999e+09
-9.158333e+09 -2.262425e+10 7.135873e+08
-2.462165e+10 -2.260185e+10 5.289391e+08
2.466627e+10 -2.249104e+10 -8.160888e+08
9.007728e+09 -2.141818e+10 6.071673e+07
9.460315e+09 -2.045198e+10 3.423167e+08
2.978960e+10 6.657098e+09 6.409114e+08
1.063338e+10 1.779538e+10 -1.707990e+09
-1.327563e+10 -2.096475e+10 4.362439e+08
1.245041e+10 -1.939174e+10 -5.556242e+08
1.308411e+10 2.747371e+10 4.439414e+08
1.823606e+10 1.290398e+10 -1.577512e+08
1.884867e+10 1.767993e+10 1.226997e+09
-1.581448e+10 2.456380e+10 1.187226e+09
-2.007089e+10 -1.598218e+10 1.349497e+08
2.006883e+10 -1.595116e+10 -1.346467e+08
-2.144981e+10 -1.304423e+10 -1.983516e+08
2.144910e+10 -1.304279e+10 1.988378e+08
1.222662e+10 2.017163e+10 7.200137e+07
2.134712e+10 4.638819e+09 4.520237e+08
-8.399957e+09 -2.778889e+10 8.694812e+08
6.391275e+09 2.314735e+10 2.317278e+09
-3.060306e+10 -1.357438e+08 5.738236e+08
-3.341484e+10 -2.785520e+09 -6.612478e+08
1.360132e+10 1.741565e+10 1.925674e+08
-1.301626e+10 1.796277e+10 1.104975e+09
3.207674e+10 -1.105085e+09 1.462252e+09
1.212273e+10 2.473211e+10 7.633296e+08
-3.199318e+09 3.469219e+10 1.110522e+09
1.377203e+10 2.692876e+10 -1.395770e+09
2.433372e+10 -1.290490e+09 1.051347e+08
-2.725140e+10 2.499043e+10 -6.762420e+07
2.660091e+10 5.928341e+09 -7.018668e+08
-1.712738e+10 2.494333e+10 4.989597e+08
1.052684e+10 2.872008e+10 -4.444519e+07
3.019327e+10 -7.467420e+09 2.422697e+08
-3.000605e+10 -6.522038e+09 3.365206e+08
2.670916e+10 1.558401e+10 -1.015921e+09
-2.606264e+10 -3.298628e+09 2.013615e+07
-2.403922e+10 1.646590e+10 1.094929e+09
7.361107e+09 2.062275e+10 7.228938e+07
-2.882385e+10 -4.094859e+09 -2.786059e+08
-1.284126e+10 2.217472e+10 -6.961460e+07
-1.202075e+10 2.603594e+10 6.856997e+08
2.971014e+10 -4.658894e+09 5.441859e+07
3.167946e+09 2.701043e+10 2.698685e+08
-1.499080e+10 -2.598756e+10 9.123338e+08
1.478126e+10 2.417130e+10 3.308026e+08
2.420487e+10 1.787373e+10 -1.808639e+09
-1.417615e+10 1.731857e+10 -3.760094e+08
-1.700825e+10 1.652904e+10 -5.140469e+08
8.651521e+09 2.071979e+10 -1.479336e+09
-2.980454e+10 6.585360e+09 -6.334440e+07
1.063256e+10 -2.421431e+10 1.000735e+09
1.232895e+10 -2.201617e+10 -1.020708e+09
-2.812584e+10 1.129097e+10 1.093799e+08
-1.687375e+10 1.488918e+10 -1.770404e+09
1.741011e+10 1.928796e+10 -6.838986e+08
-1.097222e+10 1.899217e+10 -1.391994e+08
2.061548e+10 -2.549474e+10 1.664791e+09
-2.140772e+10 -2.566486e+10 1.621294e+09
6.611994e+09 2.186324e+10 -2.646073e+08
7.387533e+09 2.043031e+10 1.323787e+09
-5.282245e+09 -2.564952e+10 -1.724273e+08
-1.208376e+10 -2.759889e+10 -6.062649e+08
9.240554e+09 -3.698470e+10 -1.830528e+08
2.987297e+10 1.043228e+10 2.588846e+08
1.226942e+10 2.069733e+10 1.144937e+09
1.476353e+10 1.705817e+10 6.465178e+08
1.983571e+10 -9.364776e+09 3.084003e+08
-1.983424e+10 -9.365583e+09 -3.074112e+08
1.058200e+10 -1.912797e+10 -1.607943e+08
1.045493e+10 2.290902e+10 -1.134415e+09
6.435499e+09 1.802516e+10 3.587358e+08
2.911910e+10 4.492676e+08 -6.048818e+08
-1.814057e+10 -1.669020e+10 1.230943e+09
1.814818e+10 -1.667198e+10 -1.252717e+09
-2.564160e+10 -1.695900e+10 8.142057e+08
2.562753e+10 -1.695438e+10 -8.133256e+08
-3.077906e+10 1.405234e+10 -7.419159e+07
-1.750302e+10 1.338706e+10 3.302985e+07
1.785071e+10 -1.667303e+10 -2.105347e+08
-1.784265e+10 -1.666665e+10 2.064423e+08
2.938743e+10 -1.438437e+10 -1.172436e+09
6.599963e+09 2.117475e+10 -2.224044e+08
-2.938696e+10 -1.438399e+10 1.169097e+09
-2.545859e+10 -5.577916e+09 -1.481639e+08
2.537816e+10 -5.422277e+09 1.278139e+08
-2.692413e+10 8.955334e+09 -9.541792e+08
-2.275674e+10 -2.503951e+09 1.206538e+09
2.130769e+10 -4.067517e+09 6.191144e+08
-2.145787e+10 -4.182438e+09 -5.350701e+08
7.737842e+09 -2.936068e+10 -2.730661e+08
-1.018110e+10 2.038414e+10 -8.364172e+08
7.189752e+09 3.108448e+10 -4.007400e+08
5.178359e+09 2.046309e+10 4.322814e+08
-8.434929e+09 -2.177836e+10 6.436332e+08
3.091113e+09 2.227211e+10 -1.460915e+08
2.249583e+10 5.615908e+09 1.570479e+07
2.637919e+10 1.653144e+10 -9.432714e+07
1.958853e+10 2.213672e+10 -3.203135e+08
2.996504e+10 6.139564e+09 3.631537e+08
2.205522e+10 -2.057326e+10 -4.471556e+08
-2.209674e+10 -2.063052e+10 4.056824e+08
1.424904e+09 2.575381e+10 -2.490602e+08
2.543318e+10 -7.706427e+08 -6.199712e+08
6.715845e+09 2.005745e+10 1.573093e+08
-1.629475e+10 2.669979e+10 1.459558e+09
1.999201e+10 -1.397873e+10 7.878867e+08
-1.999444e+10 -1.397613e+10 -7.879329e+08
5.925292e+09 2.861155e+10 -6.936616e+08
2.085090e+10 -7.478544e+09 1.237482e+09
-2.085213e+10 -7.488773e+09 -1.228177e+09
-2.402933e+10 3.695218e+09 -1.099446e+09
2.824766e+10 -9.318652e+09 7.043549e+08
-2.832872e+10 -9.553591e+09 -3.863473e+08
2.362808e+10 -2.116047e+10 -1.099153e+09
4.660094e+09 2.290029e+10 -3.645523e+08
-2.362336e+10 -2.116192e+10 1.100256e+09
-2.033837e+10 2.339277e+10 3.094005e+08
1.482004e+10 1.560902e+10 3.090340e+08
2.983706e+10 1.185954e+10 -6.592724e+08
-1.140709e+10 2.592099e+10 -8.821375e+08
-2.472194e+10 -1.303166e+10 -5.426479e+08
2.472884e+10 -1.303100e+10 5.490663e+08
2.815889e+10 1.494674e+10 2.314433e+08
8.715714e+09 -2.430327e+10 4.442061e+08
2.488652e+08 -2.903491e+10 4.329248e+08
3.790405e+09 2.152083e+10 -5.452547e+08
-2.658088e+08 -2.837565e+10 -3.455680e+08
-7.123531e+09 -2.721900e+10 3.923614e+08
2.182560e+10 -7.751498e+08 6.414387e+08
-2.678574e+10 -1.452397e+10 6.863155e+07
2.678112e+10 -1.451672e+10 -6.926809e+07
2.121633e+10 6.858384e+09 -9.873015e+08
1.697970e+10 2.140650e+10 -5.668163e+07
1.379848e+10 -2.557136e+10 1.044086e+09
-2.045977e+10 7.842043e+09 4.857829e+08
3.062796e+10 -2.772575e+09 2.438242e+09
3.705038e+09 2.156693e+10 -1.348451e+09
-2.174390e+10 9.287075e+09 -6.157465e+07
9.362881e+08 2.149413e+10 -2.538728e+08
2.614497e+10 -8.530271e+09 4.211594e+08
-2.614409e+10 -8.537942e+09 -4.194930e+08
4.824859e+09 -2.164365e+10 2.378897e+08
-2.319707e+10 1.583483e+10 -2.159857e+09
-1.727908e+10 1.436018e+10 5.321773e+08
1.414151e+10 -2.630703e+10 -3.509918e+08
1.390549e+10 3.020761e+10 2.048519e+08
2.004079e+10 1.068705e+10 -7.183461e+08
2.461439e+09 2.084124e+10 -5.391633e+08
-8.169536e+09 -2.481195e+10 -9.368748e+08
9.165857e+08 3.014515e+10 -9.888002e+08
-2.555692e+10 -7.697478e+09 -2.258410e+08
2.555774e+10 -7.674722e+09 2.309392e+08
1.293504e+10 1.738546e+10 7.062690e+07
-1.133485e+10 -2.616505e+10 -1.142088e+09
-2.743885e+10 1.162265e+10 6.565181e+08
-9.845587e+09 2.427136e+10 6.772004e+08
8.310576e+09 -2.079569e+10 -5.607854e+07
-2.832831e+10 -1.133026e+09 1.853858e+09
1.980328e+09 2.108017e+10 -5.778561e+08
-2.179169e+08 2.738094e+10 1.871966e+08
3.486373e+10 -2.614467e+09 -3.386149e+08
-1.364535e+10 -2.163975e+10 -1.150749e+09
-2.326964e+10 2.024997e+10 1.322058e+08
-6.630431e+09 -2.091017e+10 -2.584354e+08
2.782738e+10 -9.996379e+09 5.450214e+06
-2.783315e+10 -1.000295e+10 -1.527613e+06
-3.842819e+09 -2.705153e+10 -1.583910e+08
-2.522196e+10 1.636197e+10 -7.770392e+08
-2.167933e+10 3.623780e+09 -2.720045e+08
1.774698e+09 2.194694e+10 -1.056172e+09
-1.596648e+09 2.157121e+10 3.224119e+07
-2.067427e+10 -6.867438e+09 -1.652288e+08
2.064960e+10 -6.853990e+09 1.640130e+08
-1.782859e+10 1.799584e+10 -6.212100e+08
-3.280914e+10 -1.924820e+09 2.398419e+08
2.185922e+10 1.115393e+09 -5.160917e+08
-2.565405e+10 8.346249e+09 -8.999231e+08
2.016715e+10 -2.382358e+10 1.694782e+08
-1.990309e+10 -2.414000e+10 2.842291e+08
2.650635e+10 5.098462e+09 2.500176e+08
-1.789618e+06 2.115750e+10 -5.334552e+08
-9.382017e+09 -1.999353e+10 -6.089824e+08
1.877612e+10 2.514445e+10 1.224479e+09
-2.255049e+10 9.749521e+07 8.538493e+08
2.158850e+10 4.722583e+09 -3.516148e+08
-1.587756e+10 1.518453e+10 -2.891703e+08
2.736526e+10 1.190857e+09 2.633024e+08
-1.270276e+10 -2.658044e+10 1.684892e+08
4.211087e+09 -3.044360e+10 -3.368721e+08
2.408681e+10 -1.010344e+10 -1.467700e+08
-2.408603e+10 -1.010753e+10 1.472778e+08
3.117029e+08 2.159882e+10 5.013296e+08
-1.988774e+10 2.115995e+10 1.372153e+09
-5.669142e+09 2.319927e+10 -4.621918e+08
3.070292e+10 -6.760613e+09 -7.524043e+08
-2.995662e+10 -6.851334e+09 6.844861e+08
-2.342619e+10 1.694577e+10 5.474731e+07
-8.469601e+08 2.899347e+10 -3.381110e+08
-1.086543e+10 2.871351e+10 -7.453144e+07
3.097195e+10 9.836451e+08 7.786690e+08
-2.709542e+10 1.631227e+10 4.468189e+08
-1.733210e+10 -1.706928e+10 -6.872212e+08
-4.385099e+08 2.079622e+10 5.483527e+08
1.734439e+10 -1.707994e+10 6.815157e+08
-2.053566e+10 1.785450e+10 2.109983e+08
-9.769909e+09 2.154332e+10 -4.421628e+08
-9.707680e+09 -2.749183e+10 7.624387e+08
1.053037e+10 2.192776e+10 1.291176e+09
2.004028e+10 7.747143e+09 -1.871162e+08
1.684414e+10 1.452233e+10 -4.697843e+08
1.632394e+10 1.383079e+10 9.119749e+07
-1.705552e+10 1.254095e+10 -1.015312e+08
-7.289619e+09 -2.086142e+10 7.466165e+08
-1.328198e+09 2.056073e+10 -2.336937e+08
1.275359e+08 3.134962e+10 1.072688e+09
1.288075e+10 -2.345282e+10 -5.515914e+08
-3.265098e+09 2.834360e+10 1.574711e+08
-1.357868e+10 2.069594e+10 1.346758e+09
-2.679047e+10 9.359852e+08 -1.443088e+09
2.146071e+10 3.677914e+09 7.713634e+08
-1.802347e+10 -1.721483e+10 -5.786486e+08
1.803178e+10 -1.709686e+10 5.274318e+08
-2.165527e+10 -1.234289e+10 -1.471417e+09
2.165422e+10 -1.233876e+10 1.471595e+09
-1.876525e+09 2.174731e+10 -2.783352e+08
-2.269391e+10 1.188073e+10 -6.627179e+08
1.661551e+10 1.447088e+10 -5.283546e+07
-2.636548e+10 -2.237659e+10 5.282952e+08
2.636462e+10 -2.237743e+10 -5.308128e+08
-2.578737e+10 -1.203517e+10 7.839178e+08
2.578441e+10 -1.204038e+10 -7.766979e+08
7.642135e+09 -3.179249e+10 2.536527e+09
-1.999700e+10 2.345087e+10 6.446848e+08
1.568017e+10 2.573282e+10 -5.423380e+08
-2.096131e+10 -4.843658e+09 2.350322e+08
-3.178730e+09 2.058623e+10 3.604682e+08
2.107290e+10 -4.954669e+09 -6.091948e+08
1.196554e+10 -2.887452e+10 -1.540728e+09
-1.996474e+10 -1.041705e+10 1.345564e+09
1.996484e+10 -1.041496e+10 -1.347094e+09
1.756713e+10 -2.617504e+10 -2.910247e+09
-1.699770e+10 -2.594838e+10 5.291432e+08
-4.889486e+09 -2.859152e+10 -8.216993e+08
1.818283e+10 -2.635651e+10 1.057133e+09
-1.999558e+10 1.001935e+10 -1.824006e+08
9.973830e+09 3.090812e+10 2.974740e+09
-2.924813e+09 2.085320e+10 -1.966952e+08
1.557930e+10 -1.487525e+10 3.446521e+08
-1.552771e+10 -1.491370e+10 -4.385887e+08
6.616505e+08 2.190434e+10 4.853452e+08
-2.322902e+10 -2.500738e+09 1.562205e+09
2.507065e+10 -1.242529e+09 -7.885768e+08
-3.108484e+10 -5.810094e+09 4.361815e+08
2.912438e+10 -6.882214e+09 -1.293027e+09
2.158712e+10 1.679306e+10 -9.057371e+07
1.570225e+10 -2.754901e+10 -1.209220e+09
2.396598e+10 7.407130e+09 -4.129503e+08
-3.678334e+09 2.175808e+10 -9.692120e+08
2.801918e+10 8.722075e+09 2.191602e+08
2.131471e+10 -1.057013e+10 5.749580e+08
-2.131521e+10 -1.057453e+10 -5.761521e+08
-1.291952e+10 1.945587e+10 -7.337042e+08
-2.128164e+10 -1.439530e+10 -1.135202e+09
2.128285e+10 -1.439563e+10 1.134824e+09
2.224290e+10 1.018615e+09 -3.773913e+08
-2.942513e+10 -3.782032e+09 -1.017025e+09
-2.177031e+10 -1.165615e+09 7.430445e+08
-2.420192e+10 -1.588794e+10 -1.007750e+09
-4.708910e+09 2.111520e+10 2.237749e+08
2.419944e+10 -1.588730e+10 1.006892e+09
2.240415e+10 1.406459e+10 5.925260e+07
9.137147e+09 2.127426e+10 -4.243018e+08
-9.253225e+09 2.793249e+10 -6.604081e+08
2.485694e+09 2.580764e+10 -4.152352e+07
-2.457748e+10 1.628416e+10 3.347135e+08
2.956195e+10 2.590299e+08 2.959436e+08
-2.165236e+10 7.989139e+09 -2.061288e+09
-2.139031e+10 6.812265e+08 2.623797e+08
1.824584e+10 1.251657e+10 -3.143475e+08
-4.530987e+09 2.158542e+10 -4.977867e+08
-1.188953e+10 -2.826814e+10 1.432421e+09
2.997842e+09 -2.440206e+10 4.196489e+08
-7.802777e+08 -2.426859e+10 -5.845536e+08
-3.013044e+08 2.213242e+10 -3.475163e+08
1.729584e+10 2.102460e+10 -1.187660e+09
3.330133e+10 -4.312244e+09 -4.028930e+08
-9.325972e+09 2.499229e+10 1.113633e+08
-2.619791e+10 7.091219e+09 -1.724807e+08
6.184662e+09 -2.538685e+10 1.824594e+08
1.972234e+09 2.194058e+10 6.050344e+08
-6.425659e+09 2.229918e+10 9.100172e+08
1.548348e+10 2.901692e+10 -1.700561e+08
2.342489e+10 -4.594267e+09 3.432314e+09
-2.187269e+10 -3.856062e+09 -2.403557e+09
5.874914e+09 2.750309e+10 -2.191716e+08
-2.655054e+10 -2.071684e+10 7.407535e+08
2.654652e+10 -2.070969e+10 -7.412359e+08
2.463441e+10 -5.828339e+09 8.656807e+07
-2.358539e+10 -5.295374e+09 -4.467841e+08
5.053376e+09 2.084127e+10 1.149000e+09
-1.069955e+10 -2.530835e+10 1.787565e+08
-5.058791e+09 2.140146e+10 -2.712987e+08
-2.851449e+10 9.938797e+09 -3.835713e+07
-1.459336e+10 2.543476e+10 -5.365706e+08
-2.122957e+10 -1.168219e+10 -1.079193e+08
2.122972e+10 -1.168081e+10 1.050996e+08
2.971582e+10 2.179553e+09 -1.040399e+09
2.238778e+10 3.351001e+09 -2.317253e+08
-2.839461e+10 4.718058e+09 2.057198e+08
-1.412388e+10 1.961383e+10 -8.398094e+07
2.099435e+10 1.246764e+10 4.169744e+08
1.391980e+10 1.844503e+10 -2.955733e+08
-7.983717e+09 2.257778e+10 -1.137103e+09
-6.976290e+09 2.235487e+10 -7.672751e+08
1.216001e+10 -2.560189e+10 3.840114e+08
1.585979e+10 -1.765089e+10 1.192424e+09
-1.519494e+10 -1.867259e+10 -1.000803e+09
-7.493253e+09 -2.852547e+10 3.392310e+08
-1.805492e+10 -2.547355e+10 8.776174e+08
2.008265e+10 1.715296e+10 -1.028371e+09
-5.183721e+09 2.797452e+10 -8.483523e+08
1.090180e+10 -2.751699e+10 -8.747845e+06
-9.953145e+09 2.872570e+10 1.442047e+08
-8.820183e+09 1.944593e+10 3.005143e+08
1.530767e+10 2.085714e+10 2.634412e+08
1.517019e+10 2.165603e+10 -9.091967e+08
1.212873e+10 -1.796487e+10 -2.116985e+08
9.514639e+09 2.641581e+10 -4.542006e+08
-1.030833e+10 -2.048814e+10 8.741940e+08
8.276899e+09 2.282804e+10 8.872056e+08
-2.692517e+10 8.797012e+09 -2.415884e+08
2.070622e+10 1.399816e+10 -1.084685e+07
-2.920758e+10 1.259771e+09 2.556743e+09
2.614936e+10 1.383686e+10 3.003812e+07
-7.728972e+09 1.903572e+10 -5.395766e+08
2.508778e+10 1.508648e+10 -1.919578e+08
4.784067e+09 2.931358e+10 -5.010144e+08
-1.256522e+10 -2.354109e+10 -1.553937e+08
1.310103e+10 1.702234e+10 1.278602e+08
-1.877856e+10 1.642249e+10 -2.586557e+08
-1.619774e+10 2.204122e+10 -5.994817e+08
-5.533796e+09 -2.225430e+10 2.623337e+08
2.218974e+10 1.327953e+10 1.692558e+08
2.565709e+10 2.494250e+09 1.527039e+09
-1.890070e+10 -1.228872e+10 4.258884e+08
-7.100942e+09 1.968908e+10 3.727822e+08
1.890519e+10 -1.229496e+10 -4.283511e+08
-2.603730e+10 2.940497e+09 5.924856e+08
-2.363803e+10 2.480810e+09 -6.510148e+07
1.224129e+10 3.721674e+10 -1.639692e+08
-2.416571e+10 -2.337503e+09 -3.710498e+08
1.690990e+10 1.351932e+10 -4.430680e+08
9.909732e+09 -2.910140e+10 -9.832827e+07
2.516307e+10 -4.084155e+08 -5.737386e+07
-2.352449e+10 -8.587382e+09 3.448860e+08
2.353832e+10 -8.590489e+09 -3.505230e+08
-1.044525e+10 1.997485e+10 -1.728540e+09
-2.118544e+10 2.128428e+10 -9.843141e+08
-2.587446e+10 1.197177e+10 -5.721357e+08
1.494610e+10 -2.117256e+10 9.799647e+08
-2.557954e+09 2.754997e+10 6.467468e+08
-9.597134e+09 -2.827257e+10 5.874344e+08
2.490353e+10 3.702374e+08 -1.541772e+08
-2.880387e+10 1.402048e+10 2.705039e+09
3.044729e+10 7.241861e+09 8.696502e+08
-2.329983e+10 1.402699e+10 3.330045e+09
-2.773854e+10 4.224617e+09 2.995009e+08
-9.987377e+09 1.942612e+10 -6.992031e+08
1.119842e+10 -2.241138e+10 -5.008167e+08
-1.443823e+10 1.975969e+10 -1.286427e+09
1.453860e+10 2.646177e+10 -8.004530e+08
2.933885e+10 2.961531e+09 1.379479e+09
1.480948e+10 2.574081e+10 -9.219278e+08
2.695091e+10 8.133241e+09 -3.071341e+08
-2.629647e+10 1.127658e+10 -3.432772e+09
-1.038249e+10 1.957560e+10 -8.639277e+08
-1.218694e+10 -2.327896e+10 1.107909e+08
-2.952070e+10 -4.693099e+09 -1.033729e+09
-1.079249e+10 1.812374e+10 1.109300e+09
3.118600e+10 -4.797301e+09 2.996303e+09
-1.833177e+10 2.299033e+10 -6.500314e+08
2.220488e+10 2.159086e+10 2.899092e+08
-2.650980e+10 -2.566308e+08 -6.541001e+08
9.191911e+09 2.867117e+10 -4.900290e+09
1.426320e+10 1.591114e+10 -5.655862e+08
-2.816160e+10 -1.497251e+10 9.721597e+08
2.817346e+10 -1.497464e+10 -9.780101e+08
-2.271878e+10 -1.935765e+10 1.073196e+09
2.274046e+10 -1.934898e+10 -1.099242e+09
-1.034486e+10 1.817985e+10 -2.816639e+08
1.134483e+10 -2.198465e+10 5.147353e+08
-1.108154e+10 -2.221552e+10 -2.538533e+08
1.229227e+10 -2.183075e+10 -3.205059e+08
-2.245375e+10 1.714120e+10 1.805479e+09
-2.263467e+10 9.853337e+08 -3.604230e+08
3.213689e+09 -2.921134e+10 -1.115154e+09
2.977178e+10 -3.954594e+08 -6.847381e+07
-1.273372e+10 -2.370243e+10 1.278170e+09