# vtk DataFile Version 2.0
Electric current density generated by TTH
ASCII
DATASET UNSTRUCTURED_GRID
POINTS 1108 double
1.119749e-05 -2.742593e-21 -6.010000e-22
7.829750e-06 8.004920e-06 -6.010000e-22
-1.723562e-06 -6.941901e-06 -1.868031e-06
5.666886e-06 3.230095e-06 1.043344e-06
-6.839237e-06 -4.515754e-07 -1.565386e-06
-6.572695e-06 -1.329116e-06 1.366602e-06
-2.792293e-06 6.640440e-06 1.910267e-06
-2.792293e-06 -6.640440e-06 1.910267e-06
8.065171e-06 7.673412e-06 -5.618118e-07
8.065171e-06 -7.673412e-06 -5.618118e-07
-5.447392e-06 3.225916e-06 -4.465520e-07
-1.043970e-05 1.855825e-06 1.600838e-06
-7.906935e-06 4.657978e-06 -2.415221e-06
-1.723562e-06 6.941901e-06 -1.868031e-06
5.493743e-06 3.081417e-06 -2.095784e-07
5.493743e-06 -3.081417e-06 -2.095784e-07
7.913324e-06 1.598604e-06 2.360373e-06
7.910280e-06 -1.586108e-06 2.358818e-06
5.182326e-06 -3.938921e-06 -1.014182e-06
5.182326e-06 3.938921e-06 -1.014182e-06
5.934504e-06 -2.713785e-06 -1.049174e-06
5.934504e-06 2.713785e-06 -1.049174e-06
-6.305951e-06 -9.163474e-06 -5.976540e-07
-6.305951e-06 9.163474e-06 -5.976540e-07
9.610481e-06 -3.258077e-06 2.012396e-06
-5.763672e-06 -3.254959e-06 -1.227876e-06
-5.715714e-06 4.567813e-06 -1.996156e-06
1.009042e-05 -1.994460e-06 -1.908783e-06
1.008737e-05 2.011653e-06 -1.908497e-06
1.183594e-06 6.563140e-06 -1.310178e-06
1.183594e-06 -6.563140e-06 -1.310178e-06
-6.737253e-06 1.545549e-06 -1.633013e-06
6.189990e-06 -2.092924e-06 -1.067330e-06
6.189364e-06 2.094648e-06 -1.067245e-06
-4.376518e-06 -1.020811e-05 -6.611932e-07
9.610481e-06 3.258077e-06 2.012396e-06
-4.376518e-06 1.020811e-05 -6.611932e-07
3.279237e-06 6.010778e-06 1.556868e-06
3.279237e-06 -6.010778e-06 1.556868e-06
1.573809e-06 -6.175215e-06 -6.315268e-07
1.573809e-06 6.175215e-06 -6.315268e-07
3.146020e-06 -1.067687e-05 -5.684982e-07
3.146020e-06 1.067687e-05 -5.684982e-07
-5.575505e-06 -4.170762e-06 1.688061e-06
-5.577768e-06 4.159775e-06 1.683022e-06
1.032467e-05 -1.450747e-06 1.786218e-06
-7.325143e-06 0.000000e+00 2.002155e-06
1.030110e-05 1.483185e-06 1.803713e-06
-5.230382e-06 -4.612613e-06 1.699462e-06
-5.232420e-06 4.607832e-06 1.697760e-06
-7.865492e-06 -3.429932e-06 -2.448355e-06
8.812349e-06 -3.631542e-06 2.323942e-06
8.812349e-06 3.631542e-06 2.323942e-06
-3.809485e-06 5.020922e-06 -2.481134e-07
-3.809564e-06 -5.020911e-06 -2.484987e-07
-8.078299e-06 5.299418e-06 2.275705e-06
-8.070858e-06 -5.269049e-06 2.284789e-06
5.305805e-06 3.453517e-06 4.455832e-07
-6.073081e-06 -5.287386e-06 2.354327e-06
-6.070365e-06 5.287477e-06 2.353742e-06
-9.201820e-06 5.386406e-06 1.529584e-06
-3.372730e-06 -7.825916e-06 2.443709e-06
-3.372730e-06 7.825916e-06 2.443709e-06
3.196002e-06 -5.461078e-06 4.278777e-07
3.196002e-06 5.461078e-06 4.278777e-07
-5.894023e-06 -6.982688e-06 -2.421934e-06
-5.894023e-06 6.982688e-06 -2.421934e-06
9.572264e-06 3.376973e-06 -2.010476e-06
5.305805e-06 -3.453517e-06 4.455832e-07
9.572264e-06 -3.376973e-06 -2.010476e-06
-6.338679e-06 7.435538e-08 -4.887351e-07
4.609942e-06 -1.008778e-05 -7.143471e-07
4.609942e-06 1.008778e-05 -7.143471e-07
-1.112179e-05 -1.288120e-08 6.047587e-07
-5.940890e-06 5.439831e-06 -2.355185e-06
1.012137e-05 2.947787e-06 -1.669592e-06
1.012228e-05 -2.942889e-06 -1.670127e-06
-1.030949e-05 -2.017998e-06 1.708324e-06
-5.712878e-07 6.301971e-06 -4.293931e-07
9.007413e-06 -1.769353e-06 -2.414753e-06
-5.712878e-07 -6.301971e-06 -4.293931e-07
3.146801e-06 8.253293e-06 2.452150e-06
3.146801e-06 -8.253293e-06 2.452150e-06
-8.852574e-06 -6.687297e-06 7.034141e-07
-7.056912e-06 2.761013e-06 -2.159083e-06
-1.027627e-05 -1.282202e-06 1.849775e-06
1.134449e-06 1.067786e-05 1.429687e-06
1.134449e-06 -1.067786e-05 1.429687e-06
-5.631788e-06 3.397146e-06 -1.151757e-06
8.502099e-06 2.623496e-06 -2.448935e-06
9.007413e-06 1.769353e-06 -2.414753e-06
8.502099e-06 -2.623496e-06 -2.448935e-06
-9.986568e-07 -9.441307e-06 2.336257e-06
-9.986568e-07 9.441307e-06 2.336257e-06
-2.505723e-06 -9.322572e-06 -2.278899e-06
-2.505723e-06 9.322572e-06 -2.278899e-06
-8.798455e-06 4.309041e-06 -2.216222e-06
9.911130e-06 4.990505e-06 6.962019e-07
9.911130e-06 -4.990505e-06 6.962019e-07
-5.366959e-06 9.039961e-06 1.700086e-06
-5.366959e-06 -9.039961e-06 1.700086e-06
-5.588158e-07 8.001459e-06 2.344906e-06
-9.373600e-06 -2.877113e-07 2.370369e-06
5.661703e-06 -7.806703e-06 -2.282794e-06
5.661703e-06 7.806703e-06 -2.282794e-06
6.339620e-06 -7.038596e-07 6.535055e-07
6.332113e-06 7.331626e-07 6.382709e-07
3.825642e-06 5.129964e-06 -7.246082e-07
3.825642e-06 -5.129964e-06 -7.246082e-07
-8.096887e-06 -5.810458e-06 -2.127682e-06
-7.174168e-06 -8.489044e-06 6.326791e-07
-7.174168e-06 8.489044e-06 6.326791e-07
7.091635e-06 8.665589e-06 -6.010000e-22
-3.729254e-06 6.923862e-06 2.290765e-06
7.629255e-06 -7.329615e-06 1.627997e-06
7.629255e-06 7.329615e-06 1.627997e-06
-6.334203e-06 7.139711e-07 -6.378920e-07
-8.074222e-06 5.804599e-06 -2.140072e-06
8.137716e-06 7.614765e-06 5.056489e-07
8.137716e-06 -7.614765e-06 5.056489e-07
9.378595e-06 6.023686e-06 4.979694e-07
9.378595e-06 -6.023686e-06 4.979694e-07
-6.024990e-06 -2.765858e-06 1.245442e-06
-5.588158e-07 -8.001459e-06 2.344906e-06
-3.729254e-06 -6.923862e-06 2.290765e-06
5.368624e-06 -7.172744e-06 -2.444274e-06
5.368624e-06 7.172744e-06 -2.444274e-06
2.380936e-06 8.509764e-06 2.452012e-06
2.380936e-06 -8.509764e-06 2.452012e-06
-6.742196e-06 -5.772435e-06 2.450216e-06
-8.236562e-06 -3.043805e-06 2.453486e-06
-6.742196e-06 5.772435e-06 2.450216e-06
6.298019e-06 9.258439e-06 -6.010000e-22
-8.481801e-06 2.950838e-06 2.442323e-06
5.952876e-07 8.923435e-06 -2.445641e-06
5.952876e-07 -8.923435e-06 -2.445641e-06
4.016795e-06 5.788284e-06 1.771154e-06
4.016795e-06 -5.788284e-06 1.771154e-06
-6.739783e-06 -1.102724e-06 -1.535043e-06
-5.237272e-06 -7.370359e-06 -2.435616e-06
-7.432186e-06 -5.232466e-06 -2.429306e-06
-5.237272e-06 7.370359e-06 -2.435616e-06
-7.422161e-06 5.228219e-06 -2.430796e-06
5.455112e-06 9.778828e-06 -6.010000e-22
-8.800989e-06 2.695417e-06 -2.410118e-06
5.196330e-06 -7.810399e-06 2.369554e-06
5.196330e-06 7.810399e-06 2.369554e-06
-9.178074e-06 -2.495566e-06 -2.330621e-06
6.927043e-06 2.514705e-06 2.032771e-06
6.927043e-06 -2.514705e-06 2.032771e-06
-3.215995e-06 8.850686e-06 -2.359632e-06
-3.215995e-06 -8.850686e-06 -2.359632e-06
8.532527e-06 -4.515324e-06 -2.278833e-06
8.532527e-06 4.515324e-06 -2.278833e-06
4.569511e-06 1.022269e-05 -6.010000e-22
-1.751177e-06 6.134885e-06 6.583760e-07
-1.751177e-06 -6.134885e-06 6.583760e-07
6.448100e-06 -2.511406e-06 -1.641556e-06
5.009961e-06 -4.572622e-06 -1.475269e-06
6.448100e-06 2.511406e-06 -1.641556e-06
5.009961e-06 4.572622e-06 -1.475269e-06
-2.678676e-06 -9.446095e-06 2.205835e-06
-2.678676e-06 9.446095e-06 2.205835e-06
-9.809206e-06 -7.138063e-07 2.197675e-06
-6.278486e-06 4.083759e-07 9.405732e-08
3.648148e-06 1.058654e-05 -6.010000e-22
-5.865299e-06 -3.466648e-06 1.514593e-06
-5.883788e-06 3.414842e-06 1.501464e-06
3.556912e-06 9.232907e-06 -2.167262e-06
3.556912e-06 -9.232907e-06 -2.167262e-06
-7.204828e-06 1.013505e-06 -1.966238e-06
-9.862121e-06 1.690613e-06 2.104206e-06
-7.148279e-07 9.988513e-06 2.099338e-06
-7.148279e-07 -9.988513e-06 2.099338e-06
-5.855454e-06 -8.072647e-06 2.123837e-06
-5.855454e-06 8.072647e-06 2.123837e-06
2.698233e-06 1.086753e-05 -6.010000e-22
5.943353e-07 6.886673e-06 -1.633029e-06
5.943353e-07 -6.886673e-06 -1.633029e-06
-8.368265e-06 -3.370481e-07 -2.425915e-06
-1.203773e-06 -1.005217e-05 -2.028754e-06
-1.203773e-06 1.005217e-05 -2.028754e-06
-6.173112e-06 -1.539742e-06 5.912248e-07
-8.768674e-06 -5.097319e-06 2.015965e-06
-8.859844e-06 4.877119e-06 2.035841e-06
1.059555e-05 2.006985e-06 1.363241e-06
1.059555e-05 -2.006985e-06 1.363241e-06
1.727200e-06 1.106348e-05 -6.010000e-22
-4.511246e-06 5.018657e-06 1.427903e-06
-4.511246e-06 -5.018657e-06 1.427903e-06
3.202148e-06 -5.435519e-06 -3.020735e-07
3.202148e-06 5.435519e-06 -3.020735e-07
-3.686205e-06 -5.975435e-06 -1.747311e-06
-3.686205e-06 5.975435e-06 -1.747311e-06
1.487066e-06 1.016425e-05 1.919363e-06
1.487066e-06 -1.016425e-05 1.919363e-06
1.061053e-05 2.093130e-06 -1.315564e-06
1.061053e-05 -2.093130e-06 -1.315564e-06
7.426505e-07 1.117283e-05 -6.010000e-22
-9.229022e-06 -4.596271e-06 -1.888668e-06
7.442395e-06 -7.131559e-06 -1.890764e-06
7.442395e-06 7.131559e-06 -1.890764e-06
-7.288204e-06 -7.309562e-06 -1.878672e-06
-7.281439e-06 7.314024e-06 -1.880027e-06
1.200692e-06 6.942421e-06 1.771154e-06
1.200692e-06 -6.942421e-06 1.771154e-06
-7.204785e-06 -3.169105e-06 -2.293314e-06
-9.297073e-06 4.852332e-06 -1.726664e-06
-5.190277e-06 5.348252e-06 -2.086686e-06
-2.477118e-07 1.119475e-05 -6.010000e-22
-5.205008e-06 -5.336914e-06 -2.088012e-06
8.877052e-06 -5.399797e-06 1.819206e-06
8.877052e-06 5.399797e-06 1.819206e-06
-1.003967e-05 -2.729838e-06 1.806612e-06
4.068677e-06 9.519454e-06 1.852788e-06
4.068677e-06 -9.519454e-06 1.852788e-06
-4.961242e-06 9.160773e-06 -1.793859e-06
-4.961242e-06 -9.160773e-06 -1.793859e-06
-6.811696e-06 1.835732e-06 1.779965e-06
8.613181e-06 1.637531e-06 2.453654e-06
1.115367e-05 9.896351e-07 -6.010000e-22
-1.236135e-06 1.112905e-05 -6.010000e-22
8.613181e-06 -1.637531e-06 2.453654e-06
5.635792e-06 -4.643291e-06 1.985709e-06
5.635792e-06 4.643291e-06 1.985709e-06
7.009592e-06 -7.792173e-06 1.732822e-06
7.009592e-06 7.792173e-06 1.732822e-06
-4.653043e-06 9.353658e-06 1.766211e-06
-4.653043e-06 -9.353658e-06 1.766211e-06
6.106835e-06 1.706446e-06 4.968193e-07
6.106835e-06 -1.706446e-06 4.968193e-07
5.295411e-06 -8.980461e-06 -1.786828e-06
-2.214885e-06 1.097625e-05 -6.010000e-22
5.295411e-06 8.980461e-06 -1.786828e-06
-1.035384e-05 1.781199e-06 -1.707505e-06
-7.004307e-06 3.394327e-06 -2.258058e-06
2.317457e-07 6.285685e-06 -5.549711e-09
2.317457e-07 -6.285685e-06 -5.549711e-09
7.852951e-06 -3.921195e-06 2.453536e-06
7.852951e-06 3.921195e-06 2.453536e-06
1.862142e-06 -1.035684e-05 -1.689807e-06
1.862142e-06 1.035684e-05 -1.689807e-06
-8.642685e-06 -6.196144e-06 -1.564195e-06
-3.176299e-06 1.073754e-05 -6.010000e-22
[...]
POINT_DATA 1108
VECTORS 10.000GHz_fone_imag double
1.773376e-03 -2.606787e-05 3.230289e-02
-1.869146e-04 -3.067288e-04 3.216208e-02
-2.737482e-02 -8.171387e-02 -8.462691e-02
-5.107171e-02 -3.528081e-02 -1.264167e-01
-7.560042e-02 -3.384840e-03 -9.734512e-02
7.511311e-02 1.397085e-02 -1.178054e-01
3.975024e-02 -8.132146e-02 -7.747187e-02
3.790052e-02 7.849529e-02 -7.208245e-02
6.460814e-03 6.576889e-03 3.210138e-02
6.390289e-03 -6.671008e-03 3.169937e-02
-2.267497e-02 1.370678e-02 -1.582942e-01
2.888549e-02 -4.312730e-03 2.843303e-02
-5.005080e-02 2.777871e-02 1.050373e-02
-2.725164e-02 8.193627e-02 -8.478291e-02
1.769357e-02 1.575800e-02 -1.591587e-01
1.660842e-02 -6.100066e-03 -1.709784e-01
-8.659695e-02 -1.836430e-02 -3.308377e-02
-8.564842e-02 1.774816e-02 -3.047027e-02
5.155863e-02 -3.592334e-02 -1.402744e-01
4.162573e-02 3.297556e-02 -1.282272e-01
4.952279e-02 -2.750785e-02 -1.384216e-01
6.019238e-02 2.788691e-02 -1.416649e-01
-5.455135e-03 -6.175707e-03 3.132278e-02
-5.780873e-03 5.805066e-03 3.117421e-02
-3.503594e-02 1.313436e-02 2.340112e-02
-5.872407e-02 -3.608848e-02 -1.212105e-01
-7.305440e-02 5.838314e-02 -7.635296e-02
3.497505e-02 -7.778498e-03 2.529288e-02
3.732471e-02 7.042231e-03 2.662398e-02
1.809654e-02 6.599913e-02 -1.287398e-01
1.820481e-02 -6.600554e-02 -1.285951e-01
-8.585097e-02 1.617804e-02 -8.718685e-02
5.658102e-02 -2.181016e-02 -1.414774e-01
6.036321e-02 2.631344e-02 -1.361446e-01
-2.383537e-03 -8.019866e-03 3.021421e-02
-3.947373e-02 -1.332311e-02 2.571746e-02
-2.602582e-03 8.533879e-03 3.022105e-02
-3.603555e-02 -6.504462e-02 -1.002151e-01
-3.617823e-02 6.395829e-02 -1.035958e-01
1.060776e-02 -3.800316e-02 -1.618440e-01
1.037868e-02 3.770604e-02 -1.618321e-01
1.891903e-03 -8.230710e-03 3.260957e-02
1.888291e-03 8.260659e-03 3.263355e-02
7.149810e-02 5.211004e-02 -9.790194e-02
6.221032e-02 -4.874148e-02 -9.206111e-02
-2.996639e-02 2.534052e-03 2.663255e-02
8.873351e-02 -3.952026e-03 -6.910924e-02
-3.292779e-02 -6.175912e-03 2.625316e-02
6.254253e-02 5.441884e-02 -9.176974e-02
6.295053e-02 -5.943209e-02 -9.453538e-02
-7.010754e-02 -3.149375e-02 -1.050005e-02
-5.244523e-02 2.096088e-02 1.574808e-02
-4.703199e-02 -1.922939e-02 1.337042e-02
-1.072744e-02 1.469665e-02 -1.666809e-01
-1.221440e-02 -1.564803e-02 -1.658887e-01
4.482655e-02 -2.862821e-02 1.626074e-02
4.461999e-02 2.907481e-02 1.709708e-02
-2.633224e-02 -1.968270e-02 -1.667276e-01
6.012403e-02 5.379062e-02 -2.625062e-02
6.026745e-02 -5.021458e-02 -3.233197e-02
1.978642e-02 -1.277662e-02 2.826895e-02
3.092114e-02 7.400727e-02 -1.066595e-02
3.052290e-02 -7.304495e-02 -1.407894e-02
-1.329697e-02 2.295344e-02 -1.621711e-01
-1.598695e-02 -2.141319e-02 -1.630833e-01
-4.301288e-02 -5.113596e-02 6.249736e-03
-4.271192e-02 5.118059e-02 5.978002e-03
3.880508e-02 1.414022e-02 2.387321e-02
-3.105275e-02 1.748240e-02 -1.499361e-01
3.803076e-02 -1.303357e-02 2.432447e-02
-2.976686e-02 -3.469261e-03 -1.599676e-01
5.240877e-03 -1.010513e-02 3.235412e-02
5.269679e-03 1.012155e-02 3.239436e-02
1.131953e-02 -5.376766e-05 3.059788e-02
-6.577305e-02 5.192185e-02 -2.983812e-02
2.793863e-02 8.207380e-03 3.006506e-02
2.398475e-02 -7.579045e-03 2.794781e-02
3.156024e-02 6.605792e-03 2.855124e-02
-9.286749e-03 3.323207e-02 -1.544815e-01
5.735442e-02 -1.090119e-02 9.483368e-03
-9.381180e-03 -3.328513e-02 -1.546668e-01
-2.431708e-02 -6.667216e-02 2.643347e-04
-2.419199e-02 6.652390e-02 2.049522e-04
6.632910e-03 7.406043e-03 3.118762e-02
-8.808410e-02 3.357992e-02 -5.887326e-02
3.558820e-02 3.454753e-03 2.700433e-02
-1.707355e-03 -2.475769e-02 3.042742e-02
-1.702057e-03 2.472790e-02 3.038259e-02
-5.963295e-02 3.057122e-02 -1.312105e-01
6.023503e-02 2.175515e-02 6.725882e-04
5.678297e-02 9.135942e-03 6.911470e-03
6.149416e-02 -2.052872e-02 1.733698e-05
4.749249e-03 5.626725e-02 1.293802e-02
4.779368e-03 -5.658397e-02 1.309966e-02
-1.352251e-02 -5.005701e-02 1.643627e-02
-1.348614e-02 5.031391e-02 1.649098e-02
-4.301631e-02 1.988454e-02 1.556405e-02
-8.502397e-03 -2.863222e-03 3.133959e-02
-1.012106e-02 4.703126e-03 3.316092e-02
1.561103e-02 -2.524181e-02 2.943634e-02
1.229033e-02 2.328285e-02 2.979218e-02
8.171917e-03 -8.016028e-02 -2.583771e-02
5.791794e-02 1.815622e-03 9.105229e-03
2.945147e-02 -4.127635e-02 1.647370e-02
2.917986e-02 4.170356e-02 1.613820e-02
-3.893560e-02 6.966367e-03 -1.578599e-01
-2.794417e-02 -7.417089e-03 -1.505606e-01
2.627476e-02 2.872939e-02 -1.478957e-01
2.502369e-02 -2.981634e-02 -1.485796e-01
-3.666506e-02 -2.720834e-02 2.239951e-02
4.343276e-03 5.216899e-03 3.066530e-02
5.586536e-03 -6.404627e-03 3.293556e-02
-8.172914e-04 -2.489046e-04 3.006197e-02
3.837269e-02 -7.224011e-02 -3.882620e-02
-1.987092e-02 1.950765e-02 2.995192e-02
-2.078090e-02 -1.999276e-02 2.962079e-02
-3.687797e-02 5.874831e-03 -1.580504e-01
-3.754928e-02 2.716841e-02 2.122852e-02
-6.052788e-03 -5.547972e-03 3.167345e-02
-6.055855e-03 5.355938e-03 3.173138e-02
-5.566071e-03 -5.316392e-03 3.110768e-02
-6.259371e-03 3.866333e-03 3.276887e-02
6.997422e-02 3.191205e-02 -1.296750e-01
8.323391e-03 7.996766e-02 -2.579063e-02
3.931575e-02 6.950477e-02 -4.512567e-02
3.684180e-02 -4.981437e-02 5.612202e-03
4.067592e-02 5.061656e-02 3.770394e-03
-2.022975e-02 -6.969645e-02 -1.013243e-03
-2.023354e-02 6.954127e-02 -9.771487e-04
5.461410e-02 4.714199e-02 -7.240726e-04
6.550236e-02 2.179333e-02 -6.757864e-03
5.619243e-02 -4.638631e-02 -1.837340e-03
1.397097e-03 -9.779367e-04 3.154640e-02
6.159352e-02 -2.280994e-02 2.096428e-03
6.110260e-03 7.079383e-02 2.169822e-03
6.104840e-03 -7.075474e-02 2.178562e-03
-4.490972e-02 -6.907505e-02 -9.342829e-02
-5.613285e-02 7.506178e-02 -8.021751e-02
-7.854783e-02 -1.017710e-02 -1.064709e-01
-3.944306e-02 -5.511450e-02 4.298509e-03
-5.169591e-02 -3.409980e-02 6.345977e-03
-3.985336e-02 5.510005e-02 4.671634e-03
-4.880565e-02 3.326783e-02 3.001454e-03
-4.378248e-04 1.914197e-03 3.189537e-02
-5.945873e-02 1.874282e-02 3.939694e-03
-3.469648e-02 5.002936e-02 1.089456e-02
-3.420981e-02 -5.018231e-02 1.175240e-02
-5.451849e-02 -1.435070e-02 1.493845e-02
-7.875136e-02 -3.302237e-02 -6.314978e-02
-8.524404e-02 3.410591e-02 -7.363705e-02
-1.853671e-02 5.147702e-02 9.878933e-03
-1.858522e-02 -5.136672e-02 1.033958e-02
4.808275e-02 -2.331632e-02 1.623498e-02
4.394260e-02 2.590924e-02 1.691757e-02
-3.486721e-04 -8.387768e-04 3.358394e-02
9.930574e-03 -4.647735e-02 -1.557011e-01
9.949396e-03 4.620308e-02 -1.567953e-01
8.028791e-02 -3.032778e-02 -9.471415e-02
5.856636e-02 -4.475121e-02 -1.097890e-01
7.420567e-02 3.016635e-02 -9.288740e-02
4.763099e-02 4.491569e-02 -1.095075e-01
1.267337e-02 4.623647e-02 1.987206e-02
1.395650e-02 -4.758823e-02 1.852033e-02
4.844604e-02 1.250282e-03 1.906759e-02
1.484664e-03 3.450610e-03 -1.528941e-01
-9.809959e-04 -1.992182e-03 3.136607e-02
7.355535e-02 4.065643e-02 -1.077393e-01
6.558494e-02 -4.459504e-02 -1.104712e-01
1.725426e-02 4.433492e-02 2.138866e-02
1.704549e-02 -4.376132e-02 2.111708e-02
-8.134353e-02 7.653678e-03 -7.324050e-02
3.831459e-02 -6.790164e-03 2.063223e-02
2.320272e-03 -4.355930e-02 2.260329e-02
2.193125e-03 4.346883e-02 2.259076e-02
2.509415e-02 3.327490e-02 2.053633e-02
2.767825e-02 -3.627502e-02 2.183524e-02
5.338296e-04 -1.348870e-04 2.955815e-02
9.559919e-03 8.554445e-02 -1.071241e-01
9.536750e-03 -8.552589e-02 -1.070536e-01
-7.962738e-02 -5.142615e-03 -1.304673e-02
-2.491901e-03 -3.961604e-02 2.334021e-02
-2.512294e-03 3.962836e-02 2.336578e-02
3.555924e-02 8.492369e-03 -1.624859e-01
3.184564e-02 1.968708e-02 2.633687e-02
3.533177e-02 -1.975124e-02 2.578443e-02
-2.056667e-02 -5.229887e-03 3.019382e-02
-2.273709e-02 3.862760e-03 3.068628e-02
-1.064025e-05 -2.122075e-03 2.973590e-02
5.509403e-02 -6.174618e-02 -1.233607e-01
4.808209e-02 5.028260e-02 -1.120782e-01
1.308986e-02 -2.498531e-02 -1.517220e-01
1.284473e-02 2.586398e-02 -1.518805e-01
-3.961550e-02 -7.114914e-02 -9.641740e-02
-4.076984e-02 7.461536e-02 -9.435163e-02
-4.929601e-03 -3.523558e-02 2.175218e-02
-4.916319e-03 3.523286e-02 2.171919e-02
1.962236e-02 5.049679e-03 2.856180e-02
2.214585e-02 -3.395877e-03 2.989005e-02
-1.513915e-04 1.073039e-03 2.946495e-02
-3.223665e-02 -1.480275e-02 2.471002e-02
2.513955e-02 -2.438726e-02 2.786414e-02
2.525376e-02 2.489308e-02 2.789121e-02
-2.282763e-02 -2.206064e-02 2.520162e-02
-2.228801e-02 2.292288e-02 2.420462e-02
-1.652868e-02 -9.098873e-02 -9.396370e-02
-1.656721e-02 9.104372e-02 -9.399708e-02
-7.854612e-02 -3.061633e-02 -3.855207e-02
-2.675019e-02 1.386515e-02 3.003433e-02
-6.049760e-02 6.714444e-02 -5.774773e-02
-1.649204e-04 -1.239603e-04 3.313137e-02
-5.991467e-02 -6.335874e-02 -5.638426e-02
-2.593819e-02 1.445960e-02 2.684185e-02
-2.929203e-02 -1.682691e-02 2.918128e-02
3.329778e-02 9.220992e-03 2.801312e-02
-1.500605e-02 -3.076297e-02 2.667668e-02
-1.507094e-02 3.068059e-02 2.671179e-02
-1.661138e-02 2.901781e-02 2.859543e-02
-1.674626e-02 -2.919947e-02 2.838428e-02
8.426258e-02 -2.334610e-02 -8.839483e-02
-6.550736e-02 -1.148685e-02 -3.800761e-03
-9.656590e-05 6.968568e-04 3.332956e-02
7.454627e-04 2.548205e-04 3.263252e-02
-6.418217e-02 1.294674e-02 -2.643129e-03
-6.864203e-02 5.622476e-02 -6.581217e-02
-7.243833e-02 -5.659426e-02 -7.739610e-02
-2.243787e-02 2.273565e-02 2.795575e-02
-2.168449e-02 -2.309917e-02 2.580006e-02
1.541740e-02 -2.829626e-02 2.826074e-02
1.497329e-02 2.780947e-02 2.837629e-02
-3.288208e-02 -7.327071e-03 -1.615387e-01
-2.991291e-02 1.140986e-02 -1.657731e-01
1.721992e-02 -2.859966e-02 2.865421e-02
-1.042896e-03 -1.355969e-03 3.209238e-02
1.724038e-02 2.850037e-02 2.859920e-02
-3.077455e-02 6.395669e-03 2.682053e-02
-8.369587e-02 3.601467e-02 -4.742468e-02
-2.045717e-03 6.649381e-03 -1.633504e-01
-2.065569e-03 -6.725061e-03 -1.636492e-01
-6.154513e-02 3.079840e-02 -8.147464e-03
-6.109257e-02 -2.941803e-02 -4.121469e-03
5.448998e-03 -3.034929e-02 2.541103e-02
5.457752e-03 3.034726e-02 2.543178e-02
-1.810006e-02 -1.398871e-02 2.846980e-02
6.516088e-04 -4.921624e-05 3.337262e-02
2.190448e-02 2.025990e-02 2.909019e-02
2.056372e-02 -1.809874e-02 2.615910e-02
2.610935e-02 9.119336e-02 -6.997287e-02
2.616786e-02 -9.094151e-02 -7.124579e-02
2.536162e-02 -8.317377e-03 3.047825e-02
-2.078827e-02 1.610925e-02 2.920608e-02
-1.178611e-02 -7.962581e-02 -1.861779e-02
-1.177251e-02 7.968478e-02 -1.866541e-02
1.466956e-02 1.587136e-02 -1.595887e-01
1.477419e-02 -1.591357e-02 -1.569796e-01
9.301604e-04 -1.055785e-03 3.195674e-02
7.522990e-02 -1.383709e-02 -1.636279e-02
2.459720e-02 -8.881871e-03 2.612396e-02
2.525849e-02 8.707938e-03 2.728119e-02
-6.941522e-02 8.878475e-03 -1.533175e-03
6.639574e-02 3.580388e-02 -1.448085e-02
6.413666e-02 -3.557613e-02 -1.978262e-02
8.511512e-02 2.168767e-02 -6.847506e-02
1.913923e-02 7.473133e-02 -1.579991e-02
1.898238e-02 -7.524730e-02 -1.571721e-02
6.305827e-02 5.839045e-02 -2.374435e-02
7.243805e-05 -1.543504e-04 3.409952e-02
5.755736e-02 -5.996162e-02 -2.387023e-02
-2.565136e-02 -3.531887e-03 2.735100e-02
6.657025e-03 -6.922096e-02 -1.107104e-01
6.788060e-03 6.946284e-02 -1.109316e-01
-1.282075e-02 1.909984e-02 2.736206e-02
-1.306739e-02 -1.937770e-02 2.692897e-02
5.976756e-04 -2.641537e-02 3.048152e-02
5.981887e-04 2.644798e-02 3.046839e-02
-3.023719e-02 -8.460953e-02 -6.464627e-02
-3.070811e-02 8.473787e-02 -6.463583e-02
3.661047e-04 2.422339e-04 3.376833e-02
7.478897e-02 5.248511e-02 -5.882873e-02
8.008554e-02 -4.812302e-02 -6.198141e-02
-9.607182e-03 -7.432537e-02 -5.838026e-03
-9.569789e-03 7.425457e-02 -5.720779e-03
-6.482776e-03 2.217358e-02 2.674542e-02
-7.009960e-03 -2.349260e-02 2.661416e-02
4.720794e-02 7.447142e-02 -7.263937e-02
4.793904e-02 -7.152599e-02 -7.686924e-02
7.869200e-02 -3.175096e-02 -2.118689e-02
7.844330e-02 3.038861e-02 -2.014851e-02
3.993826e-04 -5.910437e-04 3.034147e-02
-1.919593e-02 -1.823282e-02 3.028164e-02
-1.903631e-02 1.823154e-02 3.011567e-02
-5.658183e-02 6.353576e-02 -2.047496e-02
-5.021402e-02 -6.166273e-02 -2.443756e-02
-2.262592e-02 2.209665e-02 -1.519289e-01
-3.018594e-02 -3.165248e-02 -1.463001e-01
2.319168e-02 -1.516600e-02 2.897096e-02
2.281037e-02 1.613987e-02 2.903822e-02
-2.476924e-02 7.636889e-03 2.981953e-02
4.689546e-02 5.535624e-02 -1.498241e-02
-4.555782e-04 4.365024e-04 2.952023e-02
4.829190e-02 -6.114333e-02 -1.628763e-02
-1.481182e-02 2.030209e-02 3.044580e-02
-1.426828e-02 -2.142239e-02 2.752879e-02
2.367120e-02 -3.942380e-05 3.011251e-02
-3.984510e-02 -7.346034e-02 -2.461761e-02
-3.764857e-02 7.565845e-02 -2.480952e-02
7.874875e-02 -1.529312e-02 -5.967953e-02
8.869893e-02 2.352249e-02 -5.947459e-02
-1.024439e-02 4.536535e-02 -1.456199e-01
-1.143556e-02 -4.596497e-02 -1.449612e-01
3.869392e-04 2.749542e-04 3.081561e-02
6.668407e-03 2.514764e-02 2.822220e-02
6.188361e-03 -2.522416e-02 2.790793e-02
2.361427e-02 1.033728e-02 3.062698e-02
3.386214e-02 6.615642e-02 -1.790643e-03
3.400407e-02 -6.483301e-02 -5.584493e-04
2.286084e-02 -1.290307e-02 -1.519401e-01
-7.789790e-02 -1.767584e-02 -2.764961e-02
-2.238564e-02 -5.302967e-03 2.800081e-02
1.548825e-02 1.988241e-02 3.071950e-02
1.558987e-02 -1.956400e-02 3.038454e-02
-4.049852e-04 5.875075e-04 3.380770e-02
-6.098603e-03 -2.281173e-02 3.106146e-02
-6.116923e-03 2.281930e-02 3.101478e-02
-5.866941e-02 3.147126e-02 3.513070e-03
-6.585628e-02 -4.566000e-02 -8.622109e-02
-5.294073e-02 -5.315678e-02 -5.558304e-03
-5.256727e-02 4.986934e-02 -3.199397e-03
9.310508e-03 3.791068e-03 -1.606980e-01
1.568541e-02 6.399527e-03 -1.540761e-01
7.227838e-02 1.335909e-02 -3.527368e-03
1.875557e-02 -1.055309e-02 3.031291e-02
-6.103135e-04 -3.386342e-04 3.337374e-02
-2.703302e-04 -1.811772e-03 3.315595e-02
1.952127e-02 8.750678e-03 2.811074e-02
2.478173e-02 7.600696e-02 -1.178808e-01
2.541044e-02 -7.598328e-02 -1.176380e-01
-1.133191e-03 -2.180327e-02 3.055744e-02
-1.140410e-03 2.177401e-02 3.050041e-02
2.341821e-02 5.187918e-02 1.170382e-02
2.484454e-02 -5.795707e-02 9.230204e-03
5.857324e-03 1.932549e-02 2.853064e-02
5.724257e-03 -2.067235e-02 3.087584e-02
-7.944613e-02 -1.354696e-02 -6.953218e-02
3.286300e-04 1.944740e-03 3.258170e-02
-9.021920e-02 1.599935e-02 -7.047721e-02
3.305983e-02 -8.365876e-03 -1.478679e-01
3.973967e-02 5.997321e-03 -1.435112e-01
6.919105e-02 2.895125e-03 -3.837855e-03
-7.292727e-02 3.882584e-02 -1.024151e-01
4.840946e-02 -2.907189e-02 -1.359409e-01
4.047907e-02 2.713352e-02 -1.425452e-01
1.515540e-02 1.103532e-02 2.923005e-02
1.716892e-02 -9.937228e-03 2.865250e-02
3.508264e-02 7.360734e-02 -1.127467e-01
-1.339360e-03 -8.224481e-04 3.184613e-02
3.448084e-02 -7.190717e-02 -1.134334e-01
7.366050e-02 5.297965e-02 -6.163172e-02
6.715963e-02 -5.762956e-02 -6.330656e-02
2.089392e-02 2.586150e-03 3.231803e-02
-3.229426e-02 4.913537e-02 -1.427123e-01
-3.252164e-02 -4.845454e-02 -1.424087e-01
9.886747e-03 -6.380987e-02 -8.713801e-04
1.033964e-02 6.333794e-02 -4.517504e-04
8.002772e-03 -1.761437e-02 2.747148e-02
8.018854e-03 1.759539e-02 2.748943e-02
-4.390714e-04 1.218887e-03 3.204171e-02
-3.271898e-02 6.513624e-02 -1.223261e-02
-3.292686e-02 -6.575425e-02 -1.211203e-02
-8.237887e-03 -2.038219e-02 3.173054e-02
-8.305946e-03 2.024268e-02 3.137692e-02
2.126990e-02 -4.960290e-03 3.071846e-02
-4.691061e-02 -8.194053e-03 1.814733e-02
-4.813407e-02 7.444300e-03 2.048741e-02
5.016994e-03 -1.896306e-02 3.174138e-02
5.026127e-03 1.895964e-02 3.178044e-02
9.474975e-03 4.899570e-02 1.578127e-02
-1.515627e-03 6.581934e-05 3.070280e-02
9.563950e-03 -4.891724e-02 1.571002e-02
-7.696462e-02 4.352414e-02 -9.693399e-02
-7.573119e-02 -3.902029e-02 -9.773080e-02
-5.484817e-02 -4.892352e-03 8.441493e-03
-9.008580e-03 6.320189e-02 -1.197765e-01
-9.207425e-03 -6.331867e-02 -1.196988e-01
-2.007840e-02 1.011105e-02 2.801184e-02
-1.974725e-02 -1.075940e-02 2.942848e-02
1.377105e-02 1.659558e-02 3.184612e-02
1.484894e-02 -1.687090e-02 3.053332e-02
1.029558e-03 -8.438568e-05 3.006170e-02
9.465742e-03 -1.501620e-02 2.879968e-02
1.036459e-02 1.558994e-02 3.119870e-02
-6.588379e-02 -3.405148e-03 -1.360656e-01
4.456926e-02 4.334313e-03 2.298717e-02
4.235488e-02 -3.123629e-03 2.033262e-02
-5.627416e-02 1.502991e-02 -1.498764e-01
-5.344223e-02 -2.795244e-02 6.621560e-03
4.838760e-02 1.959039e-02 1.071292e-02
4.956136e-02 -1.963610e-02 1.156867e-02
-8.739748e-02 2.493957e-02 -3.479467e-02
-6.583110e-04 -8.175955e-04 3.233760e-02
5.222801e-02 4.572954e-03 -1.368777e-01
1.831251e-02 -9.100128e-03 3.070110e-02
-6.427042e-02 -2.477935e-02 -6.995399e-06
-6.465191e-02 1.991977e-02 -3.971969e-03
-1.346362e-02 -5.386888e-03 2.964533e-02
-1.784458e-02 5.403543e-03 3.274232e-02
-2.326885e-03 1.600984e-02 3.045693e-02
-2.313631e-03 -1.614141e-02 3.053235e-02
3.686001e-02 3.905482e-02 1.432956e-02
3.832176e-02 -4.125883e-02 1.517967e-02
-5.933056e-04 9.070427e-04 3.361149e-02
-1.532965e-02 -7.149703e-02 -4.432129e-03
-1.541078e-02 7.155272e-02 -4.472818e-03
3.672775e-02 2.933492e-02 1.778371e-02
3.842302e-02 -3.267309e-02 1.936473e-02
2.913045e-03 8.019323e-02 -3.648323e-02
2.848190e-03 -8.017984e-02 -3.645798e-02
2.444666e-03 -1.766975e-02 2.908249e-02
2.407489e-03 1.771616e-02 2.893908e-02
-2.576281e-02 -1.049964e-02 -1.506198e-01
4.919856e-02 -1.076581e-02 1.909786e-02
-9.205562e-04 -4.873047e-04 3.297792e-02
-1.036042e-02 -5.474663e-02 8.799638e-03
-1.032551e-02 5.479771e-02 8.857830e-03
-1.895201e-02 2.129957e-03 3.003402e-02
8.037414e-02 3.446818e-02 -6.670448e-02
2.047280e-02 -7.176898e-02 -1.074461e-02
2.358864e-02 6.917604e-02 -1.398130e-02
3.336456e-02 8.776832e-03 -1.608344e-01
1.742310e-02 -1.746624e-02 -1.597193e-01
2.402740e-02 2.019781e-02 -1.627570e-01
-1.387692e-02 -7.414221e-03 3.200882e-02
2.627525e-03 9.208204e-04 3.099466e-02
-1.380443e-02 -1.025868e-02 2.908472e-02
-1.240782e-02 1.006327e-02 2.981549e-02
-1.521646e-02 9.063413e-03 3.160183e-02
4.677147e-02 -2.891613e-03 1.980263e-02
-7.958334e-02 -2.669606e-02 -1.031536e-01
3.215656e-02 -5.144628e-02 3.475560e-03
3.202805e-02 5.210657e-02 1.437219e-03
-2.277704e-03 4.820624e-02 -1.428108e-01
-2.297673e-03 -4.813825e-02 -1.426612e-01
-5.257382e-02 6.543933e-02 -4.544932e-02
-1.218711e-04 2.053934e-04 3.354280e-02
5.289133e-04 -1.488928e-04 2.984750e-02
-5.246914e-02 -6.610221e-02 -4.458034e-02
1.744360e-02 -1.423388e-03 3.230196e-02
4.309071e-02 3.605579e-02 8.824100e-03
4.647986e-02 -3.661511e-02 1.285158e-02
-3.637955e-02 -4.213572e-02 1.611137e-02
-3.360751e-02 4.002409e-02 1.459730e-02
3.950988e-02 1.740885e-02 2.108603e-02
1.585159e-02 9.535273e-03 3.083486e-02
3.882570e-02 6.378874e-02 -1.296306e-01
3.879687e-02 -6.410582e-02 -1.296431e-01
4.835275e-04 2.816389e-04 2.982292e-02
-4.341937e-02 7.306148e-02 -3.409958e-02
-4.343860e-02 -7.134210e-02 -3.172778e-02
8.087826e-02 -3.618712e-02 -6.128207e-02
-2.213586e-02 -4.761257e-02 1.307351e-02
-2.210738e-02 4.784745e-02 1.224770e-02
-4.823878e-02 -2.602550e-02 -1.453004e-01
-1.214635e-02 -4.358403e-02 1.552424e-02
-1.214832e-02 4.355384e-02 1.545317e-02
-6.834719e-02 2.182066e-02 -9.854069e-02
-7.233621e-02 5.581127e-02 -3.579291e-02
-1.330402e-03 -9.577492e-04 3.032624e-02
-1.044319e-02 1.393263e-02 3.088218e-02
-1.056339e-02 -1.426364e-02 3.087650e-02
4.607278e-02 -2.214328e-02 1.485580e-02
-3.284780e-02 5.067540e-02 -1.300395e-01
-3.104677e-02 -4.904607e-02 -1.296185e-01
7.896368e-03 -6.224960e-03 -1.630909e-01
-1.610978e-03 -4.626715e-02 2.158723e-02
-1.590404e-03 4.618635e-02 2.156253e-02
-5.479988e-04 -4.366986e-02 1.966367e-02
-5.388842e-04 4.368732e-02 1.966987e-02
3.502804e-04 -2.836613e-04 3.341639e-02
-6.345967e-02 4.305129e-02 -1.924283e-02
-6.799407e-02 -4.433134e-02 -1.859551e-02
-1.467303e-02 -2.092297e-03 2.969757e-02
4.380994e-02 -1.246983e-02 2.282586e-02
4.464975e-02 1.296429e-02 2.148199e-02
2.145658e-02 2.546476e-03 2.821050e-02
2.309354e-02 -2.204946e-03 3.089172e-02
1.321557e-02 -1.129716e-02 2.969210e-02
1.299576e-02 1.181960e-02 3.010495e-02
-7.044361e-03 1.438877e-02 2.884673e-02
2.007162e-04 1.018379e-03 3.227285e-02
-7.011910e-03 -1.454591e-02 2.896423e-02
-9.052725e-02 5.809896e-03 -7.193467e-02
6.832466e-02 -9.198300e-03 -1.416933e-01
-7.064069e-02 -1.527618e-02 -1.295079e-01
-7.145393e-02 1.060583e-02 -1.171253e-01