# vtk DataFile Version 2.0
Electric current density generated by TTH
ASCII
DATASET UNSTRUCTURED_GRID
POINTS 3748 double
3.194774e-05 -7.824939e-21 -2.641299e-22
3.137040e-05 6.046149e-06 -2.641299e-22
-1.597387e-05 2.766755e-05 -2.641299e-22
-1.246943e-05 -2.901307e-05 8.118220e-07
-2.039443e-05 -2.411042e-05 8.118219e-07
-3.088913e-05 6.150655e-06 8.779612e-07
1.478141e-05 -2.629811e-05 8.187828e-07
7.836106e-06 2.916207e-05 -8.427646e-07
7.918699e-07 3.144313e-05 9.067321e-07
3.136549e-05 -3.581034e-06 -8.204016e-07
3.136549e-05 3.581034e-06 8.204016e-07
-2.701835e-05 1.616511e-05 -8.854146e-07
-2.961982e-05 1.077179e-05 8.617237e-07
-1.655557e-05 2.732345e-05 -2.641299e-22
-1.535767e-06 2.975144e-05 1.415775e-08
-2.987590e-05 -4.169914e-06 -8.170255e-07
-2.940823e-05 5.479388e-06 5.008965e-07
2.089539e-05 2.362443e-05 8.449969e-07
2.088200e-05 -2.361011e-05 -8.601721e-07
2.421837e-05 -2.015139e-05 -8.706358e-07
2.421837e-05 2.015139e-05 8.706358e-07
-3.038765e-05 6.641922e-07 9.684206e-07
1.629564e-05 2.565359e-05 -9.668359e-07
-3.002873e-05 -1.881838e-06 -7.428739e-07
-1.712987e-05 2.696712e-05 -2.641299e-22
-3.131075e-05 3.662038e-06 8.568167e-07
-7.101115e-06 2.893622e-05 9.106174e-08
2.844852e-05 -1.364426e-05 8.353870e-07
2.844852e-05 1.364426e-05 -8.353870e-07
1.250883e-05 -2.889904e-05 8.818274e-07
1.679527e-05 -2.476548e-05 -5.178049e-07
-2.774880e-05 -1.489975e-05 8.776259e-07
-2.965962e-05 -1.076374e-05 8.345217e-07
-2.211210e-05 -2.250792e-05 8.345217e-07
-1.859690e-05 -2.548934e-05 8.345217e-07
-1.769649e-05 2.659872e-05 -2.641299e-22
-1.034771e-05 -2.980732e-05 8.345217e-07
-1.470244e-05 -2.785385e-05 8.776259e-07
-5.932696e-06 -3.093221e-05 8.776258e-07
3.526298e-06 -3.135475e-05 8.344716e-07
8.060960e-06 -3.050514e-05 8.346359e-07
3.149039e-05 -8.984672e-07 -8.724374e-07
3.149039e-05 8.984672e-07 8.724374e-07
3.080039e-05 6.569833e-06 -8.795671e-07
3.080039e-05 -6.569833e-06 8.795671e-07
3.023597e-05 9.048417e-06 8.274917e-07
-1.825520e-05 2.621842e-05 -2.641299e-22
3.023597e-05 -9.048417e-06 -8.274917e-07
5.549231e-06 3.010710e-05 1.047782e-06
1.582937e-05 -2.732875e-05 -8.092613e-07
1.147756e-05 -2.755874e-05 3.613078e-07
-3.015192e-05 9.940729e-07 -8.194278e-07
-1.332847e-05 2.852334e-05 -8.862215e-07
-2.400104e-06 3.143178e-05 -8.574978e-07
-8.305234e-06 3.040954e-05 -8.574979e-07
2.349186e-05 -1.901240e-05 -8.621004e-07
2.349186e-05 1.901240e-05 8.621004e-07
-1.880574e-05 2.582639e-05 -2.641299e-22
3.095895e-05 6.065728e-06 8.384079e-07
3.095895e-05 -6.065728e-06 -8.384079e-07
2.285250e-05 -1.952699e-05 7.114622e-07
2.285250e-05 1.952699e-05 -7.114622e-07
-2.386587e-06 -3.009350e-05 8.358661e-07
-2.337629e-05 -1.911173e-05 8.411520e-07
-2.932218e-05 -7.126971e-06 8.258580e-07
-2.086446e-05 2.126518e-05 3.433990e-08
-3.037323e-05 -6.223574e-07 -9.607730e-07
-1.096987e-05 2.769826e-05 3.329005e-08
-1.934786e-05 2.542279e-05 -2.641299e-22
-2.106282e-05 2.340331e-05 -8.848052e-07
-2.652887e-05 1.463957e-05 9.159248e-07
-1.923344e-05 2.340044e-05 9.097798e-07
-1.358310e-05 2.707406e-05 9.097755e-07
1.719961e-05 2.470932e-05 -7.618268e-07
1.359485e-05 -2.842972e-05 -8.652432e-07
-1.448321e-05 2.646059e-05 8.165764e-07
-1.841012e-05 2.397644e-05 8.678096e-07
-2.600080e-05 1.541755e-05 8.670779e-07
-1.806191e-05 2.579408e-05 -8.824739e-07
-1.988132e-05 2.500782e-05 -2.641299e-22
-1.790382e-05 -2.392658e-05 4.372417e-07
-2.068647e-05 -2.155588e-05 4.201615e-07
-1.014093e-05 -2.811031e-05 4.372416e-07
-1.348757e-05 -2.666671e-05 4.372417e-07
2.904985e-05 6.666521e-06 -1.732879e-07
2.904985e-05 -6.666521e-06 1.732879e-07
7.313472e-06 -2.894910e-05 3.759821e-07
2.770053e-05 1.230859e-05 9.232333e-07
2.770053e-05 -1.230859e-05 -9.232333e-07
-3.020074e-05 2.790198e-06 -9.334540e-07
-2.040589e-05 2.458166e-05 -2.641299e-22
3.648354e-06 -2.963558e-05 3.778244e-07
-5.399163e-06 3.114111e-05 -7.878627e-07
5.919009e-07 3.160015e-05 -7.878627e-07
2.910533e-05 8.112678e-06 8.570515e-07
2.910533e-05 -8.112678e-06 -8.570515e-07
-5.170288e-06 -2.940875e-05 3.790777e-07
-2.817046e-05 -9.901096e-06 3.790773e-07
-2.608564e-05 -1.453086e-05 3.790773e-07
2.933618e-05 1.158596e-05 8.435462e-07
2.897778e-05 1.248050e-05 8.355152e-07
-2.092132e-05 2.414449e-05 -2.641299e-22
2.933618e-05 -1.158596e-05 -8.435462e-07
2.897778e-05 -1.248050e-05 -8.355152e-07
-1.119262e-05 2.952834e-05 -8.124768e-07
-2.244664e-05 2.221143e-05 -8.124580e-07
5.485257e-06 -2.931583e-05 2.672070e-07
-1.181277e-05 -2.738507e-05 2.657326e-07
-1.929120e-05 -2.274496e-05 2.657326e-07
4.288281e-06 -2.981145e-05 -7.738600e-07
-1.309089e-05 -2.712637e-05 -7.754565e-07
-2.043816e-05 -2.212449e-05 -7.754565e-07
3.123548e-05 6.708404e-06 -2.641299e-22
-2.142739e-05 2.369652e-05 -2.641299e-22
-1.849184e-05 -2.377527e-05 -7.754565e-07
-1.074750e-05 -2.813721e-05 -7.754565e-07
-1.379484e-05 2.835972e-05 8.469966e-07
-1.285636e-05 2.872719e-05 8.937410e-07
-1.891266e-05 2.523654e-05 8.469955e-07
-1.807793e-05 2.584345e-05 8.454435e-07
-2.032255e-05 2.411567e-05 8.469964e-07
-2.103921e-05 2.340703e-05 8.937390e-07
-2.842553e-05 1.373457e-05 -8.199739e-07
1.626478e-05 -2.566639e-05 9.639836e-07
-2.192387e-05 2.323794e-05 -2.641299e-22
-4.598834e-06 -2.975787e-05 -7.668373e-07
-2.599628e-05 -1.519454e-05 -7.668375e-07
-2.860817e-05 -9.394291e-06 -7.668375e-07
-1.594577e-05 2.516656e-05 6.650236e-08
6.780708e-06 -2.934370e-05 -7.725489e-07
-7.470934e-06 -3.071771e-05 -7.807996e-07
-1.611118e-05 -2.719954e-05 -7.809220e-07
-2.855226e-05 -1.357060e-05 -7.807994e-07
-2.094003e-05 -2.368350e-05 -7.807994e-07
-1.311567e-05 -2.876393e-05 -7.809220e-07
-2.241054e-05 2.276897e-05 -2.641299e-22
-1.500040e-05 2.608198e-05 -7.431515e-07
1.773139e-05 2.470207e-05 9.743199e-07
-3.079821e-05 -6.761233e-06 -8.510604e-07
5.174921e-06 -3.118942e-05 -7.782759e-07
-5.430755e-06 2.989664e-05 -9.639509e-07
2.787327e-07 3.036009e-05 -9.512549e-07
-2.975716e-05 3.677374e-06 6.150163e-07
2.609641e-05 -1.438526e-05 1.284422e-07
2.609641e-05 1.438526e-05 -1.284422e-07
-2.957203e-05 1.096901e-05 -8.438215e-07
-2.288717e-05 2.228980e-05 -2.641299e-22
2.364352e-05 -2.093301e-05 -8.123491e-07
2.364352e-05 2.093301e-05 8.123491e-07
6.890940e-06 2.898497e-05 -6.386825e-08
-2.207643e-05 2.066707e-05 -8.761653e-07
-9.819229e-06 2.858754e-05 -8.661246e-07
1.137053e-05 2.792737e-05 8.064324e-07
1.073465e-05 -2.820240e-05 -8.261869e-07
-2.693252e-05 -1.652645e-05 -7.942502e-07
1.826873e-06 -3.154607e-05 -7.941328e-07
-3.824729e-06 3.031563e-05 -1.031847e-06
-2.335357e-05 2.180066e-05 -2.641299e-22
-3.151242e-05 -2.673028e-06 -7.687892e-07
5.338041e-06 3.110967e-05 -8.245902e-07
1.900301e-06 3.154374e-05 7.922854e-07
-2.984516e-05 4.712806e-06 8.571556e-07
-2.859512e-05 8.445013e-06 -2.314861e-07
1.297415e-05 2.872606e-05 -8.599298e-07
3.068136e-05 -7.481435e-06 -8.108172e-07
3.068136e-05 7.481435e-06 8.108172e-07
3.148901e-05 -1.885966e-06 -8.401342e-07
3.148901e-05 1.885966e-06 8.401342e-07
-2.380951e-05 2.130176e-05 -2.641299e-22
-1.335881e-05 2.718792e-05 -9.111928e-07
8.872675e-06 3.024598e-05 -8.595884e-07
-1.844537e-06 -3.152975e-05 -8.078939e-07
-2.482140e-05 -1.953014e-05 -8.078808e-07
1.220371e-05 -2.915507e-05 -7.874334e-07
1.098636e-05 2.962190e-05 -7.989696e-07
1.331273e-05 -2.668325e-05 2.480331e-07
-1.500523e-05 2.787548e-05 -7.359951e-07
-2.360653e-05 1.925193e-05 -9.983103e-07
1.977580e-06 3.051704e-05 -1.039140e-06
-2.425480e-05 2.079333e-05 -2.641299e-22
2.238341e-05 -2.010680e-05 -7.434753e-07
2.238341e-05 2.010680e-05 7.434753e-07
-2.671319e-05 1.439595e-05 -9.425053e-07
9.712106e-06 -3.010736e-05 -7.593283e-07
2.760415e-06 3.007367e-05 -8.455947e-07
3.032608e-05 2.155125e-06 9.721324e-07
3.032608e-05 -2.155125e-06 -9.721324e-07
1.491108e-05 2.640073e-05 9.283365e-07
-4.515392e-06 2.974626e-05 -7.422268e-07
2.533012e-05 1.589535e-05 -4.815862e-07
-2.468924e-05 2.027559e-05 -2.641299e-22
2.533012e-05 -1.589535e-05 4.815862e-07
2.326740e-05 1.878228e-05 -4.771731e-07
2.326740e-05 -1.878228e-05 4.771731e-07
-2.983536e-05 -2.962853e-07 3.111857e-07
1.826429e-05 -2.354333e-05 1.158014e-07
-2.860481e-05 -1.345354e-05 7.832028e-07
-1.622005e-05 -2.713195e-05 7.832028e-07
-7.594921e-06 -3.068469e-05 7.832028e-07
1.397009e-05 2.641792e-05 4.388267e-07
-1.966366e-05 2.473168e-05 -7.966841e-07
-2.511262e-05 1.974878e-05 -2.641299e-22
2.975724e-05 5.551262e-06 -8.969090e-07
2.975724e-05 -5.551262e-06 8.969090e-07
-2.441565e-05 1.755281e-05 -7.242355e-07
-3.157883e-05 1.072987e-07 -8.119778e-07
1.639612e-05 2.706029e-05 -7.542983e-07
1.639612e-05 -2.706029e-05 7.542983e-07
1.533174e-05 2.569780e-05 5.186913e-07
1.736844e-05 -2.636418e-05 -8.188488e-07
5.088966e-06 2.939849e-05 3.073942e-07
-3.024007e-05 9.297580e-06 7.572786e-07
-2.552476e-05 1.921313e-05 -2.641299e-22
2.845961e-05 9.223960e-06 5.060512e-07
2.845961e-05 -9.223960e-06 -5.060512e-07
2.172553e-05 -2.285875e-05 -8.476229e-07
2.172553e-05 2.285875e-05 8.476229e-07
1.913510e-05 2.366026e-05 9.846528e-07
1.320592e-05 2.727285e-05 9.170202e-07
-2.350725e-05 2.117051e-05 -7.592825e-07
-9.721419e-06 3.007202e-05 -7.891484e-07
3.032621e-05 -8.726426e-06 8.308914e-07
3.032621e-05 8.726426e-06 -8.308914e-07
3.108658e-05 7.367656e-06 -2.641299e-22
-2.592549e-05 1.866888e-05 -2.641299e-22
1.775378e-05 -2.481346e-05 -1.017015e-06
3.134861e-05 -3.390571e-06 8.512139e-07
3.134861e-05 3.390571e-06 -8.512139e-07
3.152513e-05 -1.061322e-06 8.420983e-07
3.152513e-05 1.061322e-06 -8.420983e-07
2.715537e-05 1.625801e-05 7.437383e-07
2.715537e-05 -1.625801e-05 -7.437383e-07
9.960070e-06 2.819357e-05 4.749562e-07
1.152648e-06 3.007764e-05 -7.553836e-07
3.125765e-05 4.996182e-06 -7.393098e-07
-2.631460e-05 1.811628e-05 -2.641299e-22
3.125765e-05 -4.996182e-06 7.393098e-07
6.738844e-06 2.957385e-05 9.349270e-07
-2.111724e-06 3.155694e-05 7.668839e-07
-8.072575e-06 3.061968e-05 7.269030e-07
1.604985e-06 -2.975771e-05 1.465719e-07
1.675194e-05 2.475000e-05 4.433020e-07
2.031955e-05 -2.215389e-05 -7.140838e-07
2.031955e-05 2.215389e-05 7.140838e-07
[...]
POINT_DATA 3748
VECTORS 10.000GHz_fone_imag double
3.623398e-05 5.530140e-06 1.800402e-02
1.340235e-04 -1.036525e-05 1.768601e-02
5.523524e-05 -3.249569e-05 1.789832e-02
5.281830e-03 1.308255e-02 1.185958e-02
8.831606e-03 1.093903e-02 1.191224e-02
1.546180e-02 -3.000077e-03 1.030636e-02
-7.844755e-03 1.427386e-02 -1.485665e-02
4.326571e-03 1.606302e-02 -1.405121e-02
-3.526606e-04 -1.598796e-02 9.658107e-03
1.443236e-02 -1.650748e-03 1.160362e-02
-1.437792e-02 -1.742773e-03 1.162231e-02
-1.339538e-02 8.116564e-03 1.040249e-02
1.444812e-02 -5.224122e-03 1.075344e-02
1.546085e-04 2.660745e-04 1.763661e-02
2.720194e-04 -4.458460e-04 -2.305723e-02
-1.610823e-02 -2.558846e-03 -1.511723e-02
1.019414e-02 -1.683858e-03 -2.023978e-02
-1.003505e-02 -1.113000e-02 1.113160e-02
1.031192e-02 -1.119791e-02 1.075497e-02
1.166568e-02 -9.621676e-03 1.076115e-02
-1.170753e-02 -9.622474e-03 1.071508e-02
1.907059e-02 -1.774749e-04 -1.050207e-02
1.009885e-02 1.612490e-02 -1.037356e-02
-1.494006e-02 -1.299291e-03 -1.662663e-02
-1.429567e-06 2.549536e-04 1.770376e-02
1.504023e-02 -1.788128e-03 1.114072e-02
3.833562e-04 -1.861115e-03 -2.299461e-02
-1.287434e-02 6.483988e-03 1.120474e-02
1.307133e-02 6.256933e-03 1.110919e-02
-6.126135e-03 1.421238e-02 1.024762e-02
5.671372e-03 -8.697442e-03 -2.024970e-02
1.353037e-02 7.917554e-03 1.018977e-02
1.393990e-02 4.845515e-03 1.123251e-02
1.023378e-02 1.066509e-02 1.113283e-02
8.794470e-03 1.192323e-02 1.121964e-02
-4.657952e-05 1.409412e-04 1.776253e-02
4.925031e-03 1.397095e-02 1.122470e-02
7.266878e-03 1.369832e-02 1.052859e-02
2.884332e-03 1.518133e-02 1.056078e-02
-1.861487e-03 1.438161e-02 1.125514e-02
-3.649790e-03 1.437287e-02 1.110297e-02
1.569534e-02 -6.800338e-04 1.046006e-02
-1.539408e-02 -5.592664e-04 1.069605e-02
1.525882e-02 3.309750e-03 1.034317e-02
-1.525534e-02 3.319211e-03 1.033726e-02
-1.420818e-02 -4.184856e-03 1.113380e-02
-9.578517e-05 9.665838e-05 1.761658e-02
1.418175e-02 -4.227633e-03 1.117590e-02
-3.727297e-03 -1.984595e-02 -5.691206e-03
7.083833e-03 -1.243436e-02 1.168187e-02
-2.614905e-03 6.797516e-03 -2.166988e-02
-1.661812e-02 4.809062e-04 -1.483741e-02
-6.631989e-03 1.435060e-02 1.012149e-02
-1.202907e-03 1.485174e-02 1.105251e-02
-3.836171e-03 1.432323e-02 1.085326e-02
1.374403e-02 -1.114038e-02 -1.380164e-02
-1.352448e-02 -1.085504e-02 -1.401106e-02
-3.598907e-04 1.626936e-04 1.771202e-02
-1.478607e-02 -2.989076e-03 1.122570e-02
1.473634e-02 -2.963093e-03 1.121687e-02
-1.103907e-02 9.439421e-03 -1.675778e-02
1.097628e-02 9.396490e-03 -1.687165e-02
1.229088e-03 1.640679e-02 -1.437231e-02
1.290340e-02 9.966438e-03 -1.432087e-02
1.604755e-02 4.002418e-03 -1.464780e-02
5.531235e-04 -5.332584e-04 -2.310650e-02
-1.890986e-02 -6.284392e-04 -1.061710e-02
1.584141e-04 -7.716245e-04 -2.311174e-02
-3.498239e-06 -1.997844e-04 1.790668e-02
-1.052044e-02 1.146215e-02 1.011619e-02
1.595886e-02 -8.742106e-03 -1.215892e-02
1.151335e-02 -1.387552e-02 -1.234333e-02
8.082032e-03 -1.611936e-02 -1.236670e-02
8.850804e-03 1.260259e-02 -1.642233e-02
6.708053e-03 -1.374126e-02 1.082256e-02
7.857588e-03 -1.399909e-02 -1.475822e-02
1.049948e-02 -1.358745e-02 -1.353765e-02
1.490381e-02 -9.324776e-03 -1.275714e-02
-8.978541e-03 1.289632e-02 1.022580e-02
1.044026e-04 1.592283e-04 1.784316e-02
4.816352e-03 7.089239e-03 -2.099989e-02
5.823798e-03 6.092391e-03 -2.116821e-02
2.533318e-03 8.182190e-03 -2.100459e-02
4.149338e-03 8.033327e-03 -2.104461e-02
3.513598e-03 1.020379e-03 -2.284449e-02
-3.499119e-03 1.027523e-03 -2.284963e-02
-1.996427e-03 7.225302e-03 -2.146652e-02
-1.671923e-02 -7.827698e-03 -1.170216e-02
1.690627e-02 -7.765749e-03 -1.165006e-02
-1.826914e-02 1.536204e-03 -1.155401e-02
-8.054586e-05 1.382215e-04 1.773917e-02
-6.547391e-04 7.321905e-03 -2.143431e-02
-2.295380e-03 1.384574e-02 1.201285e-02
3.472232e-04 1.401194e-02 1.206919e-02
-1.655717e-02 -4.600546e-03 -1.380461e-02
1.655020e-02 -4.658264e-03 -1.374093e-02
1.478369e-03 7.772246e-03 -2.154813e-02
7.025505e-03 2.609577e-03 -2.147772e-02
6.721320e-03 3.505518e-03 -2.147565e-02
-1.377999e-02 -5.894457e-03 1.108483e-02
-1.339761e-02 -5.633991e-03 1.134254e-02
-1.350627e-04 1.029656e-04 1.777094e-02
1.402664e-02 -5.861582e-03 1.093122e-02
1.345828e-02 -5.956647e-03 1.116007e-02
-4.918819e-03 1.336778e-02 1.188258e-02
-1.011959e-02 9.907968e-03 1.187881e-02
-1.166516e-03 6.014317e-03 -2.226443e-02
2.556663e-03 5.513420e-03 -2.218261e-02
4.047602e-03 4.519152e-03 -2.219053e-02
1.899942e-03 -1.530719e-02 -1.587348e-02
-6.750152e-03 -1.395498e-02 -1.606587e-02
-1.037377e-02 -1.151686e-02 -1.600482e-02
-2.295479e-04 2.585178e-05 1.765727e-02
-7.105168e-05 9.303130e-05 1.760606e-02
-9.668813e-03 -1.207342e-02 -1.564720e-02
-5.726967e-03 -1.439016e-02 -1.562440e-02
6.516937e-03 -1.346329e-02 1.098674e-02
6.451111e-03 -1.437241e-02 9.970569e-03
8.904997e-03 -1.248783e-02 1.074673e-02
8.553925e-03 -1.231958e-02 1.112919e-02
9.619700e-03 -1.135255e-02 1.109541e-02
1.052934e-02 -1.180889e-02 1.003787e-02
-1.341443e-02 6.541118e-03 1.146742e-02
-1.037778e-02 1.604171e-02 -1.035892e-02
-5.045818e-04 1.631954e-06 1.757785e-02
-2.322606e-03 -1.535224e-02 -1.628564e-02
-1.326475e-02 -7.780116e-03 -1.616082e-02
-1.473011e-02 -4.718681e-03 -1.622085e-02
5.827137e-04 -1.100240e-03 -2.318557e-02
3.435373e-03 -1.501989e-02 -1.618980e-02
-3.265365e-03 -1.350900e-02 1.222423e-02
-7.115528e-03 -1.200517e-02 1.218520e-02
-1.259155e-02 -6.061173e-03 1.217237e-02
-9.431924e-03 -1.053612e-02 1.217012e-02
-5.939014e-03 -1.282847e-02 1.215492e-02
-2.533278e-05 -4.331905e-04 1.766668e-02
-7.560565e-03 1.214523e-02 -1.709263e-02
-1.115121e-02 -1.560373e-02 -9.631496e-03
-1.444770e-02 -3.146216e-03 1.085996e-02
2.216584e-03 -1.371999e-02 1.213480e-02
-3.445013e-03 1.882902e-02 -1.009443e-02
2.315977e-04 1.898443e-02 -1.059886e-02
1.214457e-02 -1.814041e-03 -1.873436e-02
-2.077379e-03 1.146345e-03 -2.318642e-02
2.051952e-03 1.150584e-03 -2.316397e-02
-1.393189e-02 5.423741e-03 1.087574e-02
6.665633e-04 9.621881e-05 1.755032e-02
1.069079e-02 -9.397088e-03 1.164960e-02
-1.067401e-02 -9.484907e-03 1.155346e-02
2.832159e-04 1.493954e-03 -2.329756e-02
-1.273332e-02 1.197802e-02 -1.343868e-02
-5.438385e-03 1.630775e-02 -1.395825e-02
-6.315392e-03 -1.512543e-02 -1.478733e-02
5.758790e-03 -1.543465e-02 -1.467470e-02
-1.225867e-02 -7.502335e-03 1.188442e-02
8.353605e-04 -1.448831e-02 1.170157e-02
-2.794405e-03 2.053271e-02 -6.740729e-03
5.614981e-05 -4.195837e-05 1.765326e-02
-1.332086e-02 -1.409581e-03 1.234440e-02
2.106189e-03 1.418622e-02 1.167636e-02
-9.470843e-04 -1.378350e-02 1.196177e-02
1.716366e-02 -2.630451e-03 -1.347270e-02
-4.500176e-03 1.783625e-03 -2.232840e-02
6.040183e-03 1.372318e-02 1.082884e-02
1.381819e-02 -3.258204e-03 1.174338e-02
-1.393657e-02 -3.246716e-03 1.174966e-02
1.490463e-02 -6.663974e-04 1.126794e-02
-1.482803e-02 -7.620851e-04 1.134611e-02
-1.394619e-04 2.398043e-04 1.774076e-02
-7.943576e-03 1.633375e-02 -1.274979e-02
4.198361e-03 1.461133e-02 1.071688e-02
-7.218798e-04 -1.417520e-02 1.169831e-02
-1.124918e-02 -8.598491e-03 1.180474e-02
5.177531e-03 -1.297202e-02 1.206068e-02
5.017442e-03 1.306148e-02 1.193687e-02
-1.957601e-03 4.558171e-03 -2.212230e-02
-6.098548e-03 1.124451e-02 1.308160e-02
-1.502388e-02 1.244792e-02 -9.052144e-03
1.298549e-03 2.026481e-02 -6.362061e-03
3.122823e-05 -1.821139e-04 1.778919e-02
1.108127e-02 -9.975452e-03 -1.647390e-02
-1.139302e-02 -9.843465e-03 -1.634540e-02
-1.605107e-02 9.055985e-03 -1.142298e-02
3.910180e-03 -1.254828e-02 1.262245e-02
1.637604e-03 1.658211e-02 -1.501379e-02
-1.914674e-02 -1.272681e-03 -9.537325e-03
1.914840e-02 -1.626791e-03 -9.728730e-03
-9.570123e-03 -1.586769e-02 -1.137516e-02
-2.545746e-03 1.432713e-02 -1.719158e-02
8.278678e-03 5.009703e-03 -2.082655e-02
3.910473e-05 -2.455770e-05 1.775084e-02
-8.303074e-03 5.009886e-03 -2.082080e-02
7.749622e-03 5.935779e-03 -2.044731e-02
-7.748863e-03 6.061736e-03 -2.034530e-02
6.683686e-03 9.464971e-05 -2.209512e-02
-1.557768e-03 1.684411e-03 -2.302238e-02
1.260197e-02 6.189778e-03 1.199024e-02
7.401074e-03 1.212997e-02 1.189357e-02
3.518891e-03 1.374438e-02 1.191944e-02
-3.957078e-03 -7.579420e-03 -2.105701e-02
-8.553489e-03 1.081581e-02 1.264662e-02
1.950537e-04 -1.977118e-04 1.778816e-02
1.805900e-02 3.242804e-03 -1.205663e-02
-1.805567e-02 3.249542e-03 -1.207358e-02
-1.179463e-02 8.863636e-03 -1.712213e-02
-1.485373e-02 6.069714e-05 1.153877e-02
6.550441e-03 1.080475e-02 1.338205e-02
-6.519597e-03 1.093384e-02 1.328815e-02
-5.497933e-03 -9.263459e-03 -2.006259e-02
8.028245e-03 -1.168638e-02 1.155647e-02
-1.186347e-03 -5.693289e-03 -2.250972e-02
1.265208e-02 -3.948592e-03 1.272046e-02
4.094569e-04 -3.076584e-04 1.779140e-02
-9.377698e-03 -3.236425e-03 -2.042289e-02
9.294790e-03 -2.658839e-03 -2.056301e-02
1.074644e-02 -1.104227e-02 1.057672e-02
-1.088203e-02 -1.123433e-02 1.039361e-02
-1.211476e-02 -1.506283e-02 -9.254090e-03
-7.522380e-03 -1.622723e-02 -1.283373e-02
-9.731138e-03 8.618469e-03 1.298701e-02
-4.219788e-03 1.319982e-02 1.205448e-02
-1.378760e-02 4.004923e-03 1.195945e-02
1.384708e-02 3.981159e-03 1.187907e-02
4.755975e-04 -2.767925e-04 1.771320e-02
2.014889e-04 1.578027e-04 1.763616e-02
1.143691e-02 -1.610588e-02 -7.934092e-03
-1.470851e-02 1.786376e-03 1.108966e-02
1.489570e-02 1.169614e-03 1.088858e-02
-1.512848e-02 8.517096e-04 1.102354e-02
1.509070e-02 5.646271e-04 1.114918e-02
-1.099064e-02 -6.447870e-03 1.321421e-02
1.101846e-02 -6.452318e-03 1.322270e-02
-3.829644e-03 -9.302532e-03 -2.046958e-02
2.447809e-04 1.503044e-02 -1.676947e-02
1.275412e-02 2.135386e-03 1.288604e-02
-6.600269e-06 1.232066e-04 1.769471e-02
-1.277047e-02 2.107818e-03 1.290675e-02
-4.140183e-03 -1.793673e-02 -1.165671e-02
6.337510e-04 -1.336045e-02 1.217794e-02
3.227347e-03 -1.223455e-02 1.283163e-02
-4.250046e-04 2.605146e-03 -2.281172e-02
-5.294467e-03 -7.790772e-03 -2.094620e-02
9.538322e-03 -1.054905e-02 -1.722120e-02
-9.704193e-03 -1.063130e-02 -1.720896e-02
6.508033e-03 -9.149180e-03 -1.971888e-02
4.478693e-03 -1.010648e-02 -1.988606e-02
-8.828447e-05 -8.983929e-05 1.769031e-02
7.746850e-03 -7.891344e-03 -1.984466e-02
1.221233e-02 6.642539e-03 1.207696e-02
-1.220347e-02 6.638814e-03 1.205526e-02
2.527823e-03 3.032110e-03 -2.253933e-02
1.021456e-02 -8.442779e-03 1.241271e-02
-1.332103e-02 3.129487e-03 1.224636e-02
-8.688336e-03 -1.096542e-02 1.216548e-02
8.717721e-03 -1.119586e-02 1.195428e-02
-1.001324e-02 1.030217e-02 1.156269e-02
1.007259e-02 1.019217e-02 1.149511e-02
1.955035e-05 9.504648e-05 1.769589e-02
6.591976e-03 1.886902e-02 -6.282924e-03
-1.010186e-02 1.357279e-02 -1.417733e-02
6.136948e-03 -1.931003e-02 -1.024369e-04
-1.065444e-02 1.268383e-02 -1.466979e-02
3.236018e-03 -3.623676e-04 -2.304486e-02
-5.401180e-03 1.230808e-02 1.258838e-02
-8.362192e-03 1.698733e-02 -1.005550e-02
-6.729013e-03 -1.805275e-02 -9.395344e-03
1.321557e-02 -8.856104e-04 1.245261e-02
6.432988e-03 1.217938e-02 1.223808e-02
3.797733e-04 -1.085111e-04 1.757176e-02
1.028450e-02 -5.413221e-03 -1.912228e-02
-1.523427e-03 1.574879e-02 -1.591327e-02
3.617704e-03 1.009071e-02 -2.033391e-02
1.379968e-03 -7.582257e-04 -2.319164e-02
-1.832381e-02 6.408314e-03 -8.542290e-03
1.075442e-02 9.095437e-03 1.205251e-02
-3.360936e-04 1.396864e-02 1.199874e-02
1.916482e-02 -5.273166e-03 -1.156039e-04
-1.365479e-02 1.189172e-02 -1.265561e-02
-5.724773e-04 1.667132e-02 -1.468087e-02
9.885665e-05 -6.414527e-05 1.777566e-02
-3.758472e-03 1.621805e-02 -1.460150e-02
2.011181e-02 -1.095254e-03 -6.061835e-03
-4.559752e-03 1.655349e-02 -1.368532e-02
-1.146813e-02 -7.949251e-03 1.220277e-02
3.007981e-03 6.115356e-04 -2.300848e-02
-2.990707e-03 6.256614e-04 -2.300676e-02
-1.968881e-05 -1.380401e-02 1.227214e-02
1.337329e-03 -9.758064e-04 -2.308213e-02
1.038717e-02 -6.336838e-03 -1.896497e-02
-1.039376e-02 -6.332967e-03 -1.893906e-02
-3.153737e-04 -1.318833e-04 1.774525e-02
9.683857e-03 -6.217691e-03 -1.952986e-02
5.150433e-03 -1.933886e-02 -7.520019e-03
-1.390882e-03 7.985302e-04 -2.308408e-02
1.967190e-02 -5.030158e-03 -5.093632e-03
-1.964611e-02 -5.040723e-03 -5.153575e-03
1.101084e-02 -5.416529e-03 1.352147e-02
-1.148288e-02 -5.498816e-03 1.317848e-02
9.222481e-03 -1.707099e-02 -9.886705e-03
2.049223e-02 -1.985967e-03 -3.758945e-03
-9.120170e-03 -1.774180e-02 -6.638325e-03
3.026952e-04 -6.152505e-05 1.776005e-02
-1.184925e-02 -1.622203e-02 -6.875266e-03
-6.597750e-03 -1.897655e-02 -6.867677e-03
-8.237137e-03 -5.876609e-03 -2.021793e-02
8.265621e-03 -5.875697e-03 -2.017166e-02
2.318728e-03 -1.993540e-02 -5.818773e-03
-3.453701e-03 -1.963905e-02 -6.853300e-03
-1.733850e-02 -9.737989e-03 -6.922291e-03
-1.384956e-02 -1.452917e-02 -5.881474e-03
-1.886312e-02 -6.770111e-03 -7.183668e-03
5.874899e-03 -1.201819e-02 1.295339e-02
1.381493e-04 -4.546259e-05 1.780516e-02
-1.035094e-02 1.565033e-02 -1.084624e-02
-1.563123e-02 3.738220e-03 -1.542546e-02
-1.514182e-02 7.780865e-03 -1.440719e-02
1.507316e-02 7.797925e-03 -1.448534e-02
2.467537e-04 -2.050066e-02 -2.645752e-03
-5.896813e-03 1.811930e-02 -9.820676e-03
-1.143603e-02 -7.690845e-03 1.228462e-02
1.145463e-02 -7.668075e-03 1.217836e-02
1.185402e-02 4.980040e-03 1.312981e-02
-1.174997e-02 4.950687e-03 1.341979e-02
1.662812e-04 4.318850e-04 1.776079e-02
-1.948250e-02 3.561731e-03 -8.042087e-03
-9.846254e-03 6.900982e-03 1.364557e-02
2.359683e-03 -1.210927e-02 -1.903920e-02
1.963371e-02 2.886180e-03 -7.950474e-03
-1.959286e-02 2.667413e-03 -8.215802e-03
5.694549e-04 -1.559204e-02 -1.561673e-02
-1.290850e-02 -8.732673e-03 -1.565331e-02
-8.520736e-04 1.912631e-02 -9.217207e-03
4.738940e-03 1.881603e-02 -8.981450e-03
4.955194e-03 1.855299e-02 -9.285099e-03
-7.444831e-05 1.170674e-04 1.778720e-02
-5.160948e-04 -6.775875e-05 1.770562e-02
1.002620e-02 1.659420e-02 -8.988954e-03
1.015661e-02 1.629683e-02 -9.294423e-03
1.749740e-02 7.549040e-03 -9.544678e-03
1.402823e-02 1.293790e-02 -9.478299e-03
1.748449e-02 8.226050e-03 -8.897659e-03
1.868269e-02 -7.682747e-03 -1.274102e-03
1.980708e-03 1.401517e-02 -1.758602e-02
1.410165e-02 1.349548e-02 -8.460123e-03
-1.406139e-02 1.359494e-02 -8.763223e-03
-1.067126e-02 1.725556e-02 -4.313972e-03
-6.588975e-05 -1.232626e-04 1.764812e-02
-8.493087e-03 -1.101042e-02 1.239015e-02
-7.323985e-04 -1.756883e-02 -1.312615e-02
-1.401045e-02 -1.061650e-02 -1.309060e-02
8.852157e-04 7.345022e-04 -2.321966e-02
-8.497011e-04 3.537501e-04 -2.325561e-02
1.044759e-02 -7.675274e-03 1.302244e-02
-1.235910e-02 4.275327e-03 1.279971e-02
1.207958e-02 4.343394e-03 1.326037e-02
1.281693e-02 -2.724388e-04 1.309657e-02
-7.813958e-03 1.791582e-02 -8.456026e-03
8.892394e-05 4.078263e-05 1.787177e-02
3.607077e-03 1.994416e-02 -6.384509e-03
-1.521764e-03 -1.913754e-02 -9.320188e-03
-7.754854e-03 -1.889844e-02 -4.789433e-03
2.629577e-03 2.021853e-02 -4.208541e-03
-1.087732e-02 8.701314e-03 1.206885e-02
7.630678e-03 -1.858186e-02 -6.510162e-03
-5.137526e-03 1.868305e-02 -8.949374e-03
4.442047e-03 -1.793190e-02 -1.181095e-02
9.070817e-04 -1.875509e-02 -1.125870e-02
-2.003650e-03 1.941959e-02 -8.508909e-03
-1.537399e-04 1.977683e-04 1.774039e-02
3.331135e-03 1.900048e-02 -9.231420e-03
6.643414e-03 1.826488e-02 -8.727803e-03
8.773679e-03 1.714974e-02 -9.226891e-03
1.168410e-02 1.552415e-02 -8.734311e-03
1.367086e-02 1.369809e-02 -8.917819e-03
1.828049e-02 6.626149e-03 -9.086200e-03
1.672263e-02 9.350344e-03 -9.102321e-03
1.615017e-03 1.145256e-02 1.424106e-02
-5.147375e-03 -1.781948e-02 -1.202270e-02
-2.013410e-02 -2.184735e-03 -7.033812e-04
-1.134331e-04 -1.303153e-04 1.787420e-02
-1.286864e-02 -5.510823e-04 1.304719e-02
-5.040951e-03 1.256882e-02 1.267426e-02
1.230655e-02 -1.501748e-02 -9.989604e-03
-6.910587e-03 -3.603050e-03 -2.178043e-02
7.138453e-03 -2.922831e-03 -2.179704e-02
1.492046e-02 -1.764175e-03 -1.658190e-02
-1.490954e-02 -1.712751e-03 -1.665382e-02
-1.341331e-02 3.448453e-04 -1.810201e-02
-2.065923e-03 -2.006853e-02 -5.712622e-03
-2.310654e-03 -1.805337e-02 -1.171799e-02
-4.447865e-04 2.778948e-04 1.794214e-02
-1.837389e-02 7.841124e-03 -6.828317e-03
8.266750e-03 -1.374730e-02 -1.554011e-02
-3.318663e-03 -1.090193e-02 1.424118e-02
-2.055298e-02 8.652255e-04 -2.879131e-03
3.837404e-03 -6.797943e-03 -2.176133e-02
1.246968e-02 4.238137e-03 1.303158e-02
1.151939e-02 6.502022e-03 1.302930e-02
9.082895e-03 9.597547e-03 1.305589e-02
8.116750e-03 1.044223e-02 1.311908e-02
5.967183e-03 1.185744e-02 1.300178e-02
-1.542313e-04 -4.874568e-04 1.783042e-02
4.713013e-03 1.236338e-02 1.312061e-02
2.200959e-03 1.302357e-02 1.294522e-02
-1.722435e-03 1.293797e-02 1.308159e-02
-3.164679e-03 1.281847e-02 1.304671e-02
-3.678633e-04 1.193032e-02 1.395668e-02
-2.225141e-03 1.151840e-02 1.397075e-02
-1.504732e-02 1.377228e-02 -3.820445e-03
-6.254209e-03 1.955342e-02 -3.630806e-03
1.165710e-03 -2.036366e-02 -8.610592e-04
-1.744382e-02 -1.062163e-02 -6.217856e-04
1.382746e-04 1.487083e-04 1.805459e-02
-3.499942e-03 4.349118e-04 -2.304907e-02
-7.576144e-03 1.125676e-02 1.240337e-02
-7.693736e-03 1.030747e-02 1.316587e-02
7.723246e-03 1.079435e-02 1.262023e-02
7.399763e-03 1.048492e-02 1.329298e-02
7.258877e-03 1.512280e-03 -2.175527e-02
1.583200e-02 -1.292247e-02 -2.693054e-03
-1.017994e-02 1.684766e-03 -2.024576e-02
3.223382e-03 -2.004801e-02 -1.510739e-04
-1.101720e-03 -1.204301e-02 1.352449e-02
-3.148809e-04 8.025852e-06 1.770918e-02
-2.074030e-03 3.797952e-03 -2.252781e-02
1.952822e-02 3.059263e-03 3.085292e-04
-1.954418e-02 3.074766e-03 2.986750e-04
-1.805837e-02 -6.274813e-03 3.986560e-03
1.819149e-02 -6.092715e-03 3.916273e-03
1.231651e-02 -3.013638e-03 1.344778e-02
-8.650667e-03 -1.852283e-02 -1.994842e-04
-1.358014e-02 -1.523231e-02 -1.896671e-04
-1.807887e-02 -9.101397e-03 2.530306e-04
-1.037693e-02 -1.762747e-02 1.609099e-05
1.379531e-04 2.179263e-05 1.776592e-02
-4.753671e-03 -1.990109e-02 7.603975e-05
-8.058611e-05 7.492403e-04 -2.337357e-02
3.530468e-03 -1.143316e-02 1.377671e-02
4.428895e-03 -1.970397e-02 -3.974670e-04
1.986126e-03 -1.979272e-02 -7.047464e-03
1.944569e-03 -1.895722e-02 -1.123155e-02
-1.272538e-02 -1.292833e-02 -1.182333e-02
2.211111e-03 -1.198036e-02 1.363890e-02
5.647109e-04 -1.238642e-02 1.349600e-02
-2.603882e-03 -1.209731e-02 1.364000e-02
7.023453e-04 -2.012894e-04 1.778465e-02
-9.957399e-05 8.290631e-05 1.784969e-02
6.206224e-03 -1.935541e-02 -1.000163e-03
6.924019e-04 2.677830e-03 -2.274327e-02
-8.894548e-03 3.804628e-03 -2.054357e-02
8.816584e-03 3.784032e-03 -2.059926e-02
-1.273154e-02 -9.363157e-04 1.282180e-02
-1.298175e-02 -2.336261e-03 1.291604e-02
2.481776e-03 -8.530090e-03 -2.139855e-02
1.799569e-02 -7.830339e-03 -7.614624e-03
2.990440e-04 2.980199e-03 -2.332613e-02
5.941174e-03 -5.133201e-03 -2.160032e-02
1.146772e-04 -2.332745e-04 1.779260e-02
1.932002e-02 -5.844681e-03 -4.746357e-03
-1.243245e-02 4.969795e-03 -1.802584e-02
-1.389482e-02 -1.276699e-02 -1.037568e-02
4.717646e-03 -1.175823e-02 1.345956e-02
1.572285e-02 -1.162398e-02 -7.937110e-03
2.616380e-03 -1.280360e-02 1.276811e-02
-5.103503e-03 -1.856290e-02 -9.127180e-03
-1.029451e-02 -1.626143e-02 -9.134372e-03
-1.770137e-02 -7.653077e-03 -9.121578e-03
8.120815e-03 7.841099e-03 -1.954093e-02
-1.181909e-04 1.152112e-05 1.760868e-02
-8.150686e-03 7.968509e-03 -1.959538e-02
-4.882160e-03 -1.981052e-02 -3.729667e-03
-5.514671e-03 -1.091582e-02 1.382262e-02
-6.450386e-03 -1.924506e-02 -1.110535e-03
4.920252e-03 3.656454e-03 -2.234172e-02
2.944741e-04 6.197480e-03 -2.240987e-02
1.232788e-02 2.937628e-03 1.333305e-02
-1.238164e-02 2.967359e-03 1.330640e-02
-5.041033e-03 -1.218273e-02 1.269821e-02
-8.388446e-03 -1.016888e-02 1.269468e-02
1.800152e-04 3.454790e-04 1.762395e-02
-1.244733e-02 -5.388148e-03 1.252515e-02
-7.319733e-03 -1.144326e-02 1.261578e-02
-3.660276e-03 -1.307143e-02 1.261584e-02
7.443098e-03 1.595504e-03 -2.168811e-02
-9.853158e-03 1.603129e-03 1.519143e-02
2.912898e-03 1.035196e-02 -2.010815e-02
5.810596e-03 9.040000e-03 -2.010980e-02
9.816401e-03 4.536929e-03 -1.995033e-02
3.816125e-03 1.824971e-02 -1.105646e-02
-1.965037e-02 -6.014938e-03 -3.203397e-03
-4.950621e-04 1.241904e-05 1.771392e-02
-2.360705e-03 -2.029786e-02 -3.304341e-03