# vtk DataFile Version 2.0
Electric current density generated by TTH
ASCII
DATASET UNSTRUCTURED_GRID
POINTS 4971 double
9.085401e-06 3.316708e-05 -2.244981e-22
-2.729913e-05 -1.807463e-05 -5.517003e-07
-2.763029e-05 1.734169e-05 -3.410074e-07
2.938339e-05 -1.682628e-05 8.305239e-07
-2.922924e-05 1.710633e-05 -8.272684e-07
-3.385163e-05 2.211707e-06 7.976996e-07
2.231136e-05 -2.397588e-05 -5.656960e-07
-1.116967e-05 -3.202960e-05 -7.990941e-07
-1.116967e-05 3.202960e-05 -7.990941e-07
-1.732561e-05 2.916304e-05 -7.990680e-07
-1.431950e-05 3.075080e-05 -7.990679e-07
8.529917e-06 3.331426e-05 -2.244981e-22
-3.201966e-05 6.002885e-06 1.983376e-07
2.753185e-05 -1.931530e-05 9.026471e-07
2.749521e-05 1.936810e-05 -9.025790e-07
-3.071549e-05 -1.424852e-05 -8.308412e-07
2.749661e-06 -3.378978e-05 -8.099331e-07
3.376464e-05 -2.209011e-06 -8.410054e-07
3.376464e-05 2.209011e-06 8.410054e-07
2.237684e-05 2.375256e-05 3.680469e-07
2.869400e-05 1.574942e-05 5.404895e-07
2.878389e-05 1.529784e-05 -2.703686e-07
7.972050e-06 3.345214e-05 -2.244981e-22
-9.910191e-07 -3.259906e-05 -3.217888e-07
-9.623023e-07 3.258464e-05 -2.776615e-07
-2.974769e-05 1.633551e-05 -7.896152e-07
-3.297409e-05 8.016174e-06 -7.915547e-07
-2.229521e-06 -3.249906e-05 -1.888470e-07
-2.229521e-06 3.249906e-05 -1.888470e-07
2.369116e-05 -2.433688e-05 7.735594e-07
-2.206485e-05 -2.563263e-05 -8.475087e-07
2.794302e-05 1.682552e-05 3.310225e-07
3.363020e-05 -4.074386e-06 8.228659e-07
7.411958e-06 3.358068e-05 -2.244981e-22
3.363020e-05 4.074386e-06 -8.228659e-07
3.270374e-05 3.498556e-06 -7.080796e-07
3.270374e-05 -3.498556e-06 7.080796e-07
3.301630e-05 -2.059829e-06 8.285920e-07
3.301630e-05 2.059829e-06 -8.285920e-07
1.026855e-05 -3.231310e-05 -8.078086e-07
1.111494e-05 -3.207566e-05 -7.841989e-07
-3.160185e-05 8.685285e-06 -5.932195e-07
-3.235674e-05 -3.812685e-06 2.118261e-07
1.885440e-05 -2.817798e-05 -8.085426e-07
6.849796e-06 3.369985e-05 -2.244981e-22
-3.204626e-05 -5.812614e-06 1.559381e-07
8.218833e-06 3.151452e-05 -1.528357e-07
-3.360188e-05 3.970520e-06 -8.415128e-07
1.002862e-05 3.098621e-05 -1.532112e-07
-2.987683e-05 -1.589872e-05 -8.380072e-07
-2.202458e-06 -3.382587e-05 -8.120263e-07
-2.202458e-06 3.382587e-05 -8.120263e-07
3.096656e-05 1.374998e-05 8.199513e-07
3.096684e-05 -1.374918e-05 -8.199867e-07
2.098854e-05 -2.584777e-05 8.994633e-07
6.285721e-06 3.380960e-05 -2.244981e-22
3.314627e-05 -7.213346e-06 7.986726e-07
3.314627e-05 7.213346e-06 -7.986726e-07
2.791044e-05 -1.717088e-05 -5.881605e-07
8.812480e-06 -3.272535e-05 -8.153300e-07
-3.065688e-05 -1.147338e-05 5.424199e-07
-3.391025e-05 -3.929931e-07 8.039787e-07
-2.557351e-05 2.220921e-05 8.252947e-07
-2.980545e-05 1.381848e-05 6.755972e-07
3.399282e-05 -8.331281e-07 7.473420e-07
3.399282e-05 8.331281e-07 -7.473420e-07
5.719891e-06 3.390992e-05 -2.244981e-22
-3.322157e-05 -2.130851e-06 8.982245e-07
3.169523e-05 1.209410e-05 7.974458e-07
3.169523e-05 -1.209410e-05 -7.974458e-07
1.132300e-05 -3.133209e-05 9.030280e-07
2.317325e-06 3.251179e-05 -2.628200e-07
2.317325e-06 -3.251179e-05 2.628200e-07
2.537289e-05 2.239989e-05 8.370556e-07
1.742468e-05 -2.785818e-05 6.808839e-07
2.537378e-05 -2.239986e-05 -8.367661e-07
-2.701678e-05 1.881040e-05 -7.315814e-07
5.152464e-06 3.400076e-05 -2.244981e-22
-4.379182e-06 3.225998e-05 -1.158705e-08
-4.379182e-06 -3.225998e-05 -1.158705e-08
6.403582e-07 3.293361e-05 -7.460127e-07
2.345314e-05 2.447277e-05 8.125966e-07
-3.193065e-05 -1.157914e-05 -7.727327e-07
-2.908250e-05 1.527831e-05 -6.742422e-07
2.565710e-05 -2.049920e-05 -6.640611e-07
2.565870e-05 2.049767e-05 6.643445e-07
-3.274741e-05 -2.138088e-06 -6.409329e-07
-2.759603e-05 1.977649e-05 -7.818647e-07
4.583598e-06 3.408211e-05 -2.244981e-22
2.078826e-05 2.515370e-05 3.663948e-07
-2.717327e-05 -2.030037e-05 8.004544e-07
-6.494574e-06 -3.337860e-05 -7.462477e-07
-6.494574e-06 3.337860e-05 -7.462477e-07
-2.977059e-05 -1.396553e-05 -7.023897e-07
4.791064e-07 -3.285866e-05 6.839364e-07
4.259357e-06 3.259469e-05 6.924339e-07
-3.198249e-05 8.477608e-06 8.316385e-07
2.899909e-06 3.385974e-05 7.607019e-07
-3.285301e-05 -5.595831e-07 -6.800077e-07
4.013452e-06 3.415394e-05 -2.244981e-22
-2.481317e-05 2.111329e-05 2.098179e-07
1.131748e-05 -3.085054e-05 -6.828475e-07
-1.180651e-06 -3.388698e-05 -8.066841e-07
-1.174898e-06 3.393390e-05 -7.796964e-07
-3.355999e-05 5.372883e-06 7.582210e-07
-2.840968e-05 1.857269e-05 7.871663e-07
-3.090989e-05 -1.154708e-05 -7.832628e-07
-3.378205e-05 2.800461e-06 -8.117989e-07
1.775168e-05 -2.891192e-05 -7.960517e-07
-2.422137e-05 2.390098e-05 -7.286650e-07
3.442185e-06 3.421624e-05 -2.244981e-22
-2.022030e-05 -2.715203e-05 -8.333524e-07
-2.022030e-05 2.715203e-05 -8.333524e-07
-1.440682e-05 -3.063555e-05 -8.333524e-07
-2.295742e-05 -2.366281e-05 7.661638e-07
2.703836e-05 1.843240e-05 5.284980e-07
1.546437e-05 2.889797e-05 -5.955103e-07
4.556021e-06 -3.361619e-05 -7.978581e-07
2.268278e-05 -2.523686e-05 7.927771e-07
1.182346e-05 3.058428e-05 6.121090e-07
6.490542e-06 3.214144e-05 6.122256e-07
2.869957e-06 3.426898e-05 -2.244981e-22
-3.188793e-05 -7.641684e-06 -6.128432e-07
4.048615e-06 -3.255044e-05 -6.242885e-07
1.939426e-05 2.636744e-05 5.402602e-07
2.402094e-05 2.244680e-05 -6.964734e-07
3.026769e-05 -1.546941e-05 7.552582e-07
3.022429e-05 1.558931e-05 -7.438885e-07
-2.417752e-05 -2.204004e-05 -5.172605e-07
2.355701e-05 -2.438143e-05 -8.093284e-07
-2.737120e-05 1.808889e-05 6.318745e-07
-3.716569e-06 3.256435e-05 5.957019e-07
2.296928e-06 3.431215e-05 -2.244981e-22
-3.716569e-06 -3.256435e-05 5.957019e-07
2.874613e-05 -1.811264e-05 7.654387e-07
-2.278149e-05 -2.522296e-05 7.576865e-07
2.875289e-05 1.810091e-05 -7.657867e-07
-2.698277e-05 2.057357e-05 -7.933376e-07
2.148087e-05 2.479068e-05 -6.256551e-07
-3.050565e-05 1.509887e-05 7.214088e-07
1.612712e-05 -2.828873e-05 -1.132359e-07
7.171934e-06 -3.202422e-05 -6.412934e-07
2.754170e-05 -1.974372e-05 -8.172061e-07
1.723258e-06 3.434574e-05 -2.244981e-22
2.862427e-05 -1.630438e-05 7.476253e-07
2.755214e-05 1.973895e-05 8.142773e-07
-2.827646e-05 -1.661814e-05 -6.209693e-07
-1.025482e-05 -3.102323e-05 4.505877e-07
-1.025482e-05 3.102323e-05 4.505877e-07
-1.622882e-05 2.835930e-05 4.512042e-07
-2.020533e-05 -2.567819e-05 4.512048e-07
-2.020533e-05 2.567819e-05 4.512048e-07
-1.898596e-05 -2.659244e-05 4.512048e-07
-1.898596e-05 2.659244e-05 4.512048e-07
1.149106e-06 3.436974e-05 -2.244981e-22
-1.468572e-05 -2.918826e-05 4.512030e-07
-1.330867e-05 -2.984132e-05 4.512152e-07
-1.330867e-05 2.984132e-05 4.512152e-07
3.143238e-05 9.799555e-06 -7.348628e-07
3.143238e-05 -9.799555e-06 7.348628e-07
-3.131236e-05 -9.846941e-06 -6.480498e-07
2.408751e-05 -2.243251e-05 7.279795e-07
-2.647289e-05 -1.946333e-05 -6.800328e-07
1.392149e-05 2.972986e-05 6.517784e-07
-2.547833e-05 -2.086098e-05 7.382383e-07
5.746331e-07 3.438414e-05 -2.244981e-22
-3.055130e-05 1.184501e-05 5.854932e-07
2.012614e-05 2.737034e-05 -7.674694e-07
2.008080e-05 -2.740571e-05 7.663688e-07
-8.012684e-06 3.293552e-05 8.127100e-07
-8.012684e-06 -3.293552e-05 8.127100e-07
3.299273e-05 3.447112e-06 8.660837e-07
3.299273e-05 -3.447112e-06 -8.660837e-07
-6.315583e-07 3.276830e-05 5.940984e-07
-3.248699e-05 4.039242e-06 -5.473221e-07
3.226887e-05 -7.266149e-06 8.268524e-07
-4.370956e-20 3.438894e-05 -2.244981e-22
3.226887e-05 7.266149e-06 -8.268524e-07
-2.304486e-05 2.485873e-05 8.121640e-07
-4.656362e-06 -3.360021e-05 7.991026e-07
-4.656362e-06 3.360021e-05 7.991026e-07
3.259090e-05 -7.967592e-07 2.832397e-07
3.259090e-05 7.967592e-07 -2.832397e-07
-3.186982e-05 1.186554e-05 -7.445005e-07
-2.666831e-05 2.101268e-05 7.811296e-07
-3.398691e-05 4.493628e-07 7.565016e-07
3.237863e-05 -5.543303e-06 6.726390e-07
-5.746331e-07 3.438414e-05 -2.244981e-22
3.237863e-05 5.543303e-06 -6.726390e-07
1.816694e-05 2.738940e-05 6.879262e-07
2.764897e-05 -1.796851e-05 -7.697347e-07
2.325513e-05 -2.357436e-05 8.437174e-07
-1.464165e-05 3.058418e-05 8.062975e-07
-1.464165e-05 -3.058418e-05 8.062975e-07
-2.044020e-05 2.705492e-05 8.062968e-07
-2.044020e-05 -2.705492e-05 8.062968e-07
-1.128197e-05 3.197746e-05 8.057333e-07
-1.128197e-05 -3.197746e-05 8.057333e-07
-1.149106e-06 3.436974e-05 -2.244981e-22
-1.742568e-05 -2.908944e-05 8.056598e-07
-1.742568e-05 2.908944e-05 8.056598e-07
1.947983e-05 -2.645945e-05 -6.790809e-07
1.542538e-05 2.911588e-05 7.528978e-07
-2.827571e-05 1.675875e-05 -6.899845e-07
-3.251340e-05 -7.925091e-06 9.165560e-07
2.236918e-05 2.555109e-05 7.764978e-07
1.825784e-05 -2.722517e-05 -6.011596e-07
1.218890e-05 3.116848e-05 -9.165675e-07
-9.642443e-06 -3.261204e-05 -7.440207e-07
-1.723258e-06 3.434574e-05 -2.244981e-22
-9.642443e-06 3.261204e-05 -7.440207e-07
-1.624186e-05 -2.987853e-05 -7.439906e-07
-1.594522e-05 3.003789e-05 -7.439906e-07
-2.186779e-05 2.604466e-05 -7.439906e-07
-1.887180e-05 -2.829098e-05 -7.439906e-07
-1.887180e-05 2.829098e-05 -7.439906e-07
-1.285861e-05 3.148309e-05 -7.439454e-07
-1.285861e-05 -3.148309e-05 -7.439454e-07
7.429956e-06 -3.261995e-05 9.164264e-07
6.496255e-06 3.282939e-05 -9.165605e-07
-2.296928e-06 3.431215e-05 -2.244981e-22
1.277214e-05 -3.149595e-05 7.584034e-07
2.780347e-05 1.757668e-05 -7.105432e-07
1.658668e-05 2.847115e-05 7.533998e-07
-3.192535e-05 1.150487e-05 7.912056e-07
2.196684e-05 -2.451226e-05 7.275978e-07
-3.120797e-05 9.353034e-06 -2.066978e-07
-2.433847e-05 -2.370292e-05 -7.675377e-07
3.235952e-05 8.413580e-06 9.158381e-07
3.235952e-05 -8.413580e-06 -9.158381e-07
1.582614e-05 -3.007126e-05 7.621190e-07
-2.869957e-06 3.426898e-05 -2.244981e-22
-3.086045e-05 -1.430420e-05 7.391556e-07
2.076094e-05 -2.529040e-05 -5.240174e-07
-3.279998e-05 -8.929262e-06 -7.538929e-07
-3.377634e-05 3.946088e-06 7.451700e-07
2.889219e-05 -1.520459e-05 4.021395e-07
2.778968e-05 -1.761120e-05 7.160364e-07
-3.130403e-05 -1.320730e-05 -7.657512e-07
-2.739484e-05 1.975467e-05 8.653139e-07
-2.386600e-05 2.252113e-05 -6.381674e-07
-2.681362e-05 -2.099225e-05 -7.087565e-07
-3.442185e-06 3.421624e-05 -2.244981e-22
[...]
POINT_DATA 4971
VECTORS 10.000GHz_fone_imag double
3.163260e+10 -9.286285e+09 2.667649e+08
-2.304693e+10 3.494399e+10 4.130793e+08
2.048584e+10 3.485052e+10 2.691600e+08
-1.807406e+10 -3.082518e+10 8.077989e+08
1.789892e+10 3.035318e+10 -7.412111e+08
2.914804e+09 3.413353e+10 3.119123e+08
-2.951847e+10 -2.719622e+10 1.109024e+09
-3.295737e+10 1.120197e+10 -1.228039e+08
3.326336e+10 1.134936e+10 1.943908e+08
3.007273e+10 1.774229e+10 2.373905e+08
3.187421e+10 1.480927e+10 4.383602e+08
3.156261e+10 -7.425212e+09 4.167889e+08
7.386657e+09 3.990635e+10 1.024424e+09
-2.086127e+10 -2.822742e+10 1.923828e+08
2.121490e+10 -2.961013e+10 -2.553998e+08
-1.461166e+10 3.181090e+10 -1.745816e+08
-3.403134e+10 -2.960169e+09 -5.639726e+08
-1.303403e+09 -3.457868e+10 3.092704e+08
1.358809e+09 -3.455466e+10 2.878976e+08
2.820118e+10 -2.811753e+10 8.066563e+08
1.883138e+10 -3.448540e+10 -3.177470e+08
1.883958e+10 -3.580969e+10 -9.761637e+08
3.202779e+10 -7.257459e+09 3.823149e+08
-3.957375e+10 7.026707e+08 6.603894e+08
4.056486e+10 9.111002e+08 -4.248389e+08
1.746365e+10 3.027568e+10 3.233380e+08
6.878593e+09 3.354778e+10 2.448838e+08
-4.041076e+10 4.356534e+09 3.294198e+07
4.017305e+10 4.171905e+09 2.406155e+08
-2.435517e+10 -2.425637e+10 6.425876e+08
-2.678470e+10 2.392338e+10 4.176009e+08
2.102520e+10 -3.530765e+10 9.292009e+08
-3.994197e+09 -3.544223e+10 -1.201373e+08
3.160881e+10 -8.346618e+09 -5.168660e+07
4.014374e+09 -3.541969e+10 -9.885113e+07
4.530822e+09 -3.689244e+10 -1.049316e+09
-4.511037e+09 -3.688924e+10 -1.032788e+09
-1.940117e+09 -3.962834e+10 6.684770e+08
2.053539e+09 -3.962898e+10 6.257096e+08
-3.226278e+10 -1.044656e+10 3.771749e+08
-3.235439e+10 -1.029570e+10 7.507321e+08
1.134954e+10 3.996575e+10 4.063127e+08
-5.169905e+09 4.021882e+10 -1.686828e+09
-2.876702e+10 -2.011052e+10 1.094564e+08
3.314585e+10 -7.243811e+09 -5.313810e+08
-6.899524e+09 3.955792e+10 4.019571e+08
4.003387e+10 -1.049055e+10 -4.561567e+07
5.334273e+09 3.520841e+10 -5.208577e+08
3.739913e+10 -1.125557e+10 4.952351e+08
-1.676942e+10 3.091167e+10 8.410928e+07
-3.523539e+10 2.194680e+09 1.203399e+08
3.526567e+10 2.174321e+09 -1.248336e+08
1.449291e+10 -3.095348e+10 1.810047e+08
-1.463536e+10 -3.112146e+10 1.218763e+08
-2.976021e+10 -2.371131e+10 1.119127e+08
3.478709e+10 -6.585277e+09 -3.769529e+08
-7.342368e+09 -3.420242e+10 -6.445111e+08
7.323301e+09 -3.437835e+10 -6.550594e+08
-2.209553e+10 -3.455906e+10 1.994884e+09
-3.461376e+10 -1.024398e+10 9.447812e+08
-1.430021e+10 3.600743e+10 2.923259e+07
-7.417188e+08 3.474696e+10 1.658523e+08
2.401234e+10 2.782713e+10 6.800626e+08
1.582901e+10 3.612238e+10 -3.214824e+08
-9.010482e+08 -3.538147e+10 2.708812e+08
1.084995e+09 -3.588414e+10 2.448970e+08
3.340038e+10 -5.333749e+09 -1.671134e+08
-2.972024e+09 3.746697e+10 -1.056058e+08
1.196797e+10 -3.256332e+10 -4.483671e+08
-1.230990e+10 -3.248437e+10 -2.716121e+08
-3.489874e+10 -1.313118e+10 9.349773e+07
4.198139e+10 -3.172760e+09 1.128668e+09
-4.073923e+10 -4.136349e+09 -3.044807e+07
2.369628e+10 -2.684253e+10 -5.788758e+07
-3.403261e+10 -2.147602e+10 1.671286e+08
-2.249000e+10 -2.691202e+10 1.234528e+08
2.127396e+10 3.226939e+10 8.004769e+08
3.233134e+10 -4.117724e+09 -7.619046e+08
3.987267e+10 6.648859e+09 7.885000e+07
-3.986154e+10 6.648463e+09 -6.207325e+07
3.912825e+10 -1.020415e+09 -8.193103e+08
2.411440e+10 -2.487183e+10 4.362846e+07
-1.098309e+10 3.240450e+10 5.994696e+08
1.902569e+10 3.528700e+10 -1.006780e+08
-2.568489e+10 -2.983626e+10 -6.877662e+07
2.516514e+10 -3.141709e+10 5.129679e+08
-2.194058e+09 3.852775e+10 -6.177560e+08
2.154487e+10 2.906127e+10 -3.697466e+08
3.196986e+10 -4.329495e+09 -1.434306e+09
3.118872e+10 -2.621052e+10 1.279819e+09
-2.060243e+10 2.779993e+10 8.339907e+08
-3.312504e+10 6.165515e+09 -4.597481e+08
3.312541e+10 6.166590e+09 4.604182e+08
-1.607844e+10 3.708256e+10 1.180468e+09
-3.965684e+10 -6.941873e+08 -1.728117e+09
3.990719e+10 -6.556369e+09 -1.540302e+08
1.173926e+10 3.867737e+10 -1.930412e+08
3.568284e+10 -2.726976e+09 -1.173017e+08
-7.150255e+08 4.057226e+10 3.931145e+08
3.203761e+10 -5.317759e+09 1.450430e+09
2.511819e+10 3.083938e+10 5.578862e+08
-3.679912e+10 -1.316279e+10 2.154411e+07
-3.504616e+10 1.488615e+09 1.274443e+09
3.538813e+10 1.002084e+09 -6.406649e+08
5.388866e+09 3.449606e+10 -3.273496e+08
1.915758e+10 2.951731e+10 2.879502e+08
-1.376410e+10 3.517684e+10 3.634939e+08
3.063602e+09 3.469449e+10 -6.888586e+08
-2.963626e+10 -1.891534e+10 9.421801e+08
2.370064e+10 2.337105e+10 6.671434e+07
3.384022e+10 -3.381654e+09 -1.353687e+09
-2.709414e+10 2.112837e+10 -6.353431e+07
2.782533e+10 2.153885e+10 2.471015e+07
-3.154555e+10 1.555264e+10 -2.153557e+07
-2.766085e+10 2.730235e+10 -2.437443e+09
2.224617e+10 -3.268587e+10 -2.726058e+08
3.500848e+10 -1.899200e+10 -4.124976e+08
-3.463420e+10 -5.423194e+09 -4.060616e+08
-2.599656e+10 -2.353056e+10 4.127029e+08
3.648702e+10 -1.365091e+10 5.835413e+07
4.055202e+10 -6.818765e+09 1.097595e+09
3.414983e+10 -2.987978e+09 7.206327e+08
-9.631307e+09 3.960399e+10 1.156008e+09
-3.877911e+10 -4.886109e+09 1.162884e+09
3.157435e+10 -2.413543e+10 -7.250853e+08
2.611722e+10 -2.875182e+10 1.185721e+09
-1.749844e+10 -3.364734e+10 -8.160817e+08
1.635983e+10 -3.072990e+10 -2.665769e+08
-2.635747e+10 2.952799e+10 -6.523361e+07
-2.495618e+10 -2.467490e+10 6.917799e+08
2.216989e+10 3.300487e+10 -3.007164e+08
3.906975e+10 3.605637e+09 -3.070178e+08
3.312704e+10 -2.170430e+09 8.818648e+08
-3.883001e+10 3.642906e+09 3.684635e+08
-1.812650e+10 -2.941028e+10 6.464644e+08
-2.648853e+10 2.332209e+10 1.037768e+09
1.873832e+10 -2.947426e+10 1.139976e+08
2.246401e+10 2.817261e+10 -4.107589e+08
2.954152e+10 -2.576278e+10 -1.386620e+09
1.531236e+10 3.025181e+10 1.772468e+08
-3.505340e+10 -1.974718e+10 6.332054e+08
-3.861298e+10 -9.424399e+09 7.586133e+08
-2.093492e+10 -2.850912e+10 1.210648e+07
3.292454e+10 -9.209469e+08 6.542359e+08
-1.778275e+10 -3.452968e+10 -5.331774e+08
2.250903e+10 -2.840475e+10 -5.421452e+08
-1.985389e+10 3.414440e+10 -1.829739e+08
-3.783744e+10 1.139812e+10 2.290889e+09
3.778553e+10 1.142029e+10 -2.226325e+09
3.485885e+10 1.965128e+10 -6.725120e+08
-2.993880e+10 2.255464e+10 -1.304243e+09
3.152230e+10 2.343772e+10 1.249952e+09
-3.210454e+10 2.435785e+10 8.972561e+08
3.109387e+10 2.442474e+10 -1.195279e+09
3.299389e+10 -1.548705e+09 -5.730244e+08
-3.547480e+10 1.674961e+10 -1.405728e+09
-3.534644e+10 1.773528e+10 1.210833e+09
3.591748e+10 1.648079e+10 -1.532886e+09
1.245878e+10 -3.901898e+10 -3.323135e+08
-1.175548e+10 -3.655439e+10 5.182519e+07
-1.174407e+10 3.732016e+10 -1.081676e+09
-2.708140e+10 -2.857300e+10 6.635022e+08
-2.374296e+10 3.351069e+10 1.226927e+09
3.516910e+10 -1.645861e+10 -1.210418e+09
-2.468429e+10 3.122906e+10 -2.268453e+08
3.312318e+10 -1.294031e+09 -2.865905e+08
1.361100e+10 3.684389e+10 1.181651e+09
2.744267e+10 -2.021533e+10 -5.834640e+06
-2.742601e+10 -2.053231e+10 1.557524e+09
3.468289e+10 9.260433e+09 -9.332587e+08
-3.469175e+10 9.265510e+09 9.349015e+08
3.576551e+09 -3.882576e+10 4.792735e+07
-3.563755e+09 -3.880988e+10 4.750958e+07
4.015297e+10 1.400124e+09 -6.803283e+08
4.520416e+09 3.940482e+10 -3.360028e+08
-8.845407e+09 -3.675261e+10 -4.669755e+07
3.291184e+10 -1.867874e+08 9.633638e+07
8.906486e+09 -3.683795e+10 -6.968852e+07
2.597299e+10 2.463805e+10 7.630003e+07
-3.433290e+10 5.893267e+09 3.853071e+07
3.433362e+10 5.887247e+09 -3.431675e+07
-1.019916e+08 -4.024366e+10 5.426581e+08
-6.053518e+08 -3.895499e+10 -9.010471e+07
1.270552e+10 3.233690e+10 1.701562e+08
2.219388e+10 2.902200e+10 5.236330e+08
-8.581702e+08 3.621561e+10 2.583757e+08
-6.564447e+09 -3.927784e+10 -3.812520e+08
3.507631e+10 5.056107e+08 2.686718e+08
6.481266e+09 -3.883959e+10 -4.289081e+08
3.411722e+10 -2.170492e+10 3.314592e+08
-2.112413e+10 -3.135743e+10 4.009578e+08
-2.723467e+10 -2.624143e+10 -2.683194e+08
3.175836e+10 1.600757e+10 3.307725e+06
-3.105557e+10 1.619095e+10 1.842671e+08
2.722394e+10 2.209654e+10 -2.013491e+08
-2.816417e+10 2.002197e+10 1.907998e+08
3.241171e+10 1.179796e+10 2.072877e+08
-3.254097e+10 1.199391e+10 -9.610001e+07
3.241742e+10 2.047367e+09 5.540215e+08
-3.017545e+10 1.818347e+10 5.818764e+07
2.970828e+10 1.841999e+10 1.123619e+08
-3.202932e+10 -2.277144e+10 -9.777535e+08
3.287677e+10 -1.891620e+10 3.228633e+08
1.909267e+10 3.451599e+10 3.204979e+08
-7.241645e+09 3.597989e+10 2.036986e+09
2.534190e+10 -2.284833e+10 -4.958992e+08
-3.425512e+10 -2.240725e+10 6.757671e+08
3.309214e+10 -1.265826e+10 9.893158e+08
-3.361268e+10 1.064731e+10 -6.771558e+08
3.368467e+10 7.307621e+08 6.279695e+08
3.362256e+10 1.066597e+10 6.887725e+08
-3.051979e+10 1.565309e+10 7.354925e+08
3.019287e+10 1.661016e+10 4.796597e+08
2.715617e+10 2.079432e+10 -5.547322e+08
-2.869512e+10 1.939017e+10 1.917802e+08
2.869514e+10 1.959277e+10 -8.441596e+08
3.148552e+10 1.296776e+10 1.024235e+08
-3.201276e+10 1.343986e+10 8.766039e+08
-3.479885e+10 -8.312813e+09 1.543894e+09
3.558153e+10 -7.705799e+09 -2.159572e+08
3.538456e+10 3.159687e+09 1.116299e+09
-3.206643e+10 -1.250774e+10 7.609555e+08
2.043272e+10 -3.293252e+10 -1.383334e+09
3.376433e+10 -1.884955e+10 -2.698010e+08
1.182183e+10 3.463184e+10 -5.118319e+07
-3.060823e+10 -2.688355e+10 -3.559978e+08
1.124222e+10 3.957807e+10 -3.543118e+08
-2.332807e+10 2.579287e+10 -1.220046e+08
9.205182e+09 -3.435321e+10 3.981215e+08
-9.318797e+09 -3.431961e+10 4.113424e+08
-3.051304e+10 -1.710714e+10 -8.111479e+08
3.338201e+10 3.487004e+09 8.064675e+08
-1.497134e+10 3.118429e+10 -3.486457e+08
-3.029009e+10 -2.535946e+10 -7.187464e+07
-8.654528e+09 3.297436e+10 -5.210213e+08
3.931534e+09 3.699196e+10 8.770191e+08
-2.018032e+10 -3.648542e+10 -1.407310e+09
-2.063410e+10 -3.298740e+10 -8.691036e+08
-1.435565e+10 3.275818e+10 2.353852e+08
2.103856e+10 3.014975e+10 -1.066123e+09
2.727704e+10 2.810967e+10 -1.692171e+09
-2.138409e+10 2.771532e+10 -4.056126e+08
3.261840e+10 2.372553e+09 6.634225e+08
-2.880005e+10 -1.976916e+10 -9.108973e+08
-2.923976e+10 2.921971e+10 5.849229e+08
3.160981e+10 -1.364190e+10 -1.920333e+09
-3.167603e+10 -1.511601e+10 -2.342805e+08
-1.818622e+10 -2.970941e+10 -8.674043e+08
-2.845717e+10 -3.366831e+10 1.418844e+08
3.034395e+10 -3.524174e+10 -3.015386e+08
-3.915210e+10 6.447512e+09 -1.560582e+08
3.915584e+10 6.446121e+09 1.583507e+08
7.250621e+09 -3.561874e+10 3.572458e+08
3.385499e+10 4.492290e+09 6.751534e+08
6.116313e+09 -3.326290e+10 1.314859e+09
-7.164340e+09 -3.561159e+10 5.945873e+08
-6.621663e+09 -3.290530e+10 1.672360e+09
-2.160450e+10 3.361537e+10 -3.436819e+08
2.381626e+10 -2.354585e+10 5.071573e+08
3.283673e+10 -1.269517e+10 -5.770276e+08
3.309024e+10 -1.094333e+10 5.285283e+08
3.361396e+10 -7.126045e+09 6.829683e+08
3.287740e+10 -8.863715e+09 -2.460293e+08
-2.460419e+10 -2.240465e+10 1.022889e+09
3.295631e+10 3.829292e+09 5.121827e+08
3.616534e+10 -2.430882e+09 -2.383839e+09
4.016411e+10 -1.956412e+09 9.381587e+08
-3.586279e+10 -3.446993e+09 4.669683e+06
-3.395742e+10 -4.161959e+09 7.634856e+07
-3.424213e+10 -5.402785e+09 2.587038e+08
-3.348910e+10 -4.620257e+09 7.410774e+08
4.229882e+08 -3.851421e+10 -4.905635e+08
-3.560035e+08 -3.818552e+10 -5.339206e+08
-3.171880e+10 -1.372820e+10 8.128914e+07
-7.394241e+09 3.592200e+10 -1.482286e+09
3.300873e+10 6.196875e+09 2.550662e+08
-5.334441e+09 3.415409e+10 -9.529211e+07
-3.886118e+09 3.513871e+10 3.645898e+08
-3.755664e+09 3.397306e+10 -1.141899e+09
3.139411e+10 -1.723732e+10 -6.430764e+08
3.115611e+10 -1.537890e+10 -3.579293e+08
1.320805e+10 3.105677e+10 4.038760e+08
-1.738569e+09 3.985595e+10 -5.228570e+08
-3.832818e+10 1.571113e+08 -1.206128e+09
2.466038e+10 -2.326183e+10 -1.784867e+08
2.576888e+10 -2.416872e+10 1.225948e+08
3.259221e+10 5.356671e+09 -5.258194e+08
1.783790e+10 -2.831987e+10 -7.715130e+08
3.607478e+10 -6.573268e+09 8.849428e+07
1.214160e+10 3.210149e+10 1.350369e+09
-1.355652e+10 3.414632e+10 -4.318782e+08
-1.083788e+10 3.315925e+10 -5.961476e+08
2.095279e+10 -3.078189e+10 1.116143e+08
-9.681880e+09 3.241779e+10 -5.786510e+08
2.215458e+10 -2.474901e+10 -3.148371e+08
-2.261205e+10 -2.558577e+10 -2.220265e+08
3.048153e+10 -1.824231e+10 -1.747750e+08
3.221627e+10 4.983873e+09 -1.302417e+09
2.879938e+10 -1.804176e+10 5.540793e+08
-3.906058e+10 8.957399e+09 1.921509e+09
3.906686e+10 8.959113e+09 -1.921909e+09
2.756938e+10 2.838280e+10 7.562023e+08
3.002030e+10 -1.507008e+10 -8.105904e+08
-2.971747e+10 -2.506359e+10 -2.245931e+08
8.988814e+07 3.954800e+10 3.429193e+08
-1.277444e+10 -3.583471e+10 6.154898e+07
1.175372e+10 -3.659178e+10 5.239409e+08
1.814699e+10 3.637519e+10 1.029122e+09
3.188436e+10 7.637816e+09 2.732315e+07
1.819593e+10 3.385397e+10 -5.283663e+08
1.130469e+10 3.781178e+10 -1.198400e+09
4.541571e+09 4.145622e+10 1.451932e+09
-1.361934e+10 3.533072e+10 5.410437e+08
-2.290927e+10 2.435623e+10 -1.223068e+09
-3.461687e+10 -5.060808e+08 -6.332123e+08
-3.419116e+10 1.099119e+09 5.229087e+08
2.226697e+08 3.314918e+10 2.277086e+08
5.854244e+09 3.980727e+10 2.214405e+08
2.745713e+10 -1.899268e+10 7.174093e+07
3.296240e+10 6.023901e+09 -9.399314e+08
3.359156e+10 -9.846750e+07 -1.100523e+09
-3.561353e+10 -1.662766e+10 9.249455e+08
-3.378029e+10 -2.318594e+10 -1.074746e+09
-3.903833e+10 1.442327e+09 1.244205e+09
-2.365040e+10 3.285238e+10 -5.619543e+08
-3.512689e+10 -1.685494e+10 -2.401973e+08
5.086747e+09 3.787159e+10 1.170585e+08
-1.504913e+10 -3.141454e+10 8.790787e+06
1.724362e+10 2.898771e+10 -1.414357e+08
-1.731683e+10 3.160318e+10 -9.413711e+08
3.348883e+10 7.752963e+09 2.701868e+08
2.361035e+10 -2.963942e+10 -4.699794e+08
-2.513757e+10 -3.063546e+10 1.477825e+07
5.998317e+09 3.928725e+10 -2.863593e+08
-3.405268e+10 5.601027e+09 3.080741e+08
3.403927e+10 5.601926e+09 -3.038893e+08
-9.940423e+09 -4.035849e+10 9.102103e+07
9.830386e+09 -4.024172e+10 1.653306e+08
1.571957e+10 -3.746469e+10 4.552716e+08
-1.619178e+10 -3.696423e+10 -4.540173e+08
1.466848e+10 -3.079378e+10 1.395601e+08
3.259149e+10 8.567435e+09 -2.231224e+08
-1.848534e+10 3.044322e+10 4.292008e+08
-2.570311e+10 -2.278533e+10 -5.964195e+08
-1.984680e+09 3.391741e+10 -9.417727e+07
-1.269266e+10 3.209802e+10 5.399850e+08
-3.310325e+10 3.027162e+09 1.019620e+08
3.246131e+10 2.531244e+09 8.512456e+07
-1.742928e+10 3.282971e+10 -7.798237e+08
-2.121882e+10 -2.764606e+10 5.353498e+08
-2.297951e+10 2.411728e+10 7.576603e+08
-1.420600e+09 3.475594e+10 -3.128384e+08
3.299896e+10 9.618925e+09 -1.878337e+08
-1.841189e+10 3.019462e+10 1.115918e+09
-1.687088e+10 3.663312e+10 -4.616176e+08
-4.010160e+10 -2.450174e+09 5.882682e+08
3.083830e+10 -2.553392e+10 -5.261127e+08
-2.638954e+10 3.098689e+10 -1.246126e+09
-2.475370e+10 3.166553e+10 -7.990102e+07
3.111614e+10 -2.073261e+10 -4.396830e+08
1.505322e+10 -3.724932e+10 3.317803e+08
-1.496310e+10 -3.706188e+10 3.522492e+08
-3.114395e+10 -1.817660e+10 -8.010015e+08
3.143704e+10 9.209499e+09 -9.943775e+06
2.067173e+10 -2.526337e+10 -1.521928e+08
-1.366542e+10 -3.756967e+10 2.549643e+08
1.307623e+10 -3.683774e+10 -3.167431e+08
-9.540335e+09 3.416553e+10 5.001889e+08
1.530596e+10 3.725164e+10 1.880610e+09
2.836043e+10 -2.876841e+10 2.258794e+08
2.135357e+10 3.109117e+10 -7.236141e+08
-2.065780e+10 -3.492142e+10 1.357667e+09
-2.725121e+10 -3.134722e+10 -7.478136e+08
2.406963e+10 3.039480e+10 -3.773649e+08
3.117156e+10 9.852948e+09 -7.507006e+07
-1.128541e+10 3.667553e+10 -7.749128e+08
3.512354e+10 -1.638897e+10 -6.418371e+08
-2.955035e+10 1.755656e+10 1.402259e+08
3.684284e+10 -1.046437e+10 8.026559e+08
3.774884e+10 -1.095206e+10 -1.210300e+09
-1.192675e+10 3.772745e+10 -1.782377e+08
-3.841177e+10 -1.137401e+10 9.460949e+08
-3.761767e+10 -2.841974e+09 -4.140538e+08
3.780577e+10 -4.723328e+09 2.894904e+09
-3.910328e+10 -5.986740e+09 -3.255641e+08
3.236536e+10 1.028149e+10 -9.510009e+08
3.998796e+10 -5.796906e+09 1.130444e+09
-3.585774e+10 -1.075591e+10 3.372383e+08
3.500590e+10 -1.688952e+10 1.524291e+08
3.294397e+10 -1.417379e+10 -4.851403e+07
-3.306337e+10 -7.756258e+09 6.745254e+07
-5.416727e+09 3.882095e+10 8.211042e+08
5.590378e+09 3.454119e+10 2.907761e+08
-4.188735e+09 3.697691e+10 1.298659e+09
5.009607e+09 -3.941924e+10 9.685617e+07
-4.987297e+09 -3.947010e+10 2.215204e+08
3.206992e+10 1.015910e+10 4.434362e+06
3.319417e+10 -4.694826e+09 5.531033e+08
-3.476900e+10 -9.267770e+09 -3.666794e+08
-3.287240e+10 -9.364789e+09 7.060703e+08
3.422243e+10 1.676813e+09 1.362481e+09
-2.701410e+10 3.034064e+10 1.413915e+08
-7.170060e+09 -3.799545e+10 1.038725e+08
8.479785e+09 -4.250287e+10 2.008350e+08
-8.616650e+09 3.644921e+10 -3.731233e+08
5.535136e+09 -3.427381e+10 2.587082e+08
-5.536334e+09 -3.427707e+10 4.339839e+08
3.237624e+10 1.266997e+10 -7.155740e+07
-2.530541e+10 3.167091e+10 -1.245407e+08
-3.346237e+10 -4.401074e+09 1.990895e+07
-3.989486e+10 -1.648098e+09 -5.451872e+08
4.150851e+10 -2.745323e+09 1.648205e+09
2.892541e+10 -1.958606e+10 -8.763528e+08
-2.890563e+10 -2.818186e+10 -2.380369e+08
-2.827492e+10 -1.941713e+10 1.381440e+09
1.345961e+10 3.828888e+10 -2.140342e+09
-3.292577e+10 -1.614026e+10 6.188971e+07
3.350580e+10 -1.379036e+10 3.945864e+08
3.100257e+10 1.332982e+10 -7.222288e+08
3.316914e+10 -2.057805e+10 -5.473917e+08
-3.959619e+10 -6.546782e+09 4.670727e+08
-1.036513e+10 -3.397240e+10 -7.607865e+07
1.018297e+10 -3.408879e+10 -2.550541e+08
-2.510860e+10 -2.519503e+10 -6.852289e+08
3.366047e+10 -2.225816e+10 1.094478e+09
2.457196e+10 3.038513e+10 -1.063040e+09
-2.515180e+10 -2.226269e+10 6.442077e+08
1.719567e+10 3.539587e+10 -2.682988e+08
2.322093e+10 2.573424e+10 -3.558071e+08
2.979109e+10 1.084082e+10 -1.557169e+09
-3.245188e+10 -1.068211e+10 5.131458e+08
1.280650e+10 3.070382e+10 1.140035e+09
-6.458935e+09 -3.418982e+10 1.925755e+08
6.416718e+09 -3.412966e+10 2.403414e+08
3.659282e+10 1.670771e+10 3.574198e+08
3.502389e+10 2.005937e+10 -4.230096e+08
-9.104636e+09 3.343285e+10 -4.106261e+08
-3.890415e+10 1.271942e+10 6.777514e+08
3.905348e+10 1.283174e+10 -1.694012e+08
1.601352e+10 3.689017e+10 6.819360e+08
2.950570e+10 1.246921e+10 -9.242856e+08
2.777289e+10 -3.061727e+10 -9.847033e+07
-5.138808e+09 -3.486670e+10 -5.897063e+06
5.226922e+09 -3.476070e+10 -8.026218e+07
-3.784078e+10 -1.782334e+09 -3.669821e+08
2.880160e+10 -1.847462e+10 9.372826e+07
-3.292987e+10 1.679241e+09 -1.141237e+09
3.154448e+10 1.298111e+10 -5.377113e+08
-3.115974e+10 1.344945e+10 2.884175e+08
-2.821001e+10 1.952704e+10 3.284112e+08
2.791078e+10 1.943608e+10 -2.905223e+08
3.109739e+10 1.431342e+10 -9.551853e+08
2.625736e+10 2.066833e+10 1.639940e+09
-2.560210e+10 2.147583e+10 -8.085569e+08
-2.945767e+10 1.439684e+10 -2.145246e+09
2.895448e+10 1.682919e+10 -1.147443e+08
-1.029694e+10 3.668389e+10 -4.681744e+08
-3.266967e+10 1.033596e+10 -4.386642e+08
3.265597e+10 1.032496e+10 4.447738e+08
3.812313e+10 -2.282903e+09 2.140449e+08
3.263530e+10 -1.335683e+10 -6.485733e+07
3.869956e+10 -3.699567e+09 7.171593e+07
3.140843e+10 1.321443e+10 -1.044284e+08
-1.191057e+10 -3.065403e+10 1.687459e+09
1.159754e+10 -3.161762e+10 7.198910e+08
6.170777e+09 3.364160e+10 2.462578e+08
2.629130e+10 -2.795846e+10 8.474832e+08
3.481449e+10 -6.017413e+09 2.150413e+08
-3.358361e+10 -7.897940e+09 -1.647807e+08
3.261321e+10 8.004898e+09 8.671316e+08
-3.261600e+10 8.001384e+09 -8.658811e+08
3.841615e+09 3.946263e+10 3.705758e+08
2.506210e+10 -2.348356e+10 -7.993570e+07
3.070561e+10 1.486115e+10 -4.697967e+08
2.902166e+10 -2.570168e+10 -2.106530e+08
-1.814964e+10 3.757867e+10 5.805486e+08
-1.820057e+10 -2.857808e+10 -3.854682e+08
3.477979e+10 -1.585826e+10 1.156522e+08
-3.237508e+10 -1.473446e+10 3.143067e+08
2.046013e+08 3.820346e+10 1.014613e+09
2.271550e+10 2.508330e+10 -2.358549e+07
3.028386e+10 -2.905512e+10 8.500666e+08
2.460648e+10 2.244196e+10 -2.369178e+08
-3.875488e+10 3.533548e+09 -9.702181e+08
2.931741e+10 1.578825e+10 -5.294687e+08
3.840719e+10 3.567780e+09 4.314790e+08
-3.350384e+10 9.245890e+09 5.235414e+08
3.348754e+10 9.237254e+09 -5.193580e+08
1.025358e+10 -3.175941e+10 7.247866e+07
-9.897961e+09 -3.293346e+10 -4.650516e+08
4.888523e+09 3.577445e+10 5.302074e+08
3.927231e+10 -7.637338e+09 1.562450e+08
1.906131e+10 3.382117e+10 3.279880e+08