# vtk DataFile Version 2.0
Electric current density generated by TTH
ASCII
DATASET UNSTRUCTURED_GRID
POINTS 4747 double
3.438894e-05 -8.422862e-21 -2.244981e-22
3.400076e-05 5.152464e-06 -2.244981e-22
-2.869957e-06 3.426898e-05 -2.244981e-22
-9.623023e-07 3.258464e-05 -2.776615e-07
-2.974769e-05 1.633551e-05 -7.896152e-07
-3.297409e-05 8.016174e-06 -7.915547e-07
-2.229521e-06 -3.249906e-05 -1.888470e-07
-2.229521e-06 3.249906e-05 -1.888470e-07
2.369116e-05 -2.433688e-05 7.735594e-07
-2.206485e-05 -2.563263e-05 -8.475087e-07
2.794302e-05 1.682552e-05 3.310225e-07
3.363020e-05 -4.074386e-06 8.228659e-07
3.363020e-05 4.074386e-06 -8.228659e-07
-3.442185e-06 3.421624e-05 -2.244981e-22
3.270374e-05 3.498556e-06 -7.080796e-07
3.270374e-05 -3.498556e-06 7.080796e-07
3.301630e-05 -2.059829e-06 8.285920e-07
3.301630e-05 2.059829e-06 -8.285920e-07
1.026855e-05 -3.231310e-05 -8.078086e-07
1.111494e-05 -3.207566e-05 -7.841989e-07
-3.160185e-05 8.685285e-06 -5.932195e-07
-3.235674e-05 -3.812685e-06 2.118261e-07
1.885440e-05 -2.817798e-05 -8.085426e-07
-3.204626e-05 -5.812614e-06 1.559381e-07
-4.013452e-06 3.415394e-05 -2.244981e-22
8.218833e-06 3.151452e-05 -1.528357e-07
-3.360188e-05 3.970520e-06 -8.415128e-07
1.002862e-05 3.098621e-05 -1.532112e-07
-2.987683e-05 -1.589872e-05 -8.380072e-07
-2.202458e-06 -3.382587e-05 -8.120263e-07
-2.202458e-06 3.382587e-05 -8.120263e-07
3.096656e-05 1.374998e-05 8.199513e-07
3.096684e-05 -1.374918e-05 -8.199867e-07
2.098854e-05 -2.584777e-05 8.994633e-07
3.314627e-05 -7.213346e-06 7.986726e-07
-4.583598e-06 3.408211e-05 -2.244981e-22
3.314627e-05 7.213346e-06 -7.986726e-07
2.791044e-05 -1.717088e-05 -5.881605e-07
8.812480e-06 -3.272535e-05 -8.153300e-07
-3.065688e-05 -1.147338e-05 5.424199e-07
-3.391025e-05 -3.929931e-07 8.039787e-07
-2.557351e-05 2.220921e-05 8.252947e-07
-2.980545e-05 1.381848e-05 6.755972e-07
3.399282e-05 -8.331281e-07 7.473420e-07
3.399282e-05 8.331281e-07 -7.473420e-07
-3.322157e-05 -2.130851e-06 8.982245e-07
-5.152464e-06 3.400076e-05 -2.244981e-22
3.169523e-05 1.209410e-05 7.974458e-07
3.169523e-05 -1.209410e-05 -7.974458e-07
1.132300e-05 -3.133209e-05 9.030280e-07
2.317325e-06 3.251179e-05 -2.628200e-07
2.317325e-06 -3.251179e-05 2.628200e-07
2.537289e-05 2.239989e-05 8.370556e-07
1.742468e-05 -2.785818e-05 6.808839e-07
2.537378e-05 -2.239986e-05 -8.367661e-07
-2.701678e-05 1.881040e-05 -7.315814e-07
-4.379182e-06 3.225998e-05 -1.158705e-08
-5.719891e-06 3.390992e-05 -2.244981e-22
-4.379182e-06 -3.225998e-05 -1.158705e-08
6.403582e-07 3.293361e-05 -7.460127e-07
2.345314e-05 2.447277e-05 8.125966e-07
-3.193065e-05 -1.157914e-05 -7.727327e-07
-2.908250e-05 1.527831e-05 -6.742422e-07
2.565710e-05 -2.049920e-05 -6.640611e-07
2.565870e-05 2.049767e-05 6.643445e-07
-3.274741e-05 -2.138088e-06 -6.409329e-07
-2.759603e-05 1.977649e-05 -7.818647e-07
2.078826e-05 2.515370e-05 3.663948e-07
-6.285721e-06 3.380960e-05 -2.244981e-22
-2.717327e-05 -2.030037e-05 8.004544e-07
-6.494574e-06 -3.337860e-05 -7.462477e-07
-6.494574e-06 3.337860e-05 -7.462477e-07
-2.977059e-05 -1.396553e-05 -7.023897e-07
4.791064e-07 -3.285866e-05 6.839364e-07
4.259357e-06 3.259469e-05 6.924339e-07
-3.198249e-05 8.477608e-06 8.316385e-07
2.899909e-06 3.385974e-05 7.607019e-07
-3.285301e-05 -5.595831e-07 -6.800077e-07
-2.481317e-05 2.111329e-05 2.098179e-07
-6.849796e-06 3.369985e-05 -2.244981e-22
1.131748e-05 -3.085054e-05 -6.828475e-07
-1.180651e-06 -3.388698e-05 -8.066841e-07
-1.174898e-06 3.393390e-05 -7.796964e-07
-3.355999e-05 5.372883e-06 7.582210e-07
-2.840968e-05 1.857269e-05 7.871663e-07
-3.090989e-05 -1.154708e-05 -7.832628e-07
-3.378205e-05 2.800461e-06 -8.117989e-07
1.775168e-05 -2.891192e-05 -7.960517e-07
-2.422137e-05 2.390098e-05 -7.286650e-07
-2.022030e-05 -2.715203e-05 -8.333524e-07
-7.411958e-06 3.358068e-05 -2.244981e-22
-2.022030e-05 2.715203e-05 -8.333524e-07
-1.440682e-05 -3.063555e-05 -8.333524e-07
-2.295742e-05 -2.366281e-05 7.661638e-07
2.703836e-05 1.843240e-05 5.284980e-07
1.546437e-05 2.889797e-05 -5.955103e-07
4.556021e-06 -3.361619e-05 -7.978581e-07
2.268278e-05 -2.523686e-05 7.927771e-07
1.182346e-05 3.058428e-05 6.121090e-07
6.490542e-06 3.214144e-05 6.122256e-07
-3.188793e-05 -7.641684e-06 -6.128432e-07
-7.972050e-06 3.345214e-05 -2.244981e-22
4.048615e-06 -3.255044e-05 -6.242885e-07
1.939426e-05 2.636744e-05 5.402602e-07
2.402094e-05 2.244680e-05 -6.964734e-07
3.026769e-05 -1.546941e-05 7.552582e-07
3.022429e-05 1.558931e-05 -7.438885e-07
-2.417752e-05 -2.204004e-05 -5.172605e-07
2.355701e-05 -2.438143e-05 -8.093284e-07
-2.737120e-05 1.808889e-05 6.318745e-07
-3.716569e-06 3.256435e-05 5.957019e-07
-3.716569e-06 -3.256435e-05 5.957019e-07
3.390992e-05 5.719891e-06 -2.244981e-22
-8.529917e-06 3.331426e-05 -2.244981e-22
2.874613e-05 -1.811264e-05 7.654387e-07
-2.278149e-05 -2.522296e-05 7.576865e-07
2.875289e-05 1.810091e-05 -7.657867e-07
-2.698277e-05 2.057357e-05 -7.933376e-07
2.148087e-05 2.479068e-05 -6.256551e-07
-3.050565e-05 1.509887e-05 7.214088e-07
1.612712e-05 -2.828873e-05 -1.132359e-07
7.171934e-06 -3.202422e-05 -6.412934e-07
2.754170e-05 -1.974372e-05 -8.172061e-07
2.862427e-05 -1.630438e-05 7.476253e-07
-9.085401e-06 3.316708e-05 -2.244981e-22
2.755214e-05 1.973895e-05 8.142773e-07
-2.827646e-05 -1.661814e-05 -6.209693e-07
-1.025482e-05 -3.102323e-05 4.505877e-07
-1.025482e-05 3.102323e-05 4.505877e-07
-1.622882e-05 2.835930e-05 4.512042e-07
-2.020533e-05 -2.567819e-05 4.512048e-07
-2.020533e-05 2.567819e-05 4.512048e-07
-1.898596e-05 -2.659244e-05 4.512048e-07
-1.898596e-05 2.659244e-05 4.512048e-07
-1.468572e-05 -2.918826e-05 4.512030e-07
-9.638349e-06 3.301063e-05 -2.244981e-22
-1.330867e-05 -2.984132e-05 4.512152e-07
-1.330867e-05 2.984132e-05 4.512152e-07
3.143238e-05 9.799555e-06 -7.348628e-07
3.143238e-05 -9.799555e-06 7.348628e-07
-3.131236e-05 -9.846941e-06 -6.480498e-07
2.408751e-05 -2.243251e-05 7.279795e-07
-2.647289e-05 -1.946333e-05 -6.800328e-07
1.392149e-05 2.972986e-05 6.517784e-07
-2.547833e-05 -2.086098e-05 7.382383e-07
-3.055130e-05 1.184501e-05 5.854932e-07
-1.018860e-05 3.284497e-05 -2.244981e-22
2.012614e-05 2.737034e-05 -7.674694e-07
2.008080e-05 -2.740571e-05 7.663688e-07
-8.012684e-06 3.293552e-05 8.127100e-07
-8.012684e-06 -3.293552e-05 8.127100e-07
3.299273e-05 3.447112e-06 8.660837e-07
3.299273e-05 -3.447112e-06 -8.660837e-07
-6.315583e-07 3.276830e-05 5.940984e-07
-3.248699e-05 4.039242e-06 -5.473221e-07
3.226887e-05 -7.266149e-06 8.268524e-07
3.226887e-05 7.266149e-06 -8.268524e-07
-1.073602e-05 3.267013e-05 -2.244981e-22
-2.304486e-05 2.485873e-05 8.121640e-07
-4.656362e-06 -3.360021e-05 7.991026e-07
-4.656362e-06 3.360021e-05 7.991026e-07
3.259090e-05 -7.967592e-07 2.832397e-07
3.259090e-05 7.967592e-07 -2.832397e-07
-3.186982e-05 1.186554e-05 -7.445005e-07
-2.666831e-05 2.101268e-05 7.811296e-07
-3.398691e-05 4.493628e-07 7.565016e-07
3.237863e-05 -5.543303e-06 6.726390e-07
3.237863e-05 5.543303e-06 -6.726390e-07
-1.128043e-05 3.248617e-05 -2.244981e-22
1.816694e-05 2.738940e-05 6.879262e-07
2.764897e-05 -1.796851e-05 -7.697347e-07
2.325513e-05 -2.357436e-05 8.437174e-07
-1.464165e-05 3.058418e-05 8.062975e-07
-1.464165e-05 -3.058418e-05 8.062975e-07
-2.044020e-05 2.705492e-05 8.062968e-07
-2.044020e-05 -2.705492e-05 8.062968e-07
-1.128197e-05 3.197746e-05 8.057333e-07
-1.128197e-05 -3.197746e-05 8.057333e-07
-1.742568e-05 -2.908944e-05 8.056598e-07
-1.182169e-05 3.229314e-05 -2.244981e-22
-1.742568e-05 2.908944e-05 8.056598e-07
1.947983e-05 -2.645945e-05 -6.790809e-07
1.542538e-05 2.911588e-05 7.528978e-07
-2.827571e-05 1.675875e-05 -6.899845e-07
-3.251340e-05 -7.925091e-06 9.165560e-07
2.236918e-05 2.555109e-05 7.764978e-07
1.825784e-05 -2.722517e-05 -6.011596e-07
1.218890e-05 3.116848e-05 -9.165675e-07
-9.642443e-06 -3.261204e-05 -7.440207e-07
-9.642443e-06 3.261204e-05 -7.440207e-07
-1.235965e-05 3.209110e-05 -2.244981e-22
-1.624186e-05 -2.987853e-05 -7.439906e-07
-1.594522e-05 3.003789e-05 -7.439906e-07
-2.186779e-05 2.604466e-05 -7.439906e-07
-1.887180e-05 -2.829098e-05 -7.439906e-07
-1.887180e-05 2.829098e-05 -7.439906e-07
-1.285861e-05 3.148309e-05 -7.439454e-07
-1.285861e-05 -3.148309e-05 -7.439454e-07
7.429956e-06 -3.261995e-05 9.164264e-07
6.496255e-06 3.282939e-05 -9.165605e-07
1.277214e-05 -3.149595e-05 7.584034e-07
-1.289416e-05 3.188009e-05 -2.244981e-22
2.780347e-05 1.757668e-05 -7.105432e-07
1.658668e-05 2.847115e-05 7.533998e-07
-3.192535e-05 1.150487e-05 7.912056e-07
2.196684e-05 -2.451226e-05 7.275978e-07
-3.120797e-05 9.353034e-06 -2.066978e-07
-2.433847e-05 -2.370292e-05 -7.675377e-07
3.235952e-05 8.413580e-06 9.158381e-07
3.235952e-05 -8.413580e-06 -9.158381e-07
1.582614e-05 -3.007126e-05 7.621190e-07
-3.086045e-05 -1.430420e-05 7.391556e-07
-1.342508e-05 3.166018e-05 -2.244981e-22
2.076094e-05 -2.529040e-05 -5.240174e-07
-3.279998e-05 -8.929262e-06 -7.538929e-07
-3.377634e-05 3.946088e-06 7.451700e-07
2.889219e-05 -1.520459e-05 4.021395e-07
2.778968e-05 -1.761120e-05 7.160364e-07
-3.130403e-05 -1.320730e-05 -7.657512e-07
-2.739484e-05 1.975467e-05 8.653139e-07
-2.386600e-05 2.252113e-05 -6.381674e-07
-2.681362e-05 -2.099225e-05 -7.087565e-07
1.920832e-05 -2.807541e-05 7.368723e-07
3.380960e-05 6.285721e-06 -2.244981e-22
-1.395224e-05 3.143143e-05 -2.244981e-22
-2.353150e-05 -2.254164e-05 -2.339816e-07
1.321570e-05 3.132078e-05 7.531190e-07
1.505548e-05 -3.055832e-05 6.985391e-07
2.948089e-05 -1.683974e-05 -7.814214e-07
2.520350e-05 -2.108529e-05 6.823705e-07
2.520516e-05 2.108690e-05 -6.844307e-07
-5.586429e-06 -3.233955e-05 -6.423388e-07
-5.586429e-06 3.233955e-05 -6.423388e-07
3.319887e-05 7.327377e-06 7.509720e-07
3.343883e-05 6.506294e-06 6.984326e-07
-1.447550e-05 3.119390e-05 -2.244981e-22
3.319887e-05 -7.327377e-06 -7.509720e-07
3.343883e-05 -6.506294e-06 -6.984326e-07
-2.672888e-05 -1.862891e-05 -2.101475e-07
2.419248e-05 2.396277e-05 7.106064e-07
1.113952e-05 3.212521e-05 -7.482555e-07
1.036316e-05 3.244711e-05 -7.018709e-07
7.896346e-06 3.307229e-05 -7.481486e-07
[...]
POINT_DATA 4747
VECTORS 10.000GHz_fone_imag double
-1.991392e-05 -3.972446e-05 1.845342e-02
1.317348e-04 -1.994903e-04 1.842636e-02
6.221099e-05 3.402449e-04 1.855990e-02
-2.909996e-04 7.282790e-03 -2.158805e-02
-1.478321e-02 7.922229e-03 9.485429e-03
-1.623621e-02 4.010913e-03 9.066349e-03
-2.267145e-04 -4.261045e-03 -2.254000e-02
-4.798185e-04 3.891102e-03 -2.254456e-02
-1.155961e-02 1.198607e-02 9.749478e-03
-1.207387e-02 -1.407589e-02 6.977667e-03
-7.018736e-03 -4.383732e-03 -2.114420e-02
-1.820388e-02 2.134775e-03 7.662019e-03
1.820712e-02 2.140498e-03 7.656346e-03
1.195656e-04 -3.649602e-04 1.842331e-02
1.618152e-02 1.791969e-03 -1.424060e-02
-1.617252e-02 1.787416e-03 -1.424543e-02
-1.928190e-02 1.153568e-03 -9.222848e-03
1.928066e-02 1.176410e-03 -9.232318e-03
5.151324e-03 -1.633372e-02 8.682789e-03
5.468521e-03 -1.584201e-02 9.349212e-03
-1.402659e-02 4.014129e-03 -1.713773e-02
4.856855e-03 4.462973e-04 -2.225173e-02
9.719969e-03 -1.452425e-02 8.580601e-03
3.806777e-03 8.696843e-04 -2.236843e-02
5.935300e-05 1.549517e-04 1.837266e-02
7.257776e-04 3.612636e-03 -2.258993e-02
-1.822116e-02 2.069176e-03 7.290158e-03
1.411812e-03 3.691246e-03 -2.233370e-02
-1.613717e-02 -8.549611e-03 7.387004e-03
-1.270363e-03 -1.751261e-02 8.294588e-03
-1.241383e-03 1.758038e-02 8.192346e-03
-1.578738e-02 -7.334119e-03 8.446072e-03
1.580099e-02 -7.361656e-03 8.468137e-03
-1.281307e-02 1.592671e-02 -4.870762e-03
-1.689023e-02 3.678813e-03 9.000613e-03
-6.790528e-05 -8.100029e-05 1.834155e-02
1.689036e-02 3.654949e-03 9.061344e-03
1.169894e-02 -7.528439e-03 -1.748102e-02
4.856968e-03 -1.717070e-02 8.275026e-03
1.177181e-02 4.395239e-03 -1.823048e-02
1.722988e-02 -3.779284e-05 8.714388e-03
1.364370e-02 -1.187551e-02 7.968685e-03
1.447150e-02 -6.644994e-03 -1.524038e-02
-1.611699e-02 4.641968e-04 1.064905e-02
1.620285e-02 4.320666e-04 1.062982e-02
2.039323e-02 1.200349e-03 -5.203560e-03
3.483197e-05 -2.716120e-04 1.838996e-02
-1.624780e-02 -6.061128e-03 8.752746e-03
1.615223e-02 -5.976090e-03 8.880108e-03
-6.833936e-03 1.933764e-02 -4.442847e-03
4.989446e-04 6.386777e-03 -2.197426e-02
-7.045055e-04 5.966511e-03 -2.200485e-02
-1.362201e-02 -1.196856e-02 7.578913e-03
-8.476529e-03 1.355286e-02 -1.538216e-02
1.369689e-02 -1.181873e-02 7.474343e-03
-1.409478e-02 9.503338e-03 -1.371075e-02
-8.881674e-05 3.047683e-04 -2.266798e-02
1.277533e-04 -9.066791e-05 1.838081e-02
-9.590449e-05 -2.994000e-04 -2.266452e-02
4.170969e-04 1.749427e-02 -1.316143e-02
-1.197695e-02 -1.238348e-02 8.520448e-03
-1.586338e-02 -5.619357e-03 9.583066e-03
-1.380286e-02 7.401166e-03 -1.562595e-02
1.229746e-02 -1.011710e-02 -1.522925e-02
-1.232382e-02 -1.002879e-02 -1.526578e-02
-1.515292e-02 -9.968458e-04 -1.591275e-02
-1.410947e-02 1.011185e-02 9.125906e-03
-5.787180e-03 -7.114015e-03 -2.088832e-02
5.798337e-05 8.323390e-05 1.829350e-02
1.357682e-02 1.018480e-02 8.991275e-03
-2.762741e-03 -1.544120e-02 1.072752e-02
-2.763125e-03 1.544137e-02 1.072796e-02
-1.518334e-02 -7.157633e-03 -1.435765e-02
4.387381e-05 1.642458e-02 -1.479767e-02
-2.329000e-03 -1.613479e-02 -1.476335e-02
1.878306e-02 -5.208603e-03 -9.361922e-03
-1.315045e-03 -1.645992e-02 1.011378e-02
-1.638713e-02 -1.592290e-04 -1.496620e-02
3.843164e-03 -3.077576e-03 -2.208345e-02
-1.793934e-04 -1.421246e-04 1.826089e-02
5.466280e-03 -1.527748e-02 -1.496976e-02
-6.116075e-04 -1.737456e-02 8.693472e-03
-5.912467e-04 1.676438e-02 9.897868e-03
1.593752e-02 -2.431291e-03 1.028054e-02
1.436778e-02 -9.368109e-03 9.352121e-03
-1.690777e-02 -6.476663e-03 -1.179196e-02
-1.730848e-02 1.294264e-03 8.822973e-03
9.171224e-03 -1.493189e-02 8.835615e-03
-1.091276e-02 1.072738e-02 1.107897e-02
-1.063728e-02 -1.430969e-02 7.878806e-03
2.389809e-04 9.011599e-06 1.850111e-02
-1.074636e-02 1.441488e-02 7.767173e-03
-7.667732e-03 -1.627011e-02 7.773872e-03
1.284408e-02 1.283103e-02 -1.201220e-02
-1.035060e-02 -6.953254e-03 -1.851442e-02
6.599661e-03 1.207890e-02 -1.759418e-02
2.694868e-03 -1.712231e-02 8.679122e-03
-1.140896e-02 1.281109e-02 9.185487e-03
-5.217525e-03 -1.317705e-02 -1.690302e-02
-2.923170e-03 -1.445077e-02 -1.675578e-02
-1.374531e-02 -3.408573e-03 -1.697193e-02
-1.530271e-04 2.225199e-04 1.847640e-02
1.886725e-03 -1.452290e-02 -1.648203e-02
-7.413812e-03 -1.028809e-02 -1.888603e-02
1.210052e-02 1.117399e-02 -1.461527e-02
-1.421019e-02 7.297539e-03 1.077467e-02
1.393060e-02 7.409075e-03 1.087122e-02
-9.137647e-03 -8.630305e-03 -1.849240e-02
1.192037e-02 -1.271421e-02 8.744545e-03
1.260790e-02 -8.385642e-03 -1.623304e-02
1.367703e-03 -1.388376e-02 -1.735171e-02
1.363336e-03 1.387608e-02 -1.732543e-02
1.437096e-04 4.765985e-05 1.862363e-02
7.556471e-05 7.317791e-05 1.842504e-02
-1.350608e-02 8.769126e-03 1.042268e-02
1.120170e-02 1.209807e-02 1.031439e-02
1.371307e-02 8.759541e-03 1.034392e-02
-1.371803e-02 1.059656e-02 9.157814e-03
9.803961e-03 1.142506e-02 -1.650522e-02
1.366194e-02 -6.770956e-03 1.137966e-02
1.430977e-03 -2.132676e-03 -2.246475e-02
3.524060e-03 -1.478359e-02 -1.596866e-02
1.429080e-02 -1.036112e-02 8.433104e-03
-1.536351e-02 8.444793e-03 -1.292462e-02
-1.789162e-04 2.204653e-04 1.852603e-02
-1.433112e-02 -1.037294e-02 8.612881e-03
-1.255329e-02 -7.238389e-03 -1.682860e-02
3.259140e-03 1.062607e-02 -1.935444e-02
3.290905e-03 -1.062730e-02 -1.933249e-02
5.302671e-03 -9.637014e-03 -1.947502e-02
6.671360e-03 8.230898e-03 -1.935090e-02
6.795022e-03 -8.338531e-03 -1.945188e-02
6.217734e-03 8.697527e-03 -1.966335e-02
6.106014e-03 -8.814779e-03 -1.954575e-02
5.059359e-03 9.516256e-03 -1.941787e-02
-1.180928e-04 9.093796e-06 1.835226e-02
4.236315e-03 9.877572e-03 -1.953480e-02
4.103877e-03 -9.842482e-03 -1.954766e-02
1.665747e-02 5.301789e-03 -1.335901e-02
-1.637395e-02 5.214508e-03 -1.355061e-02
-1.438427e-02 -4.545101e-03 -1.590329e-02
-1.246537e-02 1.207652e-02 -1.318125e-02
-1.323489e-02 -9.551323e-03 -1.494628e-02
-6.489934e-03 -1.374640e-02 -1.578104e-02
1.334051e-02 1.111970e-02 -1.337038e-02
1.300738e-02 -4.995410e-03 -1.709524e-02
-1.330948e-04 -1.417181e-04 1.842803e-02
1.003237e-02 1.342302e-02 9.647073e-03
-9.745206e-03 1.349076e-02 9.874880e-03
4.029566e-03 -1.705689e-02 8.822859e-03
4.030263e-03 1.705907e-02 8.824648e-03
-1.983811e-02 -1.971685e-03 -7.541045e-03
1.984425e-02 -1.963393e-03 -7.539626e-03
4.239550e-04 -1.458934e-02 -1.696149e-02
-1.347512e-02 1.851890e-03 -1.785432e-02
-1.852317e-02 4.297953e-03 -1.016631e-02
1.853643e-02 4.304807e-03 -1.018107e-02
9.024572e-05 -1.604879e-05 1.863066e-02
1.202105e-02 -1.277412e-02 8.774107e-03
2.580186e-03 1.697223e-02 9.091858e-03
2.576769e-03 -1.696975e-02 9.094348e-03
-6.415495e-03 -3.734335e-05 -2.194933e-02
6.339611e-03 -8.383564e-05 -2.192730e-02
-1.518547e-02 5.596468e-03 1.065565e-02
1.308048e-02 -1.026463e-02 9.813194e-03
1.623480e-02 -1.290864e-04 1.043658e-02
-1.574783e-02 2.611186e-03 -1.524239e-02
1.577384e-02 2.600269e-03 -1.514542e-02
-9.890792e-05 -4.357491e-05 1.841030e-02
-8.777527e-03 -1.357091e-02 -1.517775e-02
1.509677e-02 -9.799235e-03 -1.190339e-02
-1.367616e-02 1.381228e-02 -8.746271e-03
7.444644e-03 -1.575898e-02 8.859701e-03
7.492179e-03 1.548136e-02 9.068419e-03
1.044678e-02 -1.368578e-02 9.074720e-03
1.034162e-02 1.370217e-02 9.025586e-03
5.445181e-03 -1.646862e-02 8.756896e-03
5.511847e-03 1.647274e-02 8.784496e-03
9.016395e-03 1.490586e-02 8.683966e-03
6.523225e-05 -4.894005e-04 1.848292e-02
8.733873e-03 -1.507997e-02 8.736091e-03
9.354065e-03 -1.266771e-02 -1.524783e-02
-8.406598e-03 -1.522180e-02 -1.287044e-02
-1.406007e-02 8.603411e-03 -1.454172e-02
1.996595e-02 4.863198e-03 -1.190344e-03
-1.086087e-02 -1.253250e-02 9.669707e-03
8.055347e-03 -1.220859e-02 -1.708570e-02
7.174697e-03 1.911144e-02 -1.194784e-03
-4.604132e-03 -1.524750e-02 1.084582e-02
-4.610893e-03 1.524731e-02 1.085142e-02
1.596662e-04 -2.251770e-04 1.846000e-02
-7.591254e-03 -1.411284e-02 1.064342e-02
-7.445142e-03 1.399134e-02 1.095740e-02
-1.015703e-02 1.210809e-02 1.069063e-02
-8.738619e-03 -1.332709e-02 1.057267e-02
-8.488799e-03 1.331451e-02 1.074581e-02
-5.926069e-03 1.463189e-02 1.092838e-02
-5.659636e-03 -1.473448e-02 1.074757e-02
-4.537487e-03 1.996438e-02 -1.355238e-03
4.444108e-03 1.994677e-02 -1.158814e-03
-6.068868e-03 1.508173e-02 1.039468e-02
2.297398e-04 -4.331085e-05 1.826186e-02
1.399200e-02 8.847161e-03 -1.437774e-02
-8.499206e-03 -1.527459e-02 -1.290946e-02
1.598638e-02 -5.643223e-03 9.481578e-03
-1.145941e-02 1.295544e-02 -1.373765e-02
-5.007537e-03 1.481351e-03 -2.227919e-02
-1.147067e-02 -1.124601e-02 1.031182e-02
-1.966599e-02 -5.143140e-03 -1.709269e-03
1.966146e-02 -5.162164e-03 -1.720901e-03
-7.688209e-03 1.442280e-02 1.031451e-02
1.416146e-02 6.869377e-03 1.120697e-02
-1.907921e-04 1.516754e-04 1.826665e-02
7.817511e-03 -9.752154e-03 -1.851913e-02
-1.589804e-02 -4.134685e-03 1.018937e-02
1.581114e-02 -1.971239e-03 1.079202e-02
-8.231997e-03 4.466712e-03 -2.078466e-02
-1.404351e-02 8.910829e-03 -1.419844e-02
-1.535581e-02 -6.488318e-03 1.009487e-02
1.562454e-02 -1.119901e-02 5.561830e-03
-1.097698e-02 1.051583e-02 -1.582368e-02
-1.210308e-02 -9.393047e-03 1.139852e-02
-8.739961e-03 1.305851e-02 1.108059e-02
6.162275e-06 4.227047e-04 1.841706e-02
-1.172098e-04 1.144633e-04 1.854679e-02
-4.044625e-03 -3.617116e-03 -2.218436e-02
-6.181725e-03 -1.510830e-02 1.009205e-02
-6.362058e-03 1.338251e-02 1.216980e-02
1.449779e-02 -8.398151e-03 9.710201e-03
-1.268207e-02 1.051487e-02 -1.525496e-02
1.259341e-02 1.055790e-02 -1.545186e-02
-2.775383e-03 -1.514260e-02 -1.587849e-02
-2.774338e-03 1.514470e-02 -1.587871e-02
-1.599118e-02 -3.461168e-03 1.037994e-02
-1.484350e-02 -2.779491e-03 1.157218e-02
-1.885728e-04 -2.844748e-04 1.843735e-02
1.596695e-02 -3.447401e-03 1.040738e-02
1.476497e-02 -2.847957e-03 1.169172e-02
-4.376706e-03 -2.954308e-03 -2.211758e-02
-1.057278e-02 -1.061960e-02 1.138998e-02
5.738787e-03 1.543097e-02 1.024686e-02
4.293847e-03 1.437900e-02 1.185869e-02
3.715924e-03 1.563180e-02 1.063337e-02
3.814923e-03 1.460203e-02 1.177704e-02
1.054921e-02 -1.203837e-02 1.043537e-02
1.707209e-03 1.704282e-02 9.333954e-03
5.545413e-05 -2.601793e-04 1.843819e-02
1.476451e-03 1.505829e-02 1.222414e-02
-1.264904e-03 1.695141e-02 9.482715e-03
-1.316101e-03 1.495905e-02 1.180607e-02
-2.759669e-03 1.588119e-02 1.055659e-02
-2.321073e-03 1.474807e-02 1.183256e-02
-2.063531e-02 -3.952275e-04 -3.713206e-03
2.065497e-02 -4.328832e-04 -3.618940e-03
-6.055295e-03 1.348367e-02 1.210640e-02
1.624439e-02 3.273326e-03 1.051922e-02
1.479119e-02 2.373526e-03 1.200160e-02
3.714857e-04 -1.322496e-04 1.856841e-02
1.654375e-02 1.688439e-03 1.026398e-02
1.506766e-02 1.702616e-03 1.168418e-02
7.603203e-03 1.417366e-02 1.069621e-02
6.505188e-03 1.345825e-02 1.197808e-02
1.419250e-02 -6.126838e-03 1.076468e-02
1.132059e-02 -3.253170e-05 -1.913337e-02
3.117651e-04 -1.648779e-02 -1.432373e-02
1.051851e-02 1.163878e-02 1.085364e-02
1.013007e-02 1.121886e-02 1.151394e-02
-1.420681e-02 -8.316374e-03 9.914351e-03
-3.371529e-05 6.228427e-05 1.827740e-02
-2.994105e-03 -1.563511e-02 1.085483e-02
-1.488404e-02 6.218338e-03 1.040384e-02
1.549285e-02 5.817833e-03 1.013392e-02
1.443044e-02 4.668969e-03 1.182415e-02
-1.544113e-02 -1.008697e-02 -1.085184e-02
-1.529917e-02 -4.898590e-03 1.048282e-02
1.157294e-02 9.759199e-03 1.120394e-02
-1.159646e-02 9.820287e-03 1.132623e-02
7.955117e-03 1.379206e-02 1.091416e-02
-8.018644e-03 -1.252960e-02 1.189092e-02
-3.517815e-05 -1.456460e-04 1.843426e-02
-3.474761e-03 -1.524647e-02 -1.521856e-02
-3.475140e-03 1.524878e-02 -1.522006e-02
-1.090710e-02 1.135088e-02 -1.518337e-02
-7.142145e-03 -1.450386e-02 1.009964e-02
1.164690e-02 -1.321890e-02 -1.280426e-02
-1.920467e-02 5.123596e-04 -1.002028e-02
1.673922e-02 -5.554006e-03 -1.236230e-02
-1.695311e-02 -5.243159e-03 -1.220897e-02
7.146037e-03 -3.369447e-03 -2.105209e-02
1.572738e-02 -8.354563e-03 -1.242253e-02
1.187483e-04 7.172956e-05 1.869204e-02
1.522745e-02 -4.873078e-03 -1.498875e-02
-1.811530e-02 1.468559e-03 -1.245586e-02
-1.565573e-02 -6.453270e-03 -1.381644e-02
-1.083714e-02 -1.001377e-02 1.173759e-02
-7.957656e-05 1.626130e-02 1.035772e-02
3.899461e-04 1.513108e-02 1.166211e-02
-1.460391e-02 2.330826e-05 1.179164e-02
-1.666391e-02 2.776111e-03 -1.417810e-02
8.303534e-03 1.189315e-02 1.200877e-02
2.311811e-04 -1.608476e-02 1.030291e-02
-1.284047e-04 6.352890e-05 1.848291e-02
-7.267383e-03 1.603633e-02 -1.298415e-02
-6.943218e-03 9.702654e-03 -1.908520e-02
1.541102e-04 1.081615e-02 -1.972016e-02
5.840051e-04 1.788569e-05 -2.296216e-02
-6.630792e-03 1.387252e-02 -1.574394e-02
1.955389e-02 -2.446811e-03 -7.886754e-03
1.375289e-02 -6.410292e-03 1.167677e-02
-1.324729e-02 8.392696e-03 1.079684e-02
1.327851e-02 6.744150e-03 1.210200e-02
1.465162e-02 1.149412e-02 -1.095545e-02
4.189322e-05 -4.139756e-04 1.857686e-02
-1.472183e-02 1.162310e-02 -1.081487e-02
1.684894e-02 -2.413722e-03 -1.382410e-02
-2.402973e-03 -1.522052e-02 1.155825e-02
-2.404109e-03 1.521900e-02 1.155669e-02
-1.311809e-02 3.452972e-03 -1.798693e-02
1.308685e-02 3.418241e-03 -1.799193e-02
-6.448467e-03 -2.996144e-03 -2.152780e-02
6.207631e-03 -3.146906e-03 -2.162164e-02
-1.375766e-02 -6.396838e-03 1.164457e-02
1.349342e-02 8.242607e-03 1.089056e-02
3.865468e-04 -3.106000e-04 1.850651e-02
-9.782568e-03 1.175020e-02 1.139331e-02
1.666709e-02 8.182349e-04 9.558061e-03
1.448988e-02 6.140512e-03 1.114907e-02
1.264654e-03 1.499511e-02 1.118059e-02
1.301257e-03 -1.491907e-02 1.118811e-02
1.608535e-02 8.859296e-03 -1.092357e-02
1.094144e-02 -8.926958e-03 1.241463e-02
1.180760e-02 1.048862e-02 1.060503e-02
-1.591815e-02 -7.161723e-04 1.076543e-02
-1.378144e-02 -8.644855e-03 1.049434e-02
-3.194734e-04 -4.241979e-05 1.850884e-02
1.264229e-04 4.732809e-05 1.839096e-02
1.169353e-02 5.953954e-03 -1.822953e-02
1.317743e-03 -1.571331e-02 -1.496224e-02
7.089260e-03 7.884258e-03 -1.993680e-02
1.354223e-02 1.278507e-02 -1.152088e-02
-4.475388e-03 -3.588378e-03 -2.194585e-02
1.012597e-02 1.515053e-02 -1.177816e-02
1.216287e-02 5.277858e-03 -1.809853e-02
-1.215940e-02 5.268946e-03 -1.806447e-02
-1.035126e-02 1.742331e-02 -3.925804e-03
-1.086966e-02 -8.737169e-03 1.244246e-02
-1.384507e-05 3.151899e-04 1.848345e-02
-1.339032e-02 4.773008e-03 -1.700304e-02
1.340477e-02 4.971887e-03 -1.689321e-02
1.524840e-02 4.209999e-03 1.113739e-02
9.201038e-03 -3.623758e-03 -2.021860e-02
1.001456e-02 1.056618e-02 -1.689841e-02
-1.526464e-02 1.001757e-02 -1.152789e-02
1.408357e-02 -7.972427e-03 -1.507914e-02
1.157702e-02 -1.100284e-02 -1.508445e-02
-1.153196e-02 9.514446e-03 -1.610629e-02
1.732350e-02 5.194383e-03 -1.214133e-02
-4.149567e-04 1.520646e-05 1.858449e-02
7.493865e-03 1.646644e-02 -1.221266e-02
-7.520538e-03 -1.240176e-02 1.230624e-02
5.318365e-03 1.720385e-02 -1.184379e-02
4.658664e-03 1.748634e-02 -1.183156e-02
1.738343e-02 5.629471e-03 -1.192864e-02
-5.315801e-03 1.733382e-02 -1.200183e-02
-2.153260e-03 1.805408e-02 -1.182871e-02
2.412401e-03 1.798769e-02 -1.195271e-02
-2.702681e-03 1.802371e-02 -1.198952e-02
2.639293e-03 1.802294e-02 -1.190858e-02
1.708477e-04 -1.720684e-04 1.846537e-02
-4.957290e-03 1.732956e-02 -1.196500e-02
7.922713e-03 1.641496e-02 -1.201772e-02
6.303894e-03 1.454753e-02 1.122894e-02
3.388745e-03 -1.543332e-02 1.062249e-02
1.788548e-02 3.015587e-03 -1.173564e-02
1.484512e-02 -2.678034e-03 1.171993e-02
1.792687e-02 2.410981e-03 -1.194637e-02
3.525956e-03 3.968003e-04 -2.238803e-02
-3.517396e-03 3.579319e-04 -2.239230e-02
2.246852e-03 1.520097e-02 1.127783e-02
5.064995e-05 -1.242759e-04 1.839611e-02
-4.135269e-03 1.519337e-02 1.105240e-02
-4.683362e-03 1.477159e-02 1.132198e-02
8.222539e-04 -1.481325e-02 1.167552e-02
5.953904e-03 4.804035e-03 -2.126237e-02
1.752387e-02 -3.255361e-03 -1.275024e-02
-1.782550e-02 -3.367246e-03 -1.277408e-02
-1.459528e-02 -3.583638e-03 1.218726e-02
1.446628e-02 2.143735e-03 1.215494e-02
-1.447079e-02 2.167668e-03 1.218855e-02
-1.292403e-02 -1.058680e-02 -1.429464e-02
2.578084e-04 6.014177e-05 1.862459e-02
2.311250e-03 -1.398925e-02 1.232909e-02
2.491019e-04 -6.931057e-03 -2.143648e-02
-2.511052e-04 -7.127965e-03 -2.153717e-02
-9.134872e-03 -1.291993e-02 1.096439e-02
-9.429004e-04 9.031033e-04 -2.272117e-02
9.116602e-03 -1.280135e-02 1.084426e-02
-1.577439e-02 5.751853e-03 -1.443982e-02
8.546333e-03 -1.805910e-02 -6.760478e-03
-5.440635e-03 -1.399484e-02 1.208470e-02
-5.873601e-03 -9.166703e-03 -1.943677e-02
-2.416499e-04 2.019802e-04 1.841819e-02
-3.504838e-04 2.668675e-03 -2.259422e-02
-1.499635e-02 4.175659e-03 1.120995e-02
1.507533e-02 4.166894e-03 1.117824e-02
1.017307e-02 -1.016265e-02 1.247855e-02
9.546822e-03 1.458916e-02 -1.321770e-02
1.352935e-02 -1.079355e-02 -1.338449e-02
9.501795e-03 -1.134786e-02 1.173435e-02
-1.456931e-02 6.687715e-03 -1.525614e-02
1.068512e-02 -1.018366e-02 1.191909e-02
-5.168302e-03 1.504712e-02 1.076660e-02
-2.969977e-05 2.701141e-05 1.846049e-02
-1.303233e-02 5.798049e-03 1.222665e-02
-1.398468e-02 2.776850e-03 1.256752e-02
1.391141e-02 2.809016e-03 1.255060e-02
-5.253651e-04 4.428125e-04 -2.284088e-02
-6.313818e-04 2.973585e-04 -2.286699e-02
1.489225e-02 4.041285e-03 1.162619e-02
-5.937166e-04 -3.870113e-04 -2.294947e-02
-5.268813e-04 3.176121e-04 -2.298356e-02
-1.572798e-02 6.720864e-03 -1.408259e-02
1.187551e-03 1.102278e-03 -2.277550e-02
2.057534e-05 3.058806e-04 1.847523e-02
1.525648e-02 -2.293292e-03 1.159222e-02
-1.522550e-02 -2.329420e-03 1.159539e-02
-7.611241e-04 2.061639e-02 -2.739380e-03
8.046972e-03 1.296820e-02 1.158003e-02
8.877409e-04 1.530250e-02 1.113171e-02
5.529752e-03 -1.313018e-02 1.259253e-02
5.643584e-03 1.326937e-02 1.243065e-02
8.168998e-03 1.184857e-02 1.250588e-02
8.183093e-03 -1.187705e-02 1.243432e-02
9.018410e-03 -1.105642e-02 1.247901e-02
-3.315083e-04 1.201415e-04 1.840229e-02
9.104634e-03 1.110453e-02 1.235216e-02
6.504282e-03 1.268477e-02 1.232289e-02
6.685081e-03 -1.264024e-02 1.238024e-02
-1.712762e-02 -4.954707e-03 -1.259865e-02
3.999051e-03 1.375869e-02 1.248493e-02
3.993274e-03 -1.375488e-02 1.248017e-02
8.566674e-04 2.066914e-02 -2.565078e-03
5.963024e-03 1.423722e-02 1.164235e-02
-1.344387e-03 -1.455552e-02 -1.633655e-02
1.298496e-02 -4.706003e-03 1.270241e-02
6.501295e-05 -1.412091e-04 1.845944e-02
-1.751708e-06 1.081252e-04 1.837415e-02
-1.310183e-02 -4.697121e-03 1.265935e-02
-1.389098e-02 2.715992e-03 1.242159e-02
-1.167082e-02 -1.141203e-02 -1.448017e-02
2.772339e-03 1.514144e-02 1.149023e-02
-3.455058e-03 1.481736e-02 1.167506e-02
-3.288652e-03 1.358853e-02 1.260030e-02
-3.286843e-03 -1.358823e-02 1.260100e-02
1.520908e-02 -7.201130e-04 -1.577738e-02
-9.521468e-03 -1.048012e-02 1.227880e-02
-1.167285e-02 -1.313876e-02 -1.273784e-02
-8.561961e-05 9.433745e-05 1.851651e-02
1.548589e-02 7.370837e-03 -1.407771e-02
1.227367e-02 -7.922427e-03 1.216905e-02
-7.232805e-03 -1.613041e-02 -1.285999e-02
5.867201e-03 -1.339923e-02 1.232746e-02
1.923591e-02 3.252274e-04 -9.331943e-03
-1.111316e-02 9.879799e-03 1.179258e-02
-3.027346e-03 -3.165804e-03 -2.218884e-02
-9.393453e-03 1.024868e-02 1.256708e-02
-1.458340e-03 -1.827928e-02 -1.148942e-02
-1.549439e-03 1.819344e-02 -1.155787e-02
-1.193974e-04 -4.999267e-05 1.831821e-02
3.567957e-03 1.348196e-02 1.298405e-02
3.565335e-03 -1.347858e-02 1.298208e-02
-1.369776e-02 -4.339421e-03 1.223167e-02
1.381525e-02 -4.438324e-03 1.219387e-02
1.703445e-02 -3.172221e-03 -1.263302e-02
-2.949382e-03 -1.836191e-02 -1.119971e-02
1.574964e-02 -9.245510e-03 -1.168046e-02
1.905540e-02 7.576213e-03 -2.751379e-03
-1.389080e-02 4.894502e-03 1.176368e-02
1.407569e-02 4.452279e-03 1.161695e-02
-5.958105e-05 -9.318787e-06 1.829754e-02
-1.641683e-03 -1.367922e-02 1.283699e-02
1.512713e-02 8.677533e-04 1.136820e-02
-1.511455e-02 8.691890e-04 1.135212e-02
1.348529e-02 9.744890e-03 -1.446321e-02
3.796156e-03 -1.334074e-02 1.300375e-02
-1.201100e-02 -1.505454e-02 -9.959638e-03
-1.384940e-02 -2.324997e-03 1.272226e-02
-1.227051e-02 7.088918e-03 1.269398e-02
-1.224503e-02 -8.044673e-03 1.216001e-02
-1.437991e-02 -3.901175e-03 1.227668e-02
3.497623e-05 8.745102e-05 1.846138e-02
1.419516e-02 -3.877592e-03 1.244015e-02
-1.431186e-02 4.319809e-03 1.146228e-02