# vtk DataFile Version 2.0
Electric current density generated by TTH
ASCII
DATASET UNSTRUCTURED_GRID
POINTS 26760 double
-5.000000e-04 -5.000000e-04 -2.000000e-07
-7.500000e-05 -5.000000e-06 -2.000000e-07
-4.830994e-04 -5.000000e-04 -2.000000e-07
3.782821e-04 5.000000e-04 -2.000000e-07
-1.172190e-06 -4.845654e-04 -2.000000e-07
-2.011074e-04 -6.630211e-05 -2.000000e-07
7.755822e-05 -1.306644e-04 -2.000000e-07
-4.718700e-04 -4.998543e-04 -2.000000e-07
-7.534076e-05 5.057251e-06 -2.000000e-07
-7.541337e-05 -9.431263e-06 -2.000000e-07
-4.889019e-04 -4.977186e-04 -2.000000e-07
-1.667461e-04 1.317469e-05 -2.000000e-07
3.841429e-04 4.966487e-04 -2.000000e-07
-4.348843e-04 -4.653154e-04 -2.000000e-07
3.739875e-04 5.000000e-04 -2.000000e-07
-4.268229e-04 -4.600927e-04 -2.000000e-07
-7.188050e-06 -1.550292e-04 -2.000000e-07
1.163170e-04 -6.175755e-06 -2.000000e-07
4.226553e-04 5.471054e-05 -2.000000e-07
-4.825366e-04 -4.968269e-04 -2.000000e-07
-3.726598e-04 -4.943690e-04 -2.000000e-07
-4.974684e-04 -4.914600e-04 -2.000000e-07
-1.863265e-04 -4.575191e-04 -2.000000e-07
-4.914705e-04 -4.945576e-04 -2.000000e-07
-3.836130e-04 2.206145e-04 -2.000000e-07
3.693753e-04 5.000000e-04 -2.000000e-07
9.797315e-05 6.605026e-06 -2.000000e-07
-3.109999e-04 -4.984583e-04 -2.000000e-07
-2.775807e-04 -2.313302e-05 -2.000000e-07
-4.513629e-05 -9.503046e-05 -2.000000e-07
4.773764e-04 4.990026e-04 -2.000000e-07
3.375703e-04 8.144344e-05 -2.000000e-07
-4.854955e-04 -4.987366e-04 -2.000000e-07
3.850846e-04 -9.469669e-06 -2.000000e-07
7.544968e-05 -1.013460e-05 -2.000000e-07
8.076695e-05 -1.077311e-04 -2.000000e-07
3.644221e-04 5.000000e-04 -2.000000e-07
7.529899e-05 -9.420741e-06 -2.000000e-07
-4.929885e-04 -4.979834e-04 -2.000000e-07
7.728530e-05 3.714975e-05 -2.000000e-07
7.560825e-05 -1.595185e-05 -2.000000e-07
4.988756e-04 4.961096e-04 -2.000000e-07
3.139964e-04 -1.951396e-04 -2.000000e-07
-2.868595e-04 -4.952275e-04 -2.000000e-07
3.640387e-04 -1.747042e-05 -2.000000e-07
-4.751720e-04 -4.988657e-04 -2.000000e-07
-4.975929e-04 -4.990621e-04 -2.000000e-07
3.590976e-04 5.000000e-04 -2.000000e-07
-4.447848e-05 9.270625e-05 -2.000000e-07
3.029768e-04 -4.647219e-05 -2.000000e-07
2.393801e-04 -8.595998e-06 -2.000000e-07
-7.889605e-05 -5.389193e-06 -2.000000e-07
-3.720644e-04 -2.116856e-05 -2.000000e-07
1.068279e-04 -9.104442e-06 -2.000000e-07
-4.834598e-04 -1.585328e-04 -2.000000e-07
-8.405616e-05 -5.229488e-05 -2.000000e-07
-4.977212e-04 -4.998440e-04 -2.000000e-07
-4.897058e-04 -4.994514e-04 -2.000000e-07
3.533295e-04 5.000000e-04 -2.000000e-07
-4.923539e-04 -4.995080e-04 -2.000000e-07
4.988091e-04 4.998460e-04 -2.000000e-07
4.964787e-04 -4.996253e-04 -2.000000e-07
7.638205e-05 -2.848552e-05 -2.000000e-07
8.462340e-05 -5.573691e-06 -2.000000e-07
1.180973e-04 -2.478598e-04 -2.000000e-07
-9.296593e-05 8.058773e-06 -2.000000e-07
-4.070010e-04 -4.958339e-04 -2.000000e-07
1.178475e-04 -7.956424e-06 -2.000000e-07
-3.321736e-04 1.403970e-04 -2.000000e-07
3.470700e-04 5.000000e-04 -2.000000e-07
-2.797834e-04 -4.808114e-04 -2.000000e-07
-4.371184e-04 -4.965858e-04 -2.000000e-07
-1.616128e-04 6.756965e-06 -2.000000e-07
4.712073e-04 -3.835823e-04 -2.000000e-07
-4.640533e-04 -4.446896e-04 -2.000000e-07
1.102700e-04 -1.095835e-05 -2.000000e-07
1.090825e-04 -1.302590e-05 -2.000000e-07
7.566826e-05 -1.447896e-05 -2.000000e-07
4.931951e-04 2.977749e-04 -2.000000e-07
-2.545679e-04 -4.807395e-04 -2.000000e-07
3.402774e-04 5.000000e-04 -2.000000e-07
-2.476819e-04 -4.807328e-04 -2.000000e-07
-2.445823e-04 -4.852244e-04 -2.000000e-07
-2.500760e-04 -4.845418e-04 -2.000000e-07
4.990624e-04 4.933999e-04 -2.000000e-07
-7.549754e-05 -1.144711e-05 -2.000000e-07
-4.909603e-04 -4.997464e-04 -2.000000e-07
7.515349e-05 -7.012731e-06 -2.000000e-07
-4.778996e-04 -4.967996e-04 -2.000000e-07
-8.699142e-05 -7.420637e-06 -2.000000e-07
-7.580388e-05 1.870093e-05 -2.000000e-07
3.329063e-04 5.000000e-04 -2.000000e-07
1.505432e-04 7.875105e-06 -2.000000e-07
4.652093e-04 4.862711e-05 -2.000000e-07
-9.403983e-05 8.422474e-05 -2.000000e-07
1.055910e-04 -6.211449e-06 -2.000000e-07
-1.901643e-04 -4.932481e-04 -2.000000e-07
-8.966696e-05 5.795457e-06 -2.000000e-07
-3.592824e-04 -4.902076e-04 -2.000000e-07
-3.939752e-04 -1.102972e-05 -2.000000e-07
1.584794e-04 -1.668195e-05 -2.000000e-07
-1.390566e-04 -1.186333e-05 -2.000000e-07
3.249135e-04 5.000000e-04 -2.000000e-07
-4.733748e-04 -4.969870e-04 -2.000000e-07
1.026555e-04 -6.593077e-06 -2.000000e-07
2.375415e-04 2.683685e-05 -2.000000e-07
4.398698e-04 -4.128538e-05 -2.000000e-07
4.474458e-04 -3.487485e-05 -2.000000e-07
7.549809e-05 -7.242263e-06 -2.000000e-07
2.040426e-04 4.608021e-05 -2.000000e-07
-2.949757e-04 -4.744707e-04 -2.000000e-07
-4.649212e-04 -4.993717e-04 -2.000000e-07
8.927204e-05 -2.242764e-04 -2.000000e-07
-4.826609e-04 -5.000000e-04 -2.000000e-07
3.165654e-04 5.000000e-04 -2.000000e-07
-3.605759e-04 -4.989941e-04 -2.000000e-07
4.223340e-04 1.656653e-05 -2.000000e-07
-4.994634e-04 4.988472e-04 -2.000000e-07
-4.990970e-04 4.986244e-04 -2.000000e-07
-4.680301e-04 -4.936664e-04 -2.000000e-07
-5.712306e-05 -1.028929e-04 -2.000000e-07
4.600568e-04 -6.977633e-06 -2.000000e-07
-4.363600e-04 -4.991082e-04 -2.000000e-07
1.322657e-04 -2.225869e-05 -2.000000e-07
4.456174e-04 1.029980e-06 -2.000000e-07
3.080244e-04 5.000000e-04 -2.000000e-07
2.828715e-05 -4.849240e-04 -2.000000e-07
3.313877e-04 -1.066938e-05 -2.000000e-07
-4.973188e-04 -4.994249e-04 -2.000000e-07
8.636293e-05 5.588006e-06 -2.000000e-07
-4.873711e-04 -4.973378e-04 -2.000000e-07
-1.204022e-04 -2.877963e-04 -2.000000e-07
-4.425005e-04 4.967804e-04 -2.000000e-07
4.937281e-04 -4.995039e-04 -2.000000e-07
-4.908796e-04 -4.984317e-04 -2.000000e-07
-2.323402e-04 -3.542119e-05 -2.000000e-07
2.992858e-04 5.000000e-04 -2.000000e-07
7.968131e-05 -5.291413e-06 -2.000000e-07
-7.788958e-05 -1.652896e-05 -2.000000e-07
4.840591e-04 2.908452e-04 -2.000000e-07
7.908620e-05 -5.319161e-06 -2.000000e-07
-4.983164e-04 4.997156e-04 -2.000000e-07
-9.634905e-05 -1.752009e-05 -2.000000e-07
3.090818e-04 1.092940e-05 -2.000000e-07
-3.289190e-04 -4.978962e-04 -2.000000e-07
-1.799579e-04 4.703099e-04 -2.000000e-07
-4.741085e-04 -4.914136e-04 -2.000000e-07
2.903451e-04 5.000000e-04 -2.000000e-07
4.699195e-04 8.217933e-06 -2.000000e-07
3.981413e-04 -4.006673e-04 -2.000000e-07
5.550965e-05 -7.838644e-05 -2.000000e-07
-1.786836e-04 -1.191525e-05 -2.000000e-07
2.418892e-04 -4.826001e-04 -2.000000e-07
4.998771e-04 -4.993246e-04 -2.000000e-07
6.581788e-05 -1.515259e-04 -2.000000e-07
-3.986142e-04 -4.968960e-04 -2.000000e-07
8.075964e-05 5.397211e-06 -2.000000e-07
-7.841628e-05 -1.870557e-05 -2.000000e-07
2.812861e-04 5.000000e-04 -2.000000e-07
-2.227433e-04 4.850012e-05 -2.000000e-07
-1.079351e-04 9.146322e-05 -2.000000e-07
-4.980078e-04 -4.998595e-04 -2.000000e-07
-7.563678e-05 6.017562e-06 -2.000000e-07
-3.924193e-04 4.940797e-04 -2.000000e-07
-7.676953e-05 5.299428e-06 -2.000000e-07
1.065732e-04 9.877158e-06 -2.000000e-07
1.857484e-05 -1.093042e-04 -2.000000e-07
9.583489e-05 -3.285201e-05 -2.000000e-07
-4.869557e-04 -4.976062e-04 -2.000000e-07
2.722978e-04 5.000000e-04 -2.000000e-07
4.978165e-04 -4.576651e-04 -2.000000e-07
4.995910e-04 4.984905e-04 -2.000000e-07
-4.162996e-04 -4.848463e-04 -2.000000e-07
2.581001e-04 -1.159367e-04 -2.000000e-07
4.985869e-04 -4.984352e-04 -2.000000e-07
4.899266e-05 -9.370988e-05 -2.000000e-07
3.662914e-04 4.952057e-04 -2.000000e-07
-4.925602e-04 3.745633e-04 -2.000000e-07
4.161179e-04 -1.241583e-05 -2.000000e-07
-4.985435e-04 4.795297e-04 -2.000000e-07
2.633859e-04 5.000000e-04 -2.000000e-07
1.296250e-04 -2.490760e-04 -2.000000e-07
4.412559e-04 -1.765938e-05 -2.000000e-07
-2.033861e-04 -4.636264e-04 -2.000000e-07
7.585138e-05 -1.674986e-05 -2.000000e-07
-3.721890e-04 -4.975051e-04 -2.000000e-07
4.939488e-04 -3.947007e-04 -2.000000e-07
-7.505611e-05 5.464664e-06 -2.000000e-07
4.052837e-04 -4.955586e-04 -2.000000e-07
3.995492e-04 -4.946212e-04 -2.000000e-07
-8.399355e-05 5.326763e-05 -2.000000e-07
2.545499e-04 5.000000e-04 -2.000000e-07
-4.934035e-04 4.047945e-04 -2.000000e-07
4.730830e-04 -4.984603e-04 -2.000000e-07
-1.276996e-04 -9.357086e-06 -2.000000e-07
-4.888435e-04 4.988814e-04 -2.000000e-07
-2.830271e-04 -4.841590e-04 -2.000000e-07
3.217523e-05 -3.012290e-04 -2.000000e-07
4.464878e-04 4.903593e-04 -2.000000e-07
1.005174e-04 4.827605e-04 -2.000000e-07
-4.108379e-04 -1.808680e-04 -2.000000e-07
2.328925e-04 -2.437893e-05 -2.000000e-07
2.457882e-04 5.000000e-04 -2.000000e-07
7.662334e-05 2.787913e-05 -2.000000e-07
4.420954e-04 4.978702e-04 -2.000000e-07
-3.720065e-04 2.221916e-05 -2.000000e-07
-4.998049e-04 -4.995556e-04 -2.000000e-07
-4.902017e-04 -4.959861e-04 -2.000000e-07
-2.542734e-04 1.083758e-04 -2.000000e-07
3.429122e-04 1.904142e-04 -2.000000e-07
-1.947161e-04 7.799731e-06 -2.000000e-07
-2.182042e-05 -7.843946e-05 -2.000000e-07
-4.905149e-04 -4.997001e-04 -2.000000e-07
2.364230e-04 5.000000e-04 -2.000000e-07
-1.092758e-05 8.882656e-05 -2.000000e-07
-4.897109e-04 -4.736382e-04 -2.000000e-07
-3.733205e-04 -4.881224e-04 -2.000000e-07
-2.656307e-04 -1.790591e-05 -2.000000e-07
-9.371031e-05 -7.733092e-06 -2.000000e-07
-7.566797e-05 6.720114e-06 -2.000000e-07
4.979273e-04 -4.551863e-04 -2.000000e-07
-4.740509e-04 -4.262804e-04 -2.000000e-07
1.294373e-04 -2.561483e-04 -2.000000e-07
-3.136547e-04 -4.859079e-04 -2.000000e-07
-4.821985e-04 -5.000000e-04 -2.000000e-07
2.257606e-04 5.000000e-04 -2.000000e-07
4.898602e-04 -3.193880e-04 -2.000000e-07
-9.684661e-05 6.015763e-06 -2.000000e-07
-3.611607e-04 -4.903816e-04 -2.000000e-07
-7.854090e-05 2.566813e-05 -2.000000e-07
-3.627820e-04 -4.942286e-04 -2.000000e-07
8.108692e-05 -1.280401e-05 -2.000000e-07
-2.652369e-05 -8.535714e-05 -2.000000e-07
-4.696581e-04 -4.956214e-04 -2.000000e-07
-7.672687e-05 3.098644e-05 -2.000000e-07
-4.636890e-04 -4.995409e-04 -2.000000e-07
2.136214e-04 5.000000e-04 -2.000000e-07
-1.943407e-04 1.374736e-05 -2.000000e-07
-1.417230e-04 -4.873623e-04 -2.000000e-07
[...]
POINT_DATA 26760
VECTORS 10.000GHz_fone_imag double
-1.215858e-06 -1.213882e-06 1.167152e-05
-3.806611e-05 -3.654978e-05 -3.851999e-04
-1.289103e-07 -2.086137e-05 4.028931e-05
3.143813e-07 3.775357e-05 8.267001e-05
-4.618439e-07 -2.761699e-05 -3.187414e-07
-1.681954e-05 -6.759874e-05 -1.896540e-06
2.575652e-05 -7.567964e-05 -5.770185e-06
-9.594175e-08 -3.673776e-05 3.456454e-05
-5.863830e-05 1.464558e-04 -3.955530e-04
-5.356122e-04 -2.891126e-05 -2.893553e-04
-1.879659e-06 -1.298821e-05 1.472007e-06
-1.469729e-05 3.052786e-04 -2.367255e-06
1.211517e-07 2.855417e-05 5.737148e-07
-3.566582e-06 -6.905617e-06 -9.423622e-08
-6.564101e-07 3.658115e-05 8.257848e-05
-3.626496e-06 -6.967194e-06 2.945549e-08
-1.477557e-06 -6.223308e-05 2.268850e-07
-6.585754e-06 -8.489591e-04 -1.752099e-04
5.694218e-05 3.904097e-05 -7.225851e-07
-1.751014e-06 -1.309171e-05 1.063405e-06
-9.272900e-07 -2.517868e-05 9.314469e-07
-1.080508e-05 -2.427139e-06 1.216671e-06
-1.644037e-06 -1.585157e-05 -4.501604e-07
-3.920116e-06 -6.627020e-06 3.465508e-07
-1.442621e-05 1.147633e-05 8.855902e-07
-1.408521e-07 3.918351e-05 8.550160e-05
2.033260e-05 5.920328e-04 -6.420910e-05
-1.103747e-06 -5.460799e-05 1.283420e-05
-1.007104e-05 -1.962196e-04 1.853941e-06
-2.583389e-05 -1.865543e-04 -4.376099e-07
8.102895e-07 2.603600e-05 5.412233e-06
2.387404e-05 5.316970e-05 2.047890e-06
-1.144766e-06 -1.970499e-05 4.077984e-06
7.195078e-05 -7.358898e-04 -6.259173e-06
5.564343e-04 -2.440238e-05 -2.775935e-04
4.401729e-05 -9.753347e-05 6.035378e-06
1.677527e-07 3.967443e-05 8.717618e-05
5.577038e-04 -2.364162e-05 -3.715805e-04
-2.306011e-06 -1.153753e-05 1.693304e-06
5.055825e-04 2.325219e-05 -2.432991e-05
6.587518e-04 -9.514743e-06 -2.482007e-04
1.202359e-05 2.440146e-06 3.291910e-06
1.374350e-05 -2.049787e-05 -6.012116e-07
-1.689708e-06 -3.327453e-05 4.032211e-06
2.840512e-05 -3.108030e-04 1.133971e-05
-8.128393e-07 -2.673918e-05 5.817946e-06
-3.042355e-06 -1.030255e-05 3.853504e-06
1.719504e-07 3.915729e-05 8.797628e-05
-2.361167e-05 2.092653e-04 1.816943e-06
1.855084e-05 -9.827897e-05 -4.811436e-07
3.893897e-06 -6.125489e-04 7.051693e-06
-3.454696e-05 -5.250502e-04 -3.057015e-04
-4.332663e-05 -2.454388e-04 1.882498e-06
2.998212e-05 -3.728207e-04 -8.402062e-06
-3.908500e-05 -5.294096e-06 6.333252e-07
-2.616582e-04 -4.872744e-05 -9.242973e-08
-1.080314e-06 -1.422286e-05 1.396086e-05
-7.858073e-07 -2.340482e-05 1.001624e-05
6.330734e-08 4.021048e-05 8.936420e-05
-8.349131e-07 -2.141976e-05 1.006258e-05
1.622617e-06 1.041256e-05 1.188696e-05
1.230894e-06 -1.648482e-05 9.382171e-06
6.024769e-04 -8.473972e-06 -7.854924e-05
1.989916e-05 -6.758980e-04 -2.743961e-04
6.071694e-06 -2.136694e-05 -5.740162e-07
-3.827284e-05 3.636691e-04 -2.622530e-05
-1.076357e-06 -2.342351e-05 1.487457e-06
2.006536e-05 -5.096231e-04 -4.650679e-05
-1.824104e-05 2.610318e-05 1.710126e-06
1.742940e-07 4.131037e-05 9.201614e-05
-1.609484e-06 -1.894802e-05 -2.500165e-07
-9.680257e-07 -2.158188e-05 1.241100e-06
-2.304151e-05 8.046213e-04 -9.351343e-05
1.113628e-05 -2.806370e-06 -3.004103e-07
-6.435109e-06 -4.009990e-06 -6.178141e-08
3.509868e-05 -2.940515e-04 -1.245700e-05
4.116792e-05 -2.383425e-04 -6.650679e-07
6.145440e-04 -2.069566e-05 -2.066049e-04
3.207457e-05 1.751310e-06 1.737087e-06
-3.590958e-06 -2.010420e-05 -6.676353e-07
9.726090e-10 4.107776e-05 9.271929e-05
-1.671856e-06 -1.891679e-05 -5.133176e-08
-9.719154e-07 -2.188187e-05 1.252063e-07
7.480013e-07 -2.109274e-05 -2.214941e-06
1.654255e-05 1.469352e-06 4.708887e-06
-5.891508e-04 -2.045507e-05 -2.707580e-04
-5.196967e-07 -2.461162e-05 1.707853e-05
4.149279e-04 -3.234171e-05 -4.297858e-04
-1.522118e-06 -1.445054e-05 1.359618e-06
-4.838047e-05 -3.713768e-04 -3.588543e-05
-6.356507e-04 1.746691e-05 -1.841894e-04
-9.467089e-07 4.079338e-05 9.211840e-05
2.722554e-06 5.865896e-04 -1.034927e-05
5.669746e-05 1.228953e-05 1.321542e-06
-9.712826e-05 1.030403e-04 -1.633470e-06
1.933821e-05 -7.450193e-04 -1.277984e-04
-3.175755e-07 -3.479593e-05 1.584963e-07
-2.674665e-05 7.033774e-04 -2.012045e-04
-1.246939e-06 -1.967009e-05 6.807745e-07
-1.266596e-04 -6.134071e-04 2.812068e-05
1.903851e-05 -2.256988e-04 7.911557e-06
-1.902606e-05 -3.213517e-04 -1.079435e-05
8.107925e-07 4.190395e-05 9.574828e-05
-1.412137e-06 -1.623529e-05 1.211269e-06
2.112485e-05 -6.240876e-04 -7.945973e-05
6.488221e-06 1.655749e-04 1.954652e-06
6.534300e-05 -2.637688e-05 9.577386e-07
6.726915e-05 -1.937996e-05 -7.133654e-07
3.915160e-04 -5.804769e-05 -2.209657e-04
1.827098e-05 8.937574e-05 1.299184e-06
-1.600565e-06 -1.548286e-05 4.913836e-07
3.031174e-07 -3.622833e-05 1.254152e-05
7.198005e-06 -2.929858e-05 9.355896e-08
-3.743136e-07 -2.089974e-05 4.018744e-05
-9.853077e-08 4.019027e-05 9.633896e-05
-2.672713e-07 -5.540832e-05 1.511366e-05
1.528475e-04 6.945305e-05 7.478301e-06
-8.654645e-06 3.416227e-06 6.154412e-06
-7.650327e-06 4.396884e-06 3.989361e-06
-1.992519e-06 -1.180080e-05 6.010619e-07
-3.495873e-05 -1.426518e-04 2.223257e-06
7.280652e-05 -3.295000e-06 9.513298e-07
-4.373218e-07 -4.444255e-05 1.026031e-05
3.330984e-05 -1.512449e-04 2.455319e-06
8.967806e-05 -9.451036e-07 7.088250e-06
6.297380e-07 4.418179e-05 9.824880e-05
7.393696e-07 -2.713781e-05 -1.671676e-06
7.219149e-06 -5.318276e-04 4.958497e-06
-1.955188e-06 -1.338776e-05 6.599164e-06
2.189453e-05 7.139502e-04 -2.860521e-04
-1.841069e-06 -1.265354e-05 1.400810e-06
-5.026216e-06 -2.047132e-05 -1.301054e-07
-1.189031e-06 2.065746e-05 -8.458675e-07
9.915890e-07 -1.973135e-05 8.523150e-06
-1.629543e-06 -1.471896e-05 2.888538e-06
-1.129165e-05 -1.262900e-04 3.054860e-06
-3.892517e-08 4.133646e-05 9.958403e-05
2.276971e-05 -5.868898e-04 -4.079444e-04
-3.210904e-04 -4.467712e-05 -2.969435e-05
2.137465e-05 3.096257e-06 -1.795792e-06
3.037573e-05 -5.492510e-04 -3.599839e-04
-1.769353e-06 1.209455e-05 9.368894e-06
-7.559335e-05 -1.416239e-04 -3.542319e-06
-2.884876e-06 4.759689e-04 1.409926e-05
6.488514e-07 -4.691720e-05 -2.324071e-06
-1.135591e-06 1.730163e-05 -1.571558e-06
-2.383375e-06 -9.208126e-06 2.523648e-07
1.843600e-07 4.196878e-05 1.010645e-04
6.817954e-05 3.342259e-06 8.014153e-07
5.472161e-06 -6.453328e-06 2.481635e-07
8.169357e-06 -5.672461e-04 -2.549694e-06
-5.223203e-06 -3.666787e-04 -4.887194e-06
1.248199e-06 -1.941663e-05 3.514935e-07
7.530613e-06 -1.963700e-06 1.142698e-05
1.510586e-05 -5.623689e-05 -4.508532e-07
-9.333741e-07 -3.061483e-05 2.772766e-06
2.607874e-05 6.078880e-04 -3.432970e-04
-3.088304e-04 -4.309043e-05 -1.889404e-05
-1.242851e-07 4.058275e-05 1.015158e-04
-1.518349e-05 8.873130e-05 2.038466e-06
-5.635290e-05 7.598172e-05 -1.085254e-06
-1.088252e-06 -1.340740e-05 1.403426e-05
-2.340372e-04 1.295422e-04 -1.839340e-04
2.782809e-08 2.105770e-05 8.493586e-07
-5.420459e-05 3.848292e-04 -3.051986e-04
3.327729e-05 3.209048e-04 -7.347898e-06
9.062524e-06 -1.287913e-04 -6.324694e-07
1.120855e-04 -7.230974e-05 -5.553032e-07
-1.727063e-06 -1.365862e-05 1.497870e-06
2.264650e-07 3.947961e-05 1.019052e-04
2.344750e-05 -1.282626e-06 1.334616e-06
1.092362e-05 2.394133e-06 7.666328e-06
-1.849294e-06 -1.236773e-05 -7.492263e-08
1.677184e-05 -3.677162e-05 -1.830167e-06
6.324661e-06 -5.493159e-06 2.930844e-06
2.608264e-05 -1.926116e-04 -3.411534e-06
5.260864e-07 2.645455e-05 -5.839453e-07
-2.190254e-05 1.438639e-06 2.297091e-07
2.333000e-04 -1.218614e-04 1.043149e-05
-2.087237e-05 7.101701e-07 2.556350e-06
-6.748603e-08 4.530309e-05 1.085121e-04
7.866151e-06 -1.823598e-05 -8.558006e-08
9.211665e-05 -2.156318e-05 2.141233e-06
-1.665821e-06 -1.596861e-05 -5.968574e-08
5.963948e-04 -2.538795e-05 -1.615929e-04
-1.794560e-07 -3.607827e-05 5.743307e-06
2.143161e-05 -1.698086e-06 -2.557749e-07
-1.777225e-04 5.271907e-05 -4.050995e-04
9.554084e-07 -2.267396e-05 1.625644e-07
4.479183e-07 -2.175550e-05 -1.163174e-07
-2.723484e-04 5.163924e-05 -7.625981e-07
-1.637921e-07 4.717318e-05 1.108192e-04
-1.954175e-05 1.426593e-06 -9.590776e-08
9.399862e-07 -2.259141e-05 2.133446e-06
-1.876294e-05 -4.161243e-04 -2.567065e-05
-1.215702e-06 1.848371e-05 3.226164e-06
-2.398495e-06 -1.887488e-05 2.593689e-06
8.057821e-07 -2.216352e-05 4.050183e-07
1.667504e-06 1.182377e-05 -2.710833e-07
1.674861e-06 2.486785e-05 1.139236e-06
-1.905390e-05 -1.230609e-05 -4.632086e-08
1.297151e-05 -1.765511e-04 1.114107e-05
7.401105e-08 4.516931e-05 1.098739e-04
5.428884e-04 1.978199e-05 -2.503412e-05
1.161387e-06 2.741580e-05 1.597840e-06
-4.313163e-05 2.341541e-04 1.263385e-06
-5.838539e-06 -2.905119e-06 1.006000e-05
-2.878418e-06 -9.035424e-06 7.105978e-07
-1.639498e-05 3.894414e-05 1.598998e-06
1.560170e-05 1.751562e-05 -4.396196e-07
1.850352e-05 6.837499e-04 -1.128348e-05
-5.639691e-06 -4.933215e-04 -5.184118e-06
-5.603261e-07 -2.489445e-05 1.583159e-05
3.942694e-07 4.908538e-05 1.145941e-04
-5.405418e-06 2.312246e-04 1.748397e-06
-8.329489e-06 -2.769813e-06 -2.298700e-07
-1.641292e-06 -1.732258e-05 4.013310e-07
-9.450117e-06 -2.607954e-04 9.623750e-06
-3.502354e-05 -4.067916e-04 -4.005194e-05
-3.074440e-04 9.017786e-05 -1.762226e-04
2.424880e-05 -8.191193e-07 1.403983e-06
-8.414719e-06 -3.212547e-06 -4.794522e-07
6.143429e-06 -2.900438e-05 7.621961e-08
-1.095018e-06 -1.837717e-05 -1.291409e-07
2.809651e-08 -2.095470e-05 4.026429e-05
-2.668036e-07 4.367930e-05 1.127945e-04
2.508626e-05 -4.792726e-07 -5.940404e-07
-9.327129e-06 7.245726e-04 -1.605874e-04
-1.843221e-06 -1.993561e-05 -3.331307e-07
-3.467545e-04 2.810873e-05 -1.727332e-05
-9.595021e-07 -2.392586e-05 4.646418e-07
1.663473e-04 -1.025439e-04 -1.724871e-05
-3.527552e-06 -2.841099e-04 3.967963e-06
-1.442157e-06 -1.420556e-05 5.812188e-07
-5.474675e-04 1.408775e-05 -4.886464e-05
4.089919e-09 -3.872861e-05 1.908866e-05
-5.720162e-08 4.222320e-05 1.112020e-04
-1.318733e-05 3.040882e-04 -3.971989e-06
-7.967925e-07 -2.733507e-05 -7.673131e-07
-9.583641e-06 -5.010308e-06 4.208739e-07
-8.914053e-06 -4.783647e-06 -2.309017e-07
-1.648480e-06 -1.483453e-05 3.230742e-06
-5.977496e-04 -2.485267e-05 -2.239298e-04
1.005093e-06 2.436831e-05 -3.325383e-07
-3.611325e-05 3.276243e-04 6.139347e-06
-9.603264e-07 -1.895747e-05 5.673246e-07
-2.190683e-06 -1.029398e-05 3.104017e-07
-3.373546e-08 4.214047e-05 1.118523e-04
-2.316529e-04 -6.497558e-04 4.146496e-05
-2.489097e-05 -7.022931e-07 5.859189e-06
-1.047915e-06 -1.540854e-05 1.413747e-05
-3.179999e-06 6.210283e-04 -2.353889e-05
-1.048687e-05 -5.769035e-06 -4.938923e-07
-2.744487e-06 -9.071145e-06 8.301446e-06
2.426913e-05 7.359709e-04 -2.799664e-04
-1.943213e-05 -2.509963e-04 4.507235e-06
-2.062127e-05 8.840432e-07 8.099621e-06
-2.350341e-04 5.039877e-05 -4.069387e-04
6.926842e-07 4.689241e-05 1.148513e-04
-1.909998e-05 -9.381229e-07 1.078620e-05
-2.320894e-05 8.841445e-07 4.723254e-06
2.813893e-06 4.883811e-04 1.265234e-05
8.325229e-06 -2.393301e-05 2.301320e-07
2.205595e-05 6.196898e-04 -8.073129e-05
-9.170536e-06 -1.154058e-05 1.073228e-07
1.978161e-05 -1.307497e-06 3.724202e-07
9.176389e-06 -2.490855e-04 6.434383e-06
-5.751549e-07 -2.612489e-05 8.245234e-07
-1.691945e-06 -1.681083e-05 -4.909912e-07
-2.880213e-07 4.217832e-05 1.154474e-04
-1.127374e-06 -1.948086e-05 1.152291e-06
-1.490929e-06 -1.728289e-05 -8.393689e-07
5.025014e-05 1.385565e-06 1.910917e-06
1.490392e-05 1.119685e-06 1.333841e-05
5.690667e-04 1.237427e-05 -4.612864e-05
-6.625476e-05 1.160727e-04 -2.639263e-07
3.400836e-05 4.667687e-04 -1.556345e-05
3.521945e-04 4.057031e-05 -4.161428e-04
2.011486e-05 -6.931723e-04 -2.125998e-04
-1.829304e-06 -4.410752e-05 6.016827e-06
-1.134304e-07 4.297387e-05 1.155944e-04
7.584478e-05 -1.004041e-04 4.626266e-06
-1.430938e-05 5.497838e-04 1.340228e-05
-1.654166e-06 -1.281812e-05 8.229025e-07
1.755334e-05 1.326727e-06 3.307834e-06
3.846620e-05 5.075225e-05 1.834567e-07
3.079188e-05 2.141192e-04 -4.147008e-06
4.625004e-06 -4.829760e-05 1.010975e-07
-3.344674e-06 -9.043248e-06 1.839008e-06
4.792046e-06 -5.391923e-06 7.522523e-06
7.751342e-05 3.292922e-06 -1.722157e-06
-2.560070e-07 4.587736e-05 1.180069e-04
1.930903e-05 4.814272e-05 -4.689099e-07
-3.096712e-05 3.456329e-04 -1.565852e-05
1.541890e-05 1.801570e-06 -1.092139e-07
1.120965e-05 -1.228984e-05 -1.457317e-06
8.974087e-07 2.724516e-05 8.545744e-06
7.593510e-07 2.456678e-05 5.061556e-06
-1.979154e-06 -1.212755e-05 9.940419e-07
-7.019014e-04 2.554564e-05 -2.565628e-05
2.498011e-05 -6.825125e-04 -2.512038e-04
-1.319553e-04 2.233737e-04 -1.884208e-04
1.688535e-07 5.276321e-05 1.288713e-04
-8.474200e-05 1.605868e-04 -5.706401e-06
-2.174075e-06 1.278934e-05 3.755687e-06
4.048884e-08 -6.409182e-05 2.441693e-05
7.398520e-06 5.462236e-05 2.101825e-06
-3.376501e-04 -5.845682e-05 -5.757391e-05
-6.553787e-04 2.013891e-05 -5.214949e-05
2.353909e-05 -1.092029e-06 -4.779911e-07
2.787876e-05 -1.775069e-05 -4.358569e-06
-3.106561e-06 -9.617889e-06 1.801877e-06
-4.634777e-05 -6.422423e-06 -4.781100e-06
-5.218448e-08 3.979207e-05 1.138808e-04
9.921753e-06 -7.893139e-04 -1.440403e-04
-8.923479e-06 2.490469e-06 -1.325720e-07
5.204566e-05 1.197170e-05 5.183129e-09
-1.290839e-07 -3.632911e-05 3.765932e-05
2.594647e-06 1.371338e-05 3.614044e-07
-5.874721e-04 3.976094e-05 -2.590524e-05
-6.673472e-07 -2.482498e-05 9.164473e-07
1.819015e-05 1.307401e-06 2.480747e-06
-1.823347e-06 -1.296602e-05 8.410009e-06
6.084100e-06 -3.853256e-06 -2.765392e-07
2.548663e-07 4.069762e-05 1.137041e-04
2.124587e-05 -6.835011e-05 8.721017e-07
-2.267380e-06 -1.419863e-05 4.005820e-07
-9.653460e-05 -7.639229e-05 -3.735257e-04
2.153833e-05 6.957343e-06 -1.012031e-06
1.920581e-06 -2.593840e-06 1.170170e-05
-3.799640e-06 5.635645e-04 -1.316312e-05
-1.305821e-06 -1.570933e-05 1.344820e-06
1.585039e-05 -2.395835e-04 -2.500179e-06
-2.084599e-05 -6.873367e-04 -6.750578e-05
-6.979052e-06 -3.866094e-06 5.158312e-07
-2.797292e-07 -2.085407e-05 4.099374e-05
2.992903e-07 4.061092e-05 1.146207e-04
8.157617e-06 -2.741505e-04 -6.153458e-06
9.795409e-06 -3.072139e-04 4.674560e-06
7.030690e-07 2.599297e-05 1.494212e-06
-1.686812e-05 -5.555797e-05 7.824213e-07
-1.784804e-06 -5.159658e-05 3.357912e-07
5.478004e-04 2.354527e-05 -3.767124e-04
1.577248e-04 -4.757132e-05 -4.911476e-06
7.098258e-06 -3.247641e-06 -1.639168e-07
2.862641e-05 4.494997e-05 8.216802e-07
-4.454274e-05 3.306138e-04 -1.405045e-05
-4.101473e-09 4.142453e-05 1.178426e-04
5.856205e-05 2.180829e-05 -3.273530e-07
-1.483512e-05 4.206051e-05 2.284219e-07
-8.438654e-06 2.748738e-06 1.134589e-07
-1.081456e-06 -2.656507e-05 3.371889e-07
1.765972e-05 -4.708455e-04 -2.536732e-05
6.885215e-06 3.944048e-06 2.259549e-07
6.731727e-04 1.683792e-05 -2.483107e-04
-1.540950e-06 -1.270218e-05 2.525363e-07
7.426143e-04 -2.223740e-05 -6.593217e-05
6.629158e-04 -2.294123e-05 -4.807721e-05
-7.218307e-09 4.162129e-05 1.185110e-04
1.854944e-05 -7.134792e-04 -2.816031e-04
-1.006296e-06 -1.661761e-05 1.009960e-07
3.079198e-05 5.075102e-07 5.424185e-06
-6.559421e-04 -1.994164e-05 -1.629102e-04
-7.989231e-05 -9.642244e-05 -3.718418e-04
-3.110964e-05 -1.369678e-05 1.039846e-08
-1.359308e-06 -1.545059e-05 2.359306e-07
-3.989497e-07 -4.539546e-05 2.310049e-05
-2.231119e-06 -1.453909e-05 2.143891e-07
-2.038656e-06 -1.384833e-05 2.293810e-07
1.117063e-08 4.060532e-05 1.169694e-04
-4.438774e-06 -7.401399e-06 -1.220119e-08
-8.553703e-07 -2.183072e-05 1.022791e-05
6.573295e-05 -1.503150e-04 1.681218e-06
-1.398114e-06 -1.319730e-05 6.489172e-07
1.389502e-06 1.663551e-05 3.472656e-06
-3.043657e-06 9.417180e-06 -1.101692e-07
-4.983387e-05 3.808509e-04 -4.312766e-05
-1.066418e-05 -7.023299e-04 -8.834070e-05
1.902053e-05 -1.196015e-06 5.996891e-06
-7.596767e-04 8.210032e-07 -1.074715e-04
6.049370e-08 3.405851e-05 1.064020e-04
7.339625e-05 2.397337e-04 -1.596383e-05
4.110658e-06 -1.796591e-05 4.043371e-07
7.044355e-05 9.307707e-05 3.638146e-07
1.068039e-04 -6.691919e-05 -2.681816e-06
7.029922e-06 -3.335209e-05 -2.461322e-07
6.717781e-06 -2.752846e-05 -2.639079e-07
8.878427e-06 -3.816917e-05 -1.434361e-06
-2.470112e-05 6.285771e-04 -2.266345e-04
-2.086336e-05 2.039979e-05 2.688678e-06
-5.500832e-06 -6.251183e-04 -6.471320e-07
2.160004e-07 4.361670e-05 1.160963e-04
2.143652e-05 9.980127e-07 3.506513e-06
1.806637e-05 1.168994e-06 2.306822e-06
-8.514902e-06 4.276977e-05 -1.717398e-06
-1.365252e-06 1.495030e-05 1.032599e-05
7.582172e-07 2.426915e-05 2.655010e-06
-2.398993e-05 7.299908e-04 -1.374681e-04
8.926336e-07 1.918871e-05 1.253687e-05
1.464192e-05 6.797372e-05 -6.119018e-06
1.745880e-04 3.284741e-05 -2.036164e-06
-1.894953e-06 -1.332693e-05 2.388619e-06
-1.868390e-09 3.582206e-05 1.062735e-04
1.393712e-06 -4.924858e-05 1.202122e-05
8.612319e-06 -6.065894e-04 -5.917491e-06
-2.835557e-05 5.820221e-04 -3.077163e-05
-2.410150e-06 -1.844145e-05 1.850806e-06
4.154626e-05 -5.565566e-07 -1.892301e-07
-1.060284e-06 2.034992e-05 -4.047364e-07
-2.433105e-05 -4.707248e-07 9.395881e-06
-1.165245e-05 1.582694e-05 1.087173e-06
-6.592164e-05 3.358309e-04 -9.286186e-08
1.719289e-06 1.316191e-05 -3.633670e-07
1.183352e-07 3.828975e-05 1.071876e-04
4.695362e-05 3.474130e-05 1.038123e-06
-6.677416e-04 -8.808840e-06 -1.653125e-04
-2.230850e-05 7.603613e-07 2.932962e-06
1.722197e-05 -1.335175e-06 6.047953e-06
3.887919e-05 3.562253e-04 -4.380831e-04
-7.249931e-06 4.549010e-06 1.753979e-06
1.794799e-05 3.793778e-05 4.307413e-07
1.884991e-05 2.441138e-06 -1.811901e-06
1.181800e-05 2.360975e-06 4.310740e-08
5.924393e-07 -2.085373e-05 -7.796705e-07
-4.388019e-09 3.422962e-05 9.983176e-05
-1.005929e-06 1.863165e-05 8.308774e-07
1.672947e-05 -4.523491e-05 1.471422e-06
-1.368759e-06 -4.813888e-05 8.258435e-07
1.189421e-06 4.613933e-04 9.495267e-06
2.156948e-06 -1.201414e-05 -1.748670e-07
1.455388e-04 7.810751e-05 -3.604557e-04
3.346986e-05 4.985030e-04 -3.876424e-04
-1.675693e-07 -3.724765e-05 3.435664e-05
2.596869e-06 -8.719447e-06 -7.427520e-08
-2.336413e-05 1.360392e-04 3.422817e-06
3.992301e-07 3.590285e-05 1.013367e-04
1.287239e-04 6.945260e-05 -2.529491e-06
1.926196e-05 -4.366742e-04 -1.787025e-05
-6.451519e-07 -4.203206e-05 2.088815e-05
-1.025608e-05 -7.743219e-04 -1.689890e-04
-2.761978e-05 -6.906195e-04 -1.065549e-04
3.810374e-05 -3.004250e-06 -7.793149e-07
-2.060761e-06 -1.371886e-05 -4.112064e-08
2.921938e-05 1.725982e-04 7.924768e-08
-1.423534e-05 -1.173365e-06 1.261862e-05
2.412028e-06 1.183484e-05 5.192182e-06
-2.341182e-07 -2.141894e-05 4.104405e-05
-1.730858e-08 3.475595e-05 9.645583e-05
-1.011774e-06 1.931705e-05 2.284528e-06
7.358815e-07 4.801317e-04 -1.385097e-05
-6.085811e-04 2.093826e-05 -2.440137e-04
2.295814e-05 -8.467058e-07 2.793191e-06
-1.189838e-06 -1.902094e-05 2.765540e-07
6.387543e-05 8.444200e-06 1.383883e-06
-1.984510e-06 5.648020e-06 1.175639e-05
6.316340e-05 9.270700e-06 1.849489e-08
-2.342088e-05 -1.422546e-04 3.003152e-06
-7.837667e-07 -2.393218e-05 6.008508e-06
1.664221e-07 3.796465e-05 9.505221e-05
-1.317575e-06 -1.761013e-05 1.004877e-08
-8.203890e-07 -2.019762e-05 1.323321e-06
-4.220518e-04 -4.480280e-05 -1.036016e-04
-2.574619e-06 -1.977272e-05 2.325421e-07
1.911525e-07 -2.260793e-05 -5.190145e-07
8.230772e-07 -2.010328e-05 -5.596914e-07
-1.237185e-06 -2.746852e-05 8.000450e-07
-8.101901e-07 -3.024370e-05 1.799042e-06
-4.371478e-04 -3.206264e-05 -4.142293e-04
4.243810e-05 1.200020e-04 2.284087e-06
1.413493e-07 3.727431e-05 9.225623e-05
-7.261634e-06 1.328486e-04 1.810825e-06
5.793748e-04 -1.428274e-05 -9.284340e-05
4.847545e-05 2.421629e-06 -8.193317e-07
3.445016e-05 2.440580e-06 -1.116991e-06
3.272260e-05 1.590458e-07 7.969478e-06
-2.070106e-05 -2.778007e-04 3.428037e-06
9.449316e-06 -2.727541e-04 1.584326e-05
3.217335e-06 7.778445e-06 8.075003e-06
-3.213310e-07 -4.333319e-04 1.975771e-05
1.409752e-05 1.539564e-06 7.035455e-07
7.292620e-08 3.069951e-05 8.426178e-05
4.051906e-06 -2.476647e-04 -1.402607e-06
1.529579e-05 1.647459e-06 5.133698e-06
-2.406042e-06 -1.197305e-05 -7.348021e-08
7.197178e-07 2.643083e-05 1.410437e-06
7.127772e-06 -2.641485e-04 6.505412e-06
2.443347e-05 3.318227e-04 -9.107089e-06
-1.267256e-06 -3.026376e-05 -2.279512e-07
2.962027e-04 -8.044467e-05 -6.728371e-05
-5.105521e-06 3.955110e-06 9.036142e-06
1.035684e-06 -1.925124e-05 6.321123e-08
5.876566e-08 3.339950e-05 8.444311e-05