# vtk DataFile Version 2.0
Electric current density generated by TTH
ASCII
DATASET UNSTRUCTURED_GRID
POINTS 2204 double
8.000000e-04 8.000000e-04 -4.000000e-04
6.000000e-04 8.000000e-04 -4.000000e-04
-6.000000e-04 -8.000000e-04 4.000000e-04
2.693179e-15 4.535898e-04 4.000000e-04
-5.000000e-05 3.669873e-04 4.000000e-04
5.000000e-05 3.669873e-04 4.000000e-04
3.246076e-15 2.803848e-04 4.000000e-04
-1.000000e-04 2.803848e-04 4.000000e-04
-5.000000e-05 1.937822e-04 4.000000e-04
5.000000e-05 1.937822e-04 4.000000e-04
3.781313e-15 1.071797e-04 4.000000e-04
1.000000e-04 1.071797e-04 4.000000e-04
5.000000e-05 2.057714e-05 4.000000e-04
-5.000000e-04 -8.000000e-04 4.000000e-04
-5.000000e-05 2.057714e-05 4.000000e-04
4.315127e-15 -6.602540e-05 4.000000e-04
-1.000000e-04 -6.602540e-05 4.000000e-04
1.000000e-04 -6.602540e-05 4.000000e-04
-5.000000e-05 -1.526279e-04 4.000000e-04
-1.500000e-04 -1.526279e-04 4.000000e-04
-2.000000e-04 -6.602540e-05 4.000000e-04
-1.000000e-04 -2.392305e-04 4.000000e-04
-2.000000e-04 -2.392305e-04 4.000000e-04
1.500000e-04 1.937822e-04 4.000000e-04
-4.000000e-04 -8.000000e-04 4.000000e-04
4.839811e-15 -2.392305e-04 4.000000e-04
-2.000000e-04 4.535898e-04 4.000000e-04
2.000000e-04 1.071797e-04 4.000000e-04
2.500000e-04 1.937822e-04 4.000000e-04
3.000000e-04 1.071797e-04 4.000000e-04
-1.500000e-04 -3.258330e-04 4.000000e-04
-2.500000e-04 -3.258330e-04 4.000000e-04
-3.000000e-04 -2.392305e-04 4.000000e-04
3.500000e-04 1.937822e-04 4.000000e-04
3.000000e-04 2.803848e-04 4.000000e-04
-3.000000e-04 -8.000000e-04 4.000000e-04
-3.500000e-04 -3.258330e-04 4.000000e-04
-4.000000e-04 -2.392305e-04 4.000000e-04
4.000000e-04 2.803848e-04 4.000000e-04
3.500000e-04 3.669873e-04 4.000000e-04
4.000000e-04 1.071797e-04 4.000000e-04
3.500000e-04 2.057714e-05 4.000000e-04
-1.500000e-04 1.937822e-04 4.000000e-04
1.000000e-04 4.535898e-04 4.000000e-04
-2.000000e-04 -4.124356e-04 4.000000e-04
-1.000000e-04 -4.124356e-04 4.000000e-04
-2.000000e-04 -8.000000e-04 4.000000e-04
4.483750e-04 2.151532e-05 4.000000e-04
3.997292e-04 -6.586904e-05 4.000000e-04
4.487181e-04 3.662472e-04 4.000000e-04
4.926743e-04 -6.179590e-05 4.000000e-04
4.479753e-04 -1.514590e-04 4.000000e-04
3.496174e-04 -1.524071e-04 4.000000e-04
3.950118e-04 -2.363505e-04 4.000000e-04
2.991049e-04 -2.387137e-04 4.000000e-04
3.444324e-04 -3.226186e-04 4.000000e-04
2.489229e-04 -3.252112e-04 4.000000e-04
-1.000000e-04 -8.000000e-04 4.000000e-04
3.000330e-04 -4.124546e-04 4.000000e-04
4.081064e-04 -4.135306e-04 4.000000e-04
1.998260e-04 -4.123351e-04 4.000000e-04
-4.500000e-04 -3.258330e-04 4.000000e-04
-4.000000e-04 -4.124356e-04 4.000000e-04
-5.000000e-04 -2.392305e-04 4.000000e-04
-4.500000e-04 -1.526279e-04 4.000000e-04
3.997864e-04 4.498180e-04 4.000000e-04
4.914482e-04 2.741150e-04 4.000000e-04
-5.000000e-04 -4.124356e-04 4.000000e-04
-2.098799e-15 -8.000000e-04 4.000000e-04
-1.500000e-04 -4.990381e-04 4.000000e-04
-5.000000e-05 -4.929784e-04 4.000000e-04
2.511169e-04 -4.996830e-04 4.000000e-04
4.923685e-04 4.494855e-04 4.000000e-04
4.880858e-04 -2.518822e-04 4.000000e-04
-8.590282e-05 -5.895803e-04 4.000000e-04
-4.500000e-04 -4.990381e-04 4.000000e-04
-2.500000e-04 5.401924e-04 4.000000e-04
-3.000000e-04 4.535898e-04 4.000000e-04
2.999644e-04 4.529612e-04 4.000000e-04
1.000000e-04 -8.000000e-04 4.000000e-04
-3.500000e-04 -4.929784e-04 4.000000e-04
-2.000000e-04 2.803848e-04 4.000000e-04
-2.500000e-04 1.937822e-04 4.000000e-04
5.006926e-04 1.059937e-04 4.000000e-04
-3.000000e-04 2.803848e-04 4.000000e-04
-3.500000e-04 1.937822e-04 4.000000e-04
-4.000000e-04 2.803848e-04 4.000000e-04
-4.500000e-04 1.937822e-04 4.000000e-04
-4.000000e-04 1.071797e-04 4.000000e-04
-5.000000e-04 1.071797e-04 4.000000e-04
2.000000e-04 -8.000000e-04 4.000000e-04
-5.000000e-04 2.803848e-04 4.000000e-04
-4.500000e-04 3.669873e-04 4.000000e-04
1.999144e-04 -2.391811e-04 4.000000e-04
-3.500000e-04 5.401924e-04 4.000000e-04
5.307662e-15 -4.114256e-04 4.000000e-04
1.501571e-04 -4.991288e-04 4.000000e-04
2.000000e-04 -5.856406e-04 4.000000e-04
1.000000e-04 6.267949e-04 4.000000e-04
3.578200e-04 5.477197e-04 4.000000e-04
-5.500000e-04 -1.526279e-04 4.000000e-04
3.000000e-04 -8.000000e-04 4.000000e-04
-5.506690e-04 3.669873e-04 4.000000e-04
-5.001115e-04 4.535898e-04 4.000000e-04
-2.000000e-04 1.071797e-04 4.000000e-04
1.500000e-04 3.669873e-04 4.000000e-04
-4.500000e-04 2.057714e-05 4.000000e-04
-5.476370e-04 1.921284e-05 4.000000e-04
-6.142120e-04 1.046523e-04 4.000000e-04
-3.500000e-04 2.057714e-05 4.000000e-04
2.489914e-04 5.400108e-04 4.000000e-04
-5.482243e-04 -4.991984e-04 4.000000e-04
5.000000e-04 8.000000e-04 -4.000000e-04
4.000000e-04 -8.000000e-04 4.000000e-04
-5.974642e-04 -2.377664e-04 4.000000e-04
-2.102310e-04 -5.905388e-04 4.000000e-04
8.775062e-05 -5.900034e-04 4.000000e-04
2.995402e-04 -6.000425e-04 4.000000e-04
-3.857143e-04 -5.848351e-04 4.000000e-04
-6.133976e-04 -4.082336e-04 4.000000e-04
-6.475703e-04 -1.506146e-04 4.000000e-04
-6.000000e-04 2.803848e-04 4.000000e-04
-6.026549e-04 4.531747e-04 4.000000e-04
-5.504611e-04 5.401232e-04 4.000000e-04
5.000000e-04 -8.000000e-04 4.000000e-04
-6.511156e-04 5.436682e-04 4.000000e-04
-1.466336e-04 -6.676320e-04 4.000000e-04
1.509939e-04 -6.607448e-04 4.000000e-04
2.925052e-06 -6.282205e-04 4.000000e-04
-2.963319e-04 -6.272168e-04 4.000000e-04
-7.030229e-04 -2.440784e-04 4.000000e-04
-5.935916e-05 -7.051232e-04 4.000000e-04
-6.517336e-04 3.626578e-04 4.000000e-04
-3.620610e-04 -6.976702e-04 4.000000e-04
-3.000000e-04 6.267949e-04 4.000000e-04
6.000000e-04 -8.000000e-04 4.000000e-04
-7.119324e-04 5.107217e-05 4.000000e-04
7.133975e-04 -5.000000e-05 4.000000e-04
6.321463e-04 -3.965627e-06 4.000000e-04
6.339046e-04 -1.006609e-04 4.000000e-04
6.093449e-04 1.022161e-04 4.000000e-04
-1.500000e-04 7.133975e-04 4.000000e-04
7.104891e-04 1.503694e-04 4.000000e-04
6.279481e-04 2.073857e-04 4.000000e-04
7.131049e-04 2.512925e-04 4.000000e-04
6.320802e-04 3.042792e-04 4.000000e-04
7.000000e-04 -8.000000e-04 4.000000e-04
6.335307e-04 4.028043e-04 4.000000e-04
7.145987e-04 4.503312e-04 4.000000e-04
6.336985e-04 5.003864e-04 4.000000e-04
6.308331e-04 6.006826e-04 4.000000e-04
5.391268e-04 5.384080e-04 4.000000e-04
5.430654e-04 6.491285e-04 4.000000e-04
4.510280e-04 6.031103e-04 4.000000e-04
3.633530e-04 6.538728e-04 4.000000e-04
-4.498638e-04 7.134761e-04 4.000000e-04
-3.999773e-04 6.268080e-04 4.000000e-04
8.000000e-04 -7.000000e-04 4.000000e-04
-7.123238e-04 -4.513195e-04 4.000000e-04
4.475572e-04 -7.124928e-04 4.000000e-04
4.994566e-04 -6.267228e-04 4.000000e-04
6.005276e-04 -6.296705e-04 4.000000e-04
5.499974e-04 -5.435592e-04 4.000000e-04
4.500000e-04 -5.401924e-04 4.000000e-04
5.113216e-04 -4.516666e-04 4.000000e-04
4.866065e-04 -3.537809e-04 4.000000e-04
5.741715e-04 -3.853517e-04 4.000000e-04
6.500242e-04 -5.489624e-04 4.000000e-04
8.000000e-04 -6.000000e-04 4.000000e-04
3.568426e-04 -5.029887e-04 4.000000e-04
2.500000e-04 2.057714e-05 4.000000e-04
-3.500000e-04 -1.526279e-04 4.000000e-04
-4.973231e-04 -5.801150e-04 4.000000e-04
-5.968980e-04 -5.756319e-04 4.000000e-04
-5.496462e-04 -6.644752e-04 4.000000e-04
4.000000e-04 -6.267949e-04 4.000000e-04
2.311157e-04 -6.748056e-04 4.000000e-04
1.497772e-04 -3.257044e-04 4.000000e-04
2.497728e-04 -1.524968e-04 4.000000e-04
8.000000e-04 -5.000000e-04 4.000000e-04
-5.500000e-04 1.937822e-04 4.000000e-04
-2.517052e-04 -4.927848e-04 4.000000e-04
-7.133975e-04 1.500000e-04 4.000000e-04
-2.500000e-04 -1.526279e-04 4.000000e-04
1.998260e-04 4.534548e-04 4.000000e-04
-1.500000e-04 3.669873e-04 4.000000e-04
1.500000e-04 2.057714e-05 4.000000e-04
-6.000000e-04 -6.602540e-05 4.000000e-04
-5.000000e-05 -3.256647e-04 4.000000e-04
-1.000000e-04 1.071797e-04 4.000000e-04
8.000000e-04 -4.000000e-04 4.000000e-04
-3.002030e-04 -4.109697e-04 4.000000e-04
-3.000000e-04 1.071797e-04 4.000000e-04
5.000000e-05 -1.526279e-04 4.000000e-04
7.168663e-04 -3.514567e-04 4.000000e-04
6.267949e-04 -3.000000e-04 4.000000e-04
1.999621e-04 -6.600354e-05 4.000000e-04
4.491703e-04 1.931766e-04 4.000000e-04
1.000000e-04 2.803848e-04 4.000000e-04
-1.500000e-04 2.057714e-05 4.000000e-04
-2.500000e-04 3.669873e-04 4.000000e-04
8.000000e-04 -3.000000e-04 4.000000e-04
1.499416e-04 -1.525942e-04 4.000000e-04
2.998907e-04 -6.596227e-05 4.000000e-04
2.499651e-04 3.668600e-04 4.000000e-04
7.145824e-04 -1.501102e-04 4.000000e-04
1.524143e-04 7.123003e-04 4.000000e-04
-5.500000e-04 -3.258330e-04 4.000000e-04
-3.500000e-04 3.669873e-04 4.000000e-04
-4.000186e-04 4.535898e-04 4.000000e-04
-2.500000e-04 2.057714e-05 4.000000e-04
1.999942e-04 2.803635e-04 4.000000e-04
8.000000e-04 -2.000000e-04 4.000000e-04
6.343176e-04 -1.995786e-04 4.000000e-04
5.000000e-05 5.401924e-04 4.000000e-04
-3.000000e-04 -6.602540e-05 4.000000e-04
-4.000000e-04 -6.602540e-05 4.000000e-04
9.993887e-05 -2.391952e-04 4.000000e-04
-4.996062e-04 -6.625279e-05 4.000000e-04
-2.000000e-04 6.267949e-04 4.000000e-04
4.995268e-05 -3.256093e-04 4.000000e-04
9.995217e-05 -4.122069e-04 4.000000e-04
4.797666e-05 -4.925043e-04 4.000000e-04
4.000000e-04 8.000000e-04 -4.000000e-04
8.000000e-04 -1.000000e-04 4.000000e-04
1.498029e-04 5.401396e-04 4.000000e-04
-2.500000e-04 7.133975e-04 4.000000e-04
-6.008810e-04 6.302503e-04 4.000000e-04
2.000000e-04 6.267949e-04 4.000000e-04
-4.500947e-04 5.401830e-04 4.000000e-04
-5.000768e-04 6.274517e-04 4.000000e-04
5.487112e-04 -1.517253e-04 4.000000e-04
-6.469666e-04 7.179382e-04 4.000000e-04
-7.182526e-04 -6.542981e-04 4.000000e-04
6.469246e-04 -7.178692e-04 4.000000e-04
8.000000e-04 -2.098799e-15 4.000000e-04
7.180076e-04 6.469430e-04 4.000000e-04
5.486111e-04 3.573402e-04 4.000000e-04
5.419139e-04 2.105459e-05 4.000000e-04
-6.385717e-04 1.996215e-04 4.000000e-04
-6.380989e-04 -4.997269e-04 4.000000e-04
5.387355e-04 1.872787e-04 4.000000e-04
2.865548e-04 6.168862e-04 4.000000e-04
-6.356857e-04 1.017490e-05 4.000000e-04
6.077533e-04 -4.647133e-04 4.000000e-04
-6.343830e-04 -3.138061e-04 4.000000e-04
8.000000e-04 1.000000e-04 4.000000e-04
[...]
POINT_DATA 2204
VECTORS 10.000GHz_fone_imag double
3.587321e-07 3.797862e-07 3.028092e-07
4.478166e-07 6.489237e-07 3.347299e-07
4.488650e-07 6.491278e-07 3.306186e-07
3.987606e-11 -3.928474e-06 -1.788678e-06
4.498217e-07 -4.483173e-06 -3.326390e-06
-4.505085e-07 -4.486298e-06 -3.322881e-06
1.911268e-08 -4.603958e-06 -5.160373e-06
1.155548e-06 -4.481582e-06 -4.923043e-06
7.086939e-07 -4.089779e-06 -7.013197e-06
-7.082431e-07 -4.090739e-06 -7.016281e-06
4.629280e-08 -2.918935e-06 -8.994020e-06
-1.684522e-06 -2.854768e-06 -8.601673e-06
-9.360074e-07 -6.431320e-07 -1.015286e-05
4.656506e-07 8.224180e-07 3.317731e-07
9.350504e-07 -6.431242e-07 -1.015476e-05
4.970655e-08 1.975859e-06 -9.766432e-06
1.788178e-06 1.926693e-06 -9.325219e-06
-1.788816e-06 1.923697e-06 -9.323943e-06
7.736447e-07 3.640771e-06 -7.924040e-06
2.246915e-06 3.443005e-06 -7.213150e-06
3.218139e-06 1.760312e-06 -8.079228e-06
1.279904e-06 4.339614e-06 -5.799024e-06
2.377022e-06 3.890005e-06 -5.007102e-06
-2.065338e-06 -3.866826e-06 -6.380801e-06
4.477912e-07 9.970030e-07 3.251548e-07
2.582675e-08 4.439166e-06 -6.072807e-06
1.232258e-06 -3.440258e-06 -1.467559e-06
-3.067773e-06 -2.594861e-06 -7.434795e-06
-3.091145e-06 -3.317549e-06 -5.195007e-06
-3.943913e-06 -2.291119e-06 -5.751314e-06
1.479565e-06 4.302984e-06 -3.753605e-06
2.218931e-06 3.719218e-06 -3.081271e-06
3.113136e-06 3.203630e-06 -3.856891e-06
-3.645111e-06 -2.655976e-06 -3.739401e-06
-2.809731e-06 -3.325982e-06 -3.289679e-06
3.874007e-07 1.170170e-06 3.122107e-07
2.631416e-06 2.997437e-06 -2.203700e-06
3.372925e-06 2.477501e-06 -2.562554e-06
-3.049936e-06 -2.580081e-06 -2.165453e-06
-2.316674e-06 -2.959795e-06 -1.747451e-06
-4.229557e-06 -1.683209e-06 -3.929926e-06
-4.382243e-06 -4.688743e-07 -5.695141e-06
2.066246e-06 -3.868492e-06 -6.376266e-06
-6.641023e-07 -3.803387e-06 -1.705317e-06
1.431567e-06 3.654287e-06 -1.958718e-06
7.724143e-07 4.061502e-06 -2.264554e-06
2.859154e-07 1.313911e-06 2.992633e-07
-4.343496e-06 -3.148514e-07 -3.596526e-06
-4.366735e-06 1.152953e-06 -4.339464e-06
-2.351759e-06 -2.270507e-06 -9.810558e-07
-4.100102e-06 7.045938e-07 -2.579530e-06
-3.910016e-06 1.740868e-06 -2.685769e-06
-3.919418e-06 2.428947e-06 -4.247117e-06
-3.393918e-06 2.503549e-06 -2.653448e-06
-3.112501e-06 3.207228e-06 -3.874636e-06
-2.643382e-06 3.038126e-06 -2.292501e-06
-2.216863e-06 3.725636e-06 -3.099298e-06
1.524337e-07 1.409060e-06 2.898873e-07
-1.885674e-06 3.071295e-06 -1.505270e-06
-2.065086e-06 2.389313e-06 -8.741277e-07
-1.431850e-06 3.653464e-06 -1.961880e-06
2.648250e-06 2.276915e-06 -1.257766e-06
2.070738e-06 2.412682e-06 -9.530204e-07
3.109087e-06 1.776038e-06 -1.364129e-06
3.897342e-06 1.733113e-06 -2.645646e-06
-1.816592e-06 -2.320728e-06 -6.950604e-07
-2.906142e-06 -1.919784e-06 -1.234270e-06
1.974283e-06 1.797472e-06 -4.052183e-07
1.848817e-09 1.441828e-06 2.855368e-07
8.097747e-07 3.337675e-06 -1.100552e-06
2.904021e-07 3.604387e-06 -1.292101e-06
-1.223517e-06 2.926982e-06 -8.635382e-07
-1.761874e-06 -1.787651e-06 -2.834264e-07
-3.074422e-06 1.894327e-06 -1.407217e-06
3.303412e-07 2.776922e-06 -4.194063e-07
1.518105e-06 1.903009e-06 -2.258004e-07
1.036258e-06 -2.679250e-06 -5.507596e-07
1.625946e-06 -2.915009e-06 -1.105089e-06
-1.628848e-06 -2.917740e-06 -1.110922e-06
-1.526563e-07 1.409152e-06 2.901267e-07
1.501863e-06 2.453081e-06 -6.051361e-07
2.143578e-06 -4.020771e-06 -4.253648e-06
3.091840e-06 -3.321194e-06 -5.192551e-06
-3.909905e-06 -1.079551e-06 -2.196812e-06
2.810057e-06 -3.327270e-06 -3.287504e-06
3.644420e-06 -2.657662e-06 -3.738257e-06
3.049726e-06 -2.580592e-06 -2.164474e-06
3.626659e-06 -1.962392e-06 -2.291590e-06
4.228419e-06 -1.684019e-06 -3.929645e-06
3.907560e-06 -1.092392e-06 -2.200441e-06
-2.860599e-07 1.314077e-06 2.996921e-07
2.828399e-06 -1.870547e-06 -1.119351e-06
2.344486e-06 -2.260473e-06 -9.666515e-07
-2.376532e-06 3.889253e-06 -5.008907e-06
1.249525e-06 -2.229409e-06 -3.217972e-07
1.069500e-09 4.202244e-06 -2.384611e-06
-8.110855e-07 3.335073e-06 -1.100769e-06
-7.243625e-07 2.551636e-06 -3.420693e-07
-3.255332e-07 -2.471254e-06 -1.979896e-07
-1.221527e-06 -2.155371e-06 -2.654558e-07
3.327689e-06 1.107781e-06 -1.284114e-06
-3.874320e-07 1.170128e-06 3.124551e-07
2.080018e-06 -1.587347e-06 -3.686801e-07
1.724703e-06 -1.734970e-06 -2.383888e-07
3.068024e-06 -2.598920e-06 -7.435089e-06
-1.299518e-06 -4.199955e-06 -3.010891e-06
4.339223e-06 -2.999563e-07 -3.564535e-06
3.799094e-06 -1.696011e-07 -1.773478e-06
3.037245e-06 -5.917116e-07 -7.922836e-07
4.381616e-06 -4.697212e-07 -5.696278e-06
-1.033706e-06 -2.684969e-06 -5.552416e-07
1.398933e-06 1.397165e-06 3.996061e-08
4.645177e-07 8.200112e-07 3.358666e-07
-4.477652e-07 9.968095e-07 3.251830e-07
2.556807e-06 1.163207e-06 -5.633982e-07
7.377886e-07 2.486077e-06 -3.006504e-07
-3.371581e-07 2.770372e-06 -4.166477e-07
-9.068208e-07 2.123874e-06 -1.324691e-07
1.076402e-06 1.858926e-06 -5.307689e-08
1.662931e-06 1.188429e-06 -5.464414e-10
2.604573e-06 6.743521e-07 -4.515793e-07
2.330669e-06 -1.237639e-06 -4.147660e-07
1.490269e-06 -1.209458e-06 6.311479e-08
1.209020e-06 -1.303376e-06 1.295376e-07
-4.656124e-07 8.222998e-07 3.317566e-07
1.027326e-06 -9.201668e-07 2.563714e-07
3.887825e-07 2.114746e-06 2.152704e-09
-4.117702e-07 2.153577e-06 -2.141815e-08
-1.209174e-08 2.531193e-06 -2.142826e-07
8.035042e-07 1.983965e-06 -2.907637e-08
1.920711e-06 7.300647e-07 -3.453130e-08
1.397309e-07 1.968259e-06 1.010063e-07
1.711529e-06 -1.056028e-06 4.660670e-10
6.601737e-07 1.446352e-06 2.109204e-07
8.105019e-07 -1.973429e-06 -2.580872e-08
-4.488301e-07 6.490602e-07 3.306570e-07
2.365796e-06 -1.835251e-07 -1.605463e-07
-2.354481e-06 1.783440e-07 -1.543219e-07
-3.077506e-06 2.059285e-08 -7.414056e-07
-2.887474e-06 5.159984e-07 -6.332140e-07
-3.086560e-06 -5.953191e-07 -8.415827e-07
3.246739e-07 -1.824155e-06 1.448070e-07
-2.167762e-06 -4.976172e-07 -1.090462e-07
-2.506178e-06 -9.321836e-07 -4.564839e-07
-1.842744e-06 -7.084223e-07 9.338353e-09
-2.052871e-06 -1.106556e-06 -1.955881e-07
-4.092443e-07 4.999294e-07 3.190782e-07
-1.607022e-06 -1.135996e-06 2.937924e-08
-1.181665e-06 -7.891242e-07 2.426472e-07
-1.216795e-06 -1.032129e-06 1.937779e-07
-8.786563e-07 -9.038793e-07 2.831688e-07
-1.232608e-06 -1.356550e-06 1.077350e-07
-8.156365e-07 -1.077013e-06 2.687367e-07
-1.017654e-06 -1.539276e-06 1.086650e-07
-7.939642e-07 -1.631466e-06 1.221295e-07
6.535265e-07 -1.166212e-06 2.781977e-07
9.146726e-07 -1.623014e-06 9.527011e-08
-4.826286e-07 4.467986e-07 3.186585e-07
1.185231e-06 7.960887e-07 2.411905e-07
-6.559284e-07 1.175617e-06 2.759692e-07
-9.139086e-07 1.280833e-06 2.093633e-07
-8.271404e-07 9.445297e-07 2.854178e-07
-1.195074e-06 1.298043e-06 1.353083e-07
-1.301031e-06 1.767390e-06 -6.991847e-08
-1.715938e-06 1.675110e-06 -2.048147e-07
-2.365726e-06 2.010575e-06 -7.981704e-07
-1.896284e-06 1.443668e-06 -2.045339e-07
-1.011910e-06 9.171015e-07 2.599835e-07
-6.434730e-07 5.098427e-07 3.266602e-07
-1.455204e-06 2.370248e-06 -5.177807e-07
-3.820767e-06 -5.629177e-07 -7.674629e-06
3.919318e-06 2.428688e-06 -4.239158e-06
1.094550e-06 1.425873e-06 1.256470e-07
1.005338e-06 1.054115e-06 2.371880e-07
7.663466e-07 1.021542e-06 2.846545e-07
-9.147172e-07 1.622858e-06 9.476624e-08
-5.529969e-07 1.899467e-06 7.346841e-08
-1.478163e-06 4.303423e-06 -3.757073e-06
-3.340181e-06 3.005650e-06 -5.871465e-06
-8.410540e-07 5.543697e-07 3.177168e-07
3.098313e-06 -1.292223e-06 -1.100359e-06
1.258286e-06 2.966096e-06 -9.204347e-07
2.149536e-06 -4.897685e-07 -9.695970e-08
3.341097e-06 3.006868e-06 -5.866026e-06
-1.231768e-06 -3.439879e-06 -1.467931e-06
1.298675e-06 -4.195716e-06 -3.015425e-06
-2.648552e-06 -5.967493e-07 -9.211945e-06
3.278389e-06 4.208257e-07 -1.011987e-06
5.117756e-07 4.594578e-06 -4.143102e-06
1.685366e-06 -2.858559e-06 -8.601802e-06
-1.067788e-06 5.732635e-07 2.879500e-07
1.895341e-06 3.076528e-06 -1.519206e-06
3.942923e-06 -2.293357e-06 -5.751636e-06
-7.737460e-07 3.638967e-06 -7.924729e-06
-1.493661e-06 7.983471e-07 1.433402e-07
-2.099543e-06 1.127870e-06 -2.289536e-07
-3.218562e-06 1.758159e-06 -8.079001e-06
-3.634454e-06 -1.965261e-06 -2.307691e-06
-1.156506e-06 -4.489873e-06 -4.925104e-06
2.647960e-06 -5.972384e-07 -9.214675e-06
1.949536e-06 -3.648802e-06 -2.464842e-06
-1.306159e-06 5.263144e-07 2.409722e-07
-2.246567e-06 3.440434e-06 -7.215154e-06
-4.096799e-06 1.606688e-06 -6.340844e-06
-1.950519e-06 -3.650525e-06 -2.465758e-06
-2.140989e-06 4.876479e-07 -9.223539e-08
-3.311344e-07 -1.827196e-06 1.422887e-07
2.325445e-06 1.585047e-06 -5.326233e-07
2.316937e-06 -2.959732e-06 -1.746734e-06
1.792658e-06 -2.307761e-06 -6.689197e-07
3.819603e-06 -5.633978e-07 -7.676539e-06
-2.143737e-06 -4.023086e-06 -4.256733e-06
-1.527976e-06 4.097593e-07 1.934710e-07
-2.498534e-06 8.827358e-07 -4.371800e-07
-2.399956e-07 -3.218000e-06 -8.171615e-07
4.096996e-06 1.608802e-06 -6.339349e-06
4.366325e-06 1.153138e-06 -4.333587e-06
-1.279360e-06 4.339094e-06 -5.800842e-06
4.050523e-06 7.225860e-07 -2.436216e-06
6.066267e-07 -2.271228e-06 -1.282190e-07
-5.115809e-07 4.595108e-06 -4.144152e-06
-7.732886e-07 4.061639e-06 -2.268272e-06
-2.799505e-07 3.608912e-06 -1.298895e-06
4.454811e-07 1.000823e-06 3.302422e-07
-1.696861e-06 2.269756e-07 1.641580e-07
-6.843711e-07 -3.027599e-06 -7.252803e-07
4.957025e-07 -1.645600e-06 1.819412e-07
8.249275e-07 -9.423622e-07 2.858230e-07
-6.068865e-07 -2.272143e-06 -1.291850e-07
1.301032e-06 -1.766773e-06 -6.958975e-08
9.108693e-07 -1.276312e-06 2.110752e-07
-3.341767e-06 1.111645e-06 -1.301030e-06
5.744497e-07 -6.881310e-07 3.276395e-07
6.408867e-07 6.226788e-07 3.259782e-07
-5.747273e-07 6.883704e-07 3.277219e-07
-1.762284e-06 1.071889e-10 1.553247e-07
-6.561484e-07 -6.305133e-07 3.253650e-07
-2.143611e-06 -1.601250e-06 -4.153868e-07
-3.840945e-06 -1.907292e-07 -1.860599e-06
2.470415e-06 -8.647872e-07 -4.115170e-07
1.209287e-06 1.016402e-06 1.988244e-07
-3.213259e-06 -1.334849e-06 -1.241637e-06
-8.223448e-07 -2.075079e-06 -7.947410e-08
3.046046e-06 -5.474608e-08 -7.071815e-07
-1.425505e-06 1.175570e-06 9.638898e-08
1.999747e-06 1.106572e-06 -1.631453e-07
-1.697102e-06 -2.269133e-07 1.645413e-07
8.623079e-07 -6.814512e-07 3.089609e-07
-8.576514e-07 6.820307e-07 3.096851e-07
-5.914245e-07 -8.730095e-07 3.208446e-07
2.024475e-06 4.484565e-07 -2.023328e-08
1.428532e-06 -7.392406e-07 1.752591e-07
-5.562408e-07 -1.325284e-06 2.604609e-07
-1.415314e-06 -1.847821e-06 -1.526034e-07
-5.015309e-07 -5.348831e-07 3.250095e-07
5.015165e-07 -5.348544e-07 3.249985e-07
5.016343e-07 5.349335e-07 3.250145e-07
-1.527957e-06 -4.095230e-07 1.936097e-07
-5.015747e-07 5.348814e-07 3.250912e-07
-1.564449e-06 1.056418e-06 6.627544e-08
-2.408731e-06 1.572335e-06 -5.905394e-07
-2.770235e-06 2.466540e-06 -1.582663e-06
-3.552242e-06 3.782998e-07 -1.373491e-06
2.868538e-07 1.670479e-06 2.051350e-07
-3.052991e-07 1.670381e-06 2.036384e-07
8.597649e-07 1.389526e-06 1.916485e-07
5.665927e-07 8.423137e-07 3.246051e-07
-2.609616e-06 -1.380546e-06 -6.764563e-07
-1.305890e-06 -5.260060e-07 2.407099e-07
-1.583895e-06 -1.351406e-06 -1.639945e-08
-2.665033e-06 1.328856e-06 -7.055188e-07
7.542493e-07 8.091888e-07 3.086447e-07
-4.253523e-07 1.471145e-06 2.465089e-07
-3.447100e-09 3.127628e-06 -7.092995e-07
1.099269e-06 2.389645e-06 -3.640456e-07
1.144777e-07 -5.330878e-07 6.352657e-08
-4.447668e-07 -4.307944e-06 -1.598542e-06
-6.713959e-07 1.648015e-07 1.597695e-07
3.603184e-07 -8.584286e-07 1.567119e-07
-1.067583e-06 -5.730523e-07 2.876176e-07
-3.344887e-08 -2.606581e-07 1.871500e-07
-1.539652e-07 -2.129699e-07 2.204058e-07
3.242858e-07 -2.232898e-07 5.157668e-08
1.525357e-05 -7.485350e-06 1.418669e-06
-3.399768e-05 3.622434e-06 -3.931684e-06
-2.122144e-06 5.409153e-06 3.114053e-06
1.116273e-05 4.133764e-06 4.075916e-06
-5.444953e-07 -1.054630e-05 1.233190e-05
-1.829016e-05 1.466760e-07 -1.715257e-06
-1.371182e-06 5.984506e-06 2.933149e-06
-8.409970e-07 -5.543096e-07 3.174068e-07
-7.861102e-06 1.768595e-05 -9.061017e-06
-1.353216e-06 -2.704571e-05 -2.550156e-05
1.011761e-05 -2.371748e-05 -3.135952e-05
5.285234e-06 1.459009e-05 -5.406327e-06
-1.067939e-05 1.658638e-05 -1.246228e-05
9.533290e-06 3.280260e-06 2.604070e-06
1.373824e-05 -1.342978e-05 -1.341099e-05
-5.079573e-06 -1.517539e-05 -6.534436e-06
1.475632e-06 -4.556267e-06 2.410019e-06
5.221585e-06 1.243336e-05 -3.922737e-06
-6.434558e-07 -5.098463e-07 3.265131e-07
1.833046e-06 -1.825212e-06 2.183542e-06
-1.391357e-06 -6.539300e-06 1.986828e-06
-5.570399e-06 -2.674564e-06 2.575154e-06
-1.418284e-06 1.559179e-06 2.027379e-06
-6.609929e-06 -2.734870e-06 2.294226e-06
-1.994661e-07 5.637149e-06 2.554307e-06
1.901562e-06 -1.772364e-06 1.886243e-06
1.255746e-06 -5.046445e-06 2.514024e-06
-3.760940e-06 2.313659e-06 2.173744e-06
1.473566e-06 3.701219e-06 2.120359e-06
-4.826108e-07 -4.468097e-07 3.185725e-07
-1.385052e-06 -1.505191e-06 1.931297e-06
4.110227e-06 -1.185979e-05 -3.990559e-06
7.966932e-07 5.302475e-06 2.584560e-06
-6.736467e-06 -1.058686e-05 -4.303425e-06
7.314267e-06 -2.355052e-06 5.194690e-06
2.192369e-06 1.840469e-06 1.815926e-06
3.537444e-06 1.847633e-05 -2.556482e-05
1.606989e-05 -2.842943e-06 -1.383004e-05
-3.458051e-07 1.802251e-05 -2.768787e-05
-1.575559e-06 -1.496298e-06 1.791577e-06
3.190726e-07 3.382167e-07 4.255323e-07
1.218006e-06 1.317029e-06 1.707741e-06
5.933924e-06 -1.067592e-05 -4.725374e-06
-5.649870e-06 2.496992e-06 2.196456e-06
2.692151e-07 -5.088054e-06 2.232696e-06
-1.181565e-05 -9.322809e-06 -1.598814e-05
1.153595e-05 9.248771e-06 -1.351044e-05
-7.740048e-07 8.453110e-07 1.944028e-06
-2.577512e-06 -5.461577e-06 6.578430e-07
4.080980e-08 -4.696477e-06 2.023257e-06
3.846808e-06 -1.981338e-06 1.610664e-06
3.852236e-07 1.174474e-06 3.170895e-07
2.435905e-07 2.581390e-07 5.435101e-07
-3.313460e-06 8.805797e-06 -2.141643e-06
7.413107e-06 -3.581764e-07 7.902740e-06
5.036460e-06 5.088747e-06 -4.915289e-07
-7.763969e-08 2.524773e-06 5.693177e-06
-9.628558e-06 -3.962443e-06 -2.434985e-05
1.556057e-06 7.248868e-07 4.715681e-06
-1.281608e-06 9.816261e-06 -2.391172e-06
-4.538164e-06 6.846859e-06 -1.546535e-06
-1.411627e-06 -1.119036e-05 -4.138501e-06
4.401032e-07 -1.047621e-05 -3.184674e-06
1.331374e-07 1.404504e-07 6.313743e-07
-1.000417e-05 7.233441e-06 -7.717781e-06
5.918194e-06 5.690860e-06 -1.563383e-06
8.721338e-06 -4.356031e-06 -2.571988e-05
-7.014488e-06 -1.713795e-06 -2.769718e-05
-1.197396e-06 -2.459522e-06 1.457454e-06
5.295867e-06 -4.429519e-06 -3.444865e-07
1.019848e-06 2.564445e-06 2.559731e-06
-6.093266e-08 1.054247e-05 -3.698354e-06
9.151077e-06 8.769141e-06 -1.441251e-05
9.055084e-07 3.519323e-07 5.669048e-06
-1.061671e-09 -1.720290e-09 6.641631e-07
-8.739742e-06 5.336933e-06 -3.002913e-06
-4.286333e-06 1.187155e-06 6.288335e-06
-4.026198e-08 2.459953e-08 4.837079e-06
-1.945074e-05 -1.890457e-05 4.017486e-08
-6.262283e-06 -6.290939e-06 -2.550896e-06
1.094701e-05 -9.055446e-07 -3.656288e-06
-2.899325e-07 7.529341e-07 3.784501e-06
-4.672556e-07 -1.261521e-06 3.834624e-06
-6.039781e-06 -2.690124e-07 9.607784e-07
2.888999e-07 3.338173e-07 1.817403e-06
-1.341705e-07 -1.432291e-07 6.302289e-07
1.341855e-06 7.240017e-06 7.540315e-07
-1.036550e-05 -5.805227e-06 -9.510283e-06
-2.754763e-07 1.815648e-06 4.972771e-06
-2.674698e-06 -3.819650e-05 -8.311453e-07
-6.919159e-07 -3.378172e-06 1.652899e-06
1.509959e-05 -2.849886e-05 -1.296355e-05
1.167506e-05 1.267445e-05 -1.108608e-06
-3.676234e-06 -4.235738e-06 9.966269e-08
-4.471735e-05 4.664840e-06 -1.340399e-04
-1.043827e-06 2.329690e-06 1.245086e-06
-2.449763e-07 -2.602313e-07 5.412187e-07
4.667286e-06 -6.987604e-06 8.845659e-07
3.276122e-06 1.602115e-06 1.296474e-06
-6.160626e-06 -2.189440e-05 -2.640499e-06
4.605719e-06 -1.770568e-09 7.785185e-06
-3.186911e-06 -7.039274e-07 7.390698e-06
1.369784e-05 -3.030933e-05 -1.115847e-05
1.316776e-07 -1.531056e-07 1.787005e-06
-4.382247e-06 1.309265e-05 -1.134916e-07
7.506560e-06 -4.941670e-06 -2.768695e-06
-1.077397e-06 1.860959e-06 1.200296e-06
-3.203975e-07 -3.391797e-07 4.228566e-07
-2.186489e-07 -4.155680e-07 2.865877e-06
6.721187e-07 -3.426798e-07 4.179921e-06
1.071016e-06 -1.841797e-06 1.166508e-06
-1.819357e-05 4.539939e-05 -2.712610e-05
3.106458e-06 1.547392e-06 1.226483e-06
-4.237468e-07 4.259863e-06 1.048038e-06
9.779252e-07 1.445565e-06 1.277319e-06
4.839925e-07 -1.192099e-06 3.180509e-06
-1.484145e-06 -7.019886e-06 -1.011315e-06
8.620912e-06 -5.549603e-06 -1.693906e-05
-3.190387e-07 3.381784e-07 4.255887e-07
-2.419508e-06 -1.476268e-06 1.187779e-06
-4.518482e-08 -2.867844e-07 4.551685e-06
1.257282e-06 8.122523e-06 -2.251219e-06
-6.122891e-09 -2.301228e-07 5.209775e-06
-1.229397e-06 4.076584e-06 9.347904e-07
-2.156297e-06 -1.350034e-06 1.099781e-06
-7.668386e-06 1.480504e-05 -3.524182e-07
7.301602e-08 -4.877930e-07 4.553844e-06
2.332513e-06 1.401635e-05 5.099342e-07
-3.298215e-06 2.884700e-06 5.642787e-07
-2.435490e-07 2.580912e-07 5.435357e-07
-3.128763e-07 -3.191198e-06 1.188223e-06
-7.968394e-07 -1.159839e-05 -1.304245e-05
-4.158427e-06 4.816824e-06 -8.687106e-07
7.805038e-06 1.027218e-06 -1.101268e-06
5.085820e-06 -1.114844e-06 8.218023e-07
-5.698410e-06 1.224956e-06 2.107221e-07
3.003877e-07 -3.198496e-07 1.532225e-06
-2.185581e-06 3.168600e-05 -5.647672e-06
4.058068e-07 2.396278e-06 3.400362e-06
2.412307e-06 5.567572e-06 -3.120015e-07
-1.330996e-07 1.404071e-07 6.313445e-07
-4.776662e-06 -8.651195e-07 9.019526e-07
-3.451935e-06 1.086051e-05 -9.420623e-06
3.722981e-06 -3.699930e-06 -1.068536e-07
-4.775294e-06 -1.289401e-05 -3.559395e-08
-1.086857e-06 -2.077449e-06 1.164605e-06
5.777437e-06 9.554118e-06 -1.453047e-05
-1.014104e-05 -2.864254e-07 -7.062659e-06
2.803825e-06 -1.505794e-06 1.668309e-06
3.091343e-06 -5.621175e-06 -1.110160e-06
4.685482e-06 5.547694e-07 7.661478e-07
1.075987e-09 -1.720835e-09 6.640661e-07
-4.678616e-06 -1.046921e-05 -1.116381e-05
7.781589e-06 4.974907e-06 -4.168803e-06
1.173902e-06 1.551271e-05 -1.663220e-07
-1.511374e-06 1.204200e-06 1.047503e-06
5.070487e-05 3.844081e-05 -1.098529e-05
3.482816e-06 -1.048005e-05 -1.204676e-05
-9.617678e-07 -2.166540e-07 6.555670e-06
-2.138987e-05 1.201505e-05 1.064397e-07
-9.549876e-06 3.646478e-06 -1.175770e-05
1.003507e-06 -1.669015e-06 1.087005e-06
2.842446e-07 1.318404e-06 3.034619e-07
1.341444e-07 -1.431712e-07 6.301029e-07
-1.197716e-05 -2.461729e-05 -4.523379e-07
3.183985e-06 6.654723e-06 -2.138899e-06
8.904041e-07 -7.495495e-06 -2.029229e-06
-4.774126e-06 8.276832e-07 5.438841e-06
-1.928498e-06 1.089003e-05 -1.013286e-05
-7.143115e-07 -2.895692e-06 -2.392919e-05
-1.051322e-07 -1.879728e-06 3.982243e-06
3.501729e-08 1.405213e-08 2.296856e-06
5.811936e-06 -7.152961e-06 -5.466648e-06
8.924228e-07 -9.070077e-07 9.364596e-07
2.449267e-07 -2.601401e-07 5.411172e-07
-2.337203e-05 2.178075e-05 -1.047558e-05
7.432277e-07 -8.098547e-07 9.758045e-07
2.403231e-06 3.755412e-06 4.857406e-06
7.423856e-07 2.570817e-06 1.061365e-06
1.586994e-06 1.179498e-06 9.851930e-07
2.077511e-06 -6.913458e-06 -1.536340e-06
7.351723e-07 2.576757e-06 9.747841e-07
4.809942e-07 -9.350368e-06 8.339577e-06
3.735411e-05 8.009198e-06 -4.085721e-05
2.078328e-06 2.916104e-06 7.007541e-07
3.203526e-07 -3.390993e-07 4.227985e-07
2.636576e-06 3.422116e-06 2.398501e-07
-7.133541e-06 7.348253e-06 -1.431901e-05
-1.766230e-06 1.106103e-06 1.882577e-06
8.772612e-07 -1.301501e-05 6.440720e-06
-1.178518e-05 3.116817e-05 -1.944157e-06
4.521878e-06 -8.400284e-07 8.133833e-07
-4.377679e-06 -3.597573e-06 1.617848e-06
1.787640e-06 -1.295476e-06 1.004736e-06
2.924740e-06 -8.382464e-07 4.359127e-06
4.047245e-06 -2.807950e-07 -2.188251e-05
-3.191083e-07 -3.382440e-07 4.255555e-07
-3.054745e-06 5.199824e-06 2.080324e-06
8.965457e-07 8.855985e-07 8.592146e-07
4.939492e-07 -2.989453e-06 1.108380e-06
-7.325674e-07 -7.924911e-07 8.791782e-07
-7.575432e-07 8.208860e-07 8.927660e-07
4.058180e-06 -9.578259e-06 -1.064340e-05
-2.101828e-05 3.744095e-05 -4.486942e-05
3.149298e-06 9.680085e-06 -8.777819e-06
-2.970022e-06 1.252686e-06 8.606866e-07
8.527713e-07 -3.698015e-06 7.073453e-07
-2.436163e-07 -2.581628e-07 5.435412e-07