# vtk DataFile Version 2.0
Electric current density generated by TTH
ASCII
DATASET UNSTRUCTURED_GRID
POINTS 1342 double
1.346432e-05 -3.297808e-21 -5.641991e-22
1.059299e-05 8.311232e-06 -5.641991e-22
-7.820958e-07 8.822689e-06 0.000000e+00
1.196873e-05 5.858495e-06 7.872206e-07
-9.892278e-06 3.251312e-06 2.178718e-06
4.658301e-06 9.327703e-06 2.183246e-06
1.195375e-05 -5.890495e-06 -7.853895e-07
-1.075144e-05 -7.907850e-06 7.274448e-07
-4.894429e-06 9.126241e-06 -2.158298e-06
7.816968e-06 6.022228e-06 -1.906350e-06
-1.162316e-05 -2.943240e-07 -2.255872e-06
6.574400e-06 1.098165e-05 1.619216e-06
-1.037970e-05 -1.522108e-06 2.203898e-06
-8.857399e-06 6.049940e-10 -2.280933e-08
2.942476e-06 1.129505e-05 -2.246071e-06
-8.447204e-06 -1.036598e-05 -6.457999e-07
1.067036e-05 -3.323535e-06 -2.303468e-06
-1.112170e-05 9.042142e-07 2.303516e-06
-8.264925e-06 3.583763e-06 8.207349e-07
7.516870e-06 -1.019022e-05 -1.746568e-06
1.497988e-06 9.814007e-06 1.945657e-06
-1.252608e-05 -4.555340e-06 -7.787803e-07
1.262752e-06 -8.785460e-06 -2.910281e-07
4.438295e-06 1.175123e-05 1.828769e-06
3.654731e-06 -8.924754e-06 -1.733708e-06
-7.715371e-06 4.390276e-06 -3.008668e-07
-1.923159e-06 -1.100208e-05 2.303503e-06
-8.957384e-06 -5.472839e-06 -2.205796e-06
-1.691571e-06 1.213142e-05 2.030390e-06
-5.642859e-06 -9.352550e-06 -2.291210e-06
-1.047346e-05 -5.970699e-06 2.122534e-06
-4.388145e-06 1.195332e-05 1.683257e-06
-3.411675e-06 1.078899e-05 -2.298314e-06
-6.842415e-06 1.148776e-05 6.485525e-07
-9.891838e-06 -4.890050e-06 -2.300054e-06
6.847855e-06 7.892276e-06 -2.190775e-06
-1.183348e-05 1.979408e-06 -2.146038e-06
-7.633400e-06 5.116709e-06 -1.191936e-06
9.840772e-06 3.794405e-06 -2.220222e-06
-5.984009e-06 6.617861e-06 5.427195e-07
-1.052306e-05 -8.256370e-06 -6.336940e-07
-5.866470e-06 1.197239e-05 -7.682653e-07
-8.821098e-06 -8.097373e-07 -6.432289e-08
1.705803e-06 -1.245469e-05 1.821439e-06
-8.822099e-06 -4.005245e-06 -1.771773e-06
-6.170294e-06 -8.829294e-06 -2.270412e-06
-8.217045e-06 -1.008354e-05 -1.376784e-06
6.314570e-06 -6.377665e-06 -7.265771e-07
1.199777e-06 -1.019524e-05 -2.122450e-06
-1.166672e-05 -6.499585e-06 -7.011013e-07
9.179651e-06 6.733876e-06 -2.292612e-06
1.113886e-05 -3.879511e-06 2.214460e-06
-7.034901e-06 -5.649161e-06 -8.562829e-07
8.201162e-06 -1.055267e-05 -6.697815e-07
5.506640e-07 9.178595e-06 1.200915e-06
-1.154769e-05 6.711723e-06 -6.964594e-07
2.096618e-06 1.091754e-05 2.303102e-06
-8.001703e-06 -3.801502e-06 -8.400047e-08
4.019675e-06 8.261179e-06 -1.187909e-06
-9.460083e-06 -8.527888e-06 1.680305e-06
-1.330537e-05 -1.149585e-06 -7.013997e-07
-1.227531e-05 5.191390e-06 7.808590e-07
-8.653311e-06 -2.761448e-06 -9.949641e-07
-2.472290e-07 -1.337670e-05 -6.211703e-07
-1.256641e-05 1.423995e-06 -1.760090e-06
8.842088e-06 9.303026e-06 -1.582516e-06
6.296881e-06 -7.987507e-06 2.080060e-06
1.166942e-05 -3.678459e-06 -2.037477e-06
7.833519e-06 -6.761892e-06 2.155463e-06
5.767946e-06 1.130673e-05 -1.720080e-06
-9.102203e-06 9.746746e-06 7.580708e-07
1.624039e-06 -1.094793e-05 -2.301636e-06
-8.187200e-06 3.722122e-06 -7.805914e-07
-1.216801e-05 -3.918315e-06 -1.635115e-06
1.174089e-05 4.414954e-06 -1.842347e-06
-9.878818e-06 5.948053e-06 2.273531e-06
6.597844e-06 -6.509537e-06 -1.313578e-06
-1.136912e-05 5.587565e-06 1.742009e-06
1.001082e-05 1.790375e-06 2.079382e-06
9.382418e-06 -6.417240e-06 -2.294262e-06
5.612604e-06 7.932067e-06 1.794843e-06
7.451107e-06 -6.291321e-06 1.822418e-06
-7.291497e-06 -5.669780e-06 1.266146e-06
1.139227e-05 -5.152139e-06 -1.871988e-06
-8.204995e-07 -9.446409e-06 -1.577254e-06
8.994854e-06 -7.916287e-06 -2.152063e-06
-8.792734e-06 -1.484112e-06 -5.215432e-07
1.085795e-05 7.797273e-06 6.605101e-07
9.805617e-06 -4.649691e-06 2.282749e-06
9.638037e-06 -1.907719e-06 1.876671e-06
8.573851e-06 5.860475e-06 2.169080e-06
1.842671e-06 1.236409e-05 1.873770e-06
-8.462314e-06 -9.602036e-06 1.619596e-06
5.705878e-06 1.145698e-05 1.619216e-06
-8.453654e-06 1.037390e-05 -6.097523e-07
-8.421057e-06 9.369923e-06 1.800182e-06
6.313881e-07 1.334665e-05 6.803055e-07
6.177559e-06 -6.864002e-06 1.263212e-06
-8.018289e-06 -6.603177e-06 -2.169747e-06
7.756414e-06 -7.076514e-06 -2.206545e-06
-1.098940e-05 8.206939e-07 -2.299210e-06
-2.896375e-06 -9.021915e-06 1.570266e-06
-1.757221e-06 -1.180528e-05 -2.169395e-06
-1.323104e-05 1.768349e-06 7.206693e-07
-1.025366e-05 -5.899926e-06 -2.204199e-06
-9.175695e-06 -7.155263e-06 2.254019e-06
-1.815825e-07 -1.276324e-05 1.653558e-06
-9.660506e-06 8.387091e-06 1.625155e-06
1.231430e-05 7.530958e-07 -1.980414e-06
8.065484e-06 1.068043e-05 -6.040766e-07
-1.045564e-05 4.748036e-06 2.280842e-06
1.332769e-05 7.402312e-07 -7.220528e-07
9.950254e-06 9.070855e-06 -5.641991e-22
-6.658399e-06 5.852494e-06 1.867886e-07
-1.146684e-05 -4.910168e-06 -1.892611e-06
1.187439e-05 -4.978468e-06 1.537850e-06
-2.228394e-06 8.932385e-06 1.218824e-06
-6.959479e-06 -6.762975e-06 -1.784545e-06
-1.037897e-05 8.395889e-06 -7.176417e-07
-2.464240e-07 1.185434e-05 2.195825e-06
5.254087e-06 -9.756801e-06 -2.302154e-06
2.850402e-06 -9.550099e-06 1.969670e-06
-8.822546e-06 8.307762e-07 -1.404953e-07
-6.987921e-07 -1.270700e-05 -1.689894e-06
1.211390e-06 9.312215e-06 1.474057e-06
8.839549e-06 6.516911e-06 2.296580e-06
1.290982e-05 -7.285270e-07 1.474738e-06
8.062250e-06 -9.576505e-06 -1.860977e-06
5.383290e-06 -7.336773e-06 1.028998e-06
-1.208232e-05 4.289282e-06 -1.596763e-06
1.142564e-05 5.755721e-06 1.624959e-06
6.309250e-06 7.167561e-06 1.645540e-06
-1.289374e-05 1.087648e-07 -1.517085e-06
-1.274190e-05 -9.946296e-07 1.637758e-06
-9.934316e-06 -7.641230e-06 1.850121e-06
1.112447e-05 5.276880e-06 -1.994905e-06
-1.046341e-05 5.456830e-06 -2.212813e-06
3.642088e-06 -9.604478e-06 -2.125075e-06
-5.473332e-06 -7.339819e-06 1.134244e-06
7.006470e-06 -5.420815e-06 7.955251e-08
1.172683e-05 5.348598e-06 -1.523009e-06
-2.115214e-06 -9.469621e-06 1.783521e-06
7.615751e-06 7.477968e-06 -2.251344e-06
7.720077e-06 -4.342007e-06 1.682522e-08
-7.954038e-06 -4.102284e-06 6.456002e-07
8.978776e-06 -3.997623e-06 1.879137e-06
4.280207e-06 7.854292e-06 6.290275e-07
1.726969e-06 -1.327558e-05 5.901629e-07
-8.304412e-06 -3.357064e-06 -6.713740e-07
9.036553e-06 -3.107623e-06 1.652486e-06
-1.124949e-05 -1.714056e-06 2.293129e-06
-5.967449e-06 -1.198425e-05 -5.888554e-07
2.702729e-06 -1.311199e-05 -5.894034e-07
3.773460e-07 -1.133364e-05 -2.296544e-06
1.100640e-05 7.494288e-06 -8.142882e-07
5.335236e-06 -8.045668e-06 1.742238e-06
-8.563571e-06 1.025376e-05 6.871932e-07
1.146461e-05 -4.490206e-06 1.994905e-06
8.175561e-06 -8.389300e-06 -2.236081e-06
9.217305e-06 -1.895620e-06 -1.497204e-06
4.843034e-06 1.243848e-05 -7.225710e-07
-1.235368e-06 1.333174e-05 -5.847913e-07
6.416493e-06 -6.293968e-06 7.651290e-07
1.094584e-05 -6.325925e-06 -1.763871e-06
-3.434430e-06 1.152822e-05 -2.133671e-06
8.700955e-06 -5.291975e-06 2.086105e-06
1.326193e-05 -1.567469e-06 7.035833e-07
-9.719144e-06 -9.156615e-06 7.071207e-07
3.837214e-06 -8.397051e-06 1.259730e-06
1.328677e-05 -1.026744e-06 -7.851616e-07
1.330675e-05 9.231298e-07 7.502198e-07
5.752678e-06 -7.456384e-06 -1.505787e-06
4.263528e-07 -9.867367e-06 1.912314e-06
1.228211e-05 4.097517e-06 -1.453829e-06
-4.478548e-06 1.129547e-05 2.079867e-06
-4.029001e-06 9.412569e-06 -2.110869e-06
-1.661853e-07 1.276999e-05 -1.647194e-06
-2.250388e-06 9.907904e-06 2.074873e-06
2.999016e-06 8.358400e-06 -3.236962e-07
5.160013e-06 -8.052333e-06 -1.660028e-06
-5.027506e-06 -7.465823e-06 -8.003487e-07
-2.184186e-06 -1.184139e-05 2.128661e-06
-8.553425e-06 -7.766516e-06 2.269824e-06
-1.542991e-06 8.722489e-06 -5.376701e-08
3.257114e-06 8.505246e-06 -1.044252e-06
1.145292e-05 3.475205e-06 2.157248e-06
-9.901772e-06 -7.947613e-06 -1.716625e-06
-7.536209e-06 -8.870042e-06 2.253283e-06
-1.111091e-05 -8.361448e-07 -2.303443e-06
-1.219098e-05 5.416419e-06 -7.463001e-07
1.242473e-05 -3.906494e-06 -1.353974e-06
-1.207331e-05 -4.655703e-06 1.463252e-06
8.662161e-06 2.414012e-06 7.768855e-07
-7.671122e-06 -7.527821e-06 2.266182e-06
7.589866e-06 -5.077503e-06 -1.090295e-06
-2.701998e-06 8.723073e-06 -1.090875e-06
3.422319e-06 1.249975e-05 -1.438699e-06
8.913899e-06 5.161474e-06 2.136800e-06
-1.334960e-05 1.010778e-06 -5.887567e-07
1.085608e-05 -7.845266e-06 -5.643064e-07
-7.163403e-07 8.946808e-06 7.282699e-07
1.242473e-05 3.906494e-06 1.353974e-06
-5.560947e-06 1.155357e-05 -1.595596e-06
9.603598e-06 -5.520238e-07 -1.711847e-06
8.707273e-07 1.272561e-05 -1.662397e-06
-6.425433e-06 -7.012322e-06 1.607573e-06
-7.486503e-06 1.106369e-05 6.897423e-07
-7.881149e-06 6.970199e-06 2.212946e-06
-4.768412e-06 -8.736603e-06 -1.961596e-06
-1.257940e-05 -2.040657e-06 1.673375e-06
9.657167e-06 8.479196e-06 1.564669e-06
-5.333586e-06 1.029339e-05 2.262582e-06
-6.940679e-06 -7.368560e-06 2.056331e-06
-8.126087e-06 -7.439901e-06 -2.299056e-06
2.999268e-06 9.144635e-06 -1.715867e-06
-6.239324e-06 1.120244e-05 1.594992e-06
9.976564e-06 8.872866e-06 7.124145e-07
-1.174730e-05 3.634708e-07 -2.226116e-06
2.985690e-06 1.259829e-05 1.454238e-06
-5.895876e-06 -6.620299e-06 -1.893735e-07
-1.149044e-06 1.332467e-05 6.383083e-07
1.993156e-06 8.900307e-06 1.069759e-06
7.260115e-06 -1.125534e-05 5.659018e-07
9.253176e-06 9.780935e-06 -5.641991e-22
8.068326e-06 -3.654264e-06 0.000000e+00
-9.269002e-06 6.411136e-06 -2.300919e-06
9.265163e-06 1.389254e-06 -1.447306e-06
9.511811e-06 -6.649349e-06 2.260179e-06
-1.899178e-06 -1.095848e-05 -2.303188e-06
-1.339440e-05 -6.973934e-20 5.632598e-07
-4.607638e-06 9.043424e-06 2.069688e-06
9.390967e-06 -5.359285e-06 2.277047e-06
-9.187908e-06 -5.331991e-08 -1.189321e-06
5.242347e-06 9.788259e-06 -2.302810e-06
1.253794e-05 2.785270e-06 -1.573040e-06
-1.814390e-07 -9.817034e-06 -1.872159e-06
1.030265e-05 7.516559e-06 -1.664506e-06
-6.313416e-06 1.104174e-05 -1.696307e-06
-1.183970e-05 4.918171e-06 1.597309e-06
8.085451e-07 -1.292658e-05 1.448573e-06
-1.034061e-05 1.942127e-07 -2.153244e-06
8.946315e-07 8.987680e-06 -8.802245e-07
8.246227e-06 -3.489681e-06 6.612092e-07
[...]
POINT_DATA 1342
VECTORS 10.000GHz_fone_imag double
7.705944e-04 4.152498e-05 2.528146e-02
6.126936e-04 1.177491e-03 2.766324e-02
-1.390220e-03 2.342866e-03 -9.939700e-02
-8.973381e-03 -4.604218e-03 2.515740e-02
5.495064e-02 -1.796167e-02 -2.393976e-02
-2.380775e-02 -4.756169e-02 -1.947465e-02
9.378212e-03 -5.194654e-03 2.731608e-02
7.379080e-03 5.484411e-03 2.802644e-02
-2.802620e-02 4.802267e-02 -2.547172e-02
4.466287e-02 3.508847e-02 -4.598791e-02
-4.597062e-02 -2.515639e-03 6.281151e-03
-1.126662e-02 -1.931879e-02 2.058573e-02
5.873484e-02 1.144094e-02 -2.323795e-02
-2.483155e-03 -1.887212e-03 -9.124006e-02
1.141351e-02 4.429342e-02 6.593675e-03
-4.088894e-03 -5.960301e-03 2.487639e-02
4.583054e-02 -1.393390e-02 -1.212306e-04
5.311144e-02 -1.639738e-03 -3.149744e-03
3.030224e-02 -1.286027e-02 -8.864776e-02
1.452653e-02 -1.984459e-02 1.998674e-02
-1.041188e-02 -5.656000e-02 -3.738143e-02
-1.060123e-02 -3.809422e-03 2.705997e-02
5.072698e-03 -1.210078e-02 -9.791300e-02
-1.122440e-02 -2.516463e-02 1.907906e-02
1.952303e-02 -5.236353e-02 -5.698079e-02
-1.177445e-02 6.624745e-03 -8.968577e-02
8.560933e-03 5.269015e-02 -3.034687e-03
-4.641484e-02 -2.850373e-02 -2.284124e-02
4.730804e-03 -3.627142e-02 1.537559e-02
-2.814404e-02 -4.312040e-02 -8.473101e-03
3.133693e-02 1.893314e-02 1.064500e-02
9.418563e-03 -2.386792e-02 2.039007e-02
-1.482161e-02 4.383072e-02 2.076146e-03
4.084137e-03 -7.268197e-03 2.760973e-02
-4.927682e-02 -2.535178e-02 -5.378554e-03
4.090191e-02 4.287063e-02 -2.195391e-02
-3.941256e-02 8.899292e-03 1.116868e-02
-3.251546e-02 2.126481e-02 -7.496787e-02
5.343889e-02 2.098867e-02 -1.946026e-02
1.960498e-02 -1.521564e-02 -8.757292e-02
-5.494963e-03 -5.366399e-03 2.735244e-02
-4.484653e-03 7.556353e-03 2.579320e-02
-2.163107e-03 -3.761258e-04 -9.344160e-02
-3.883085e-03 2.969315e-02 2.013807e-02
-5.385952e-02 -2.486410e-02 -5.193270e-02
-3.332604e-02 -4.748221e-02 -1.186815e-02
-1.272159e-02 -1.506743e-02 2.528515e-02
1.793558e-02 -2.007940e-02 -8.067230e-02
9.955369e-03 -5.937609e-02 -2.967774e-02
-7.594589e-03 -3.992989e-03 2.781444e-02
3.665974e-02 2.626593e-02 2.156088e-03
-3.847025e-02 1.592177e-02 8.859517e-03
-1.840054e-02 -1.885324e-02 -8.646981e-02
4.375348e-03 -7.538044e-03 2.718070e-02
-2.758881e-03 -4.585934e-02 -7.706860e-02
-6.144508e-03 5.280519e-03 2.635655e-02
-9.158696e-03 -5.278128e-02 -5.622589e-03
-5.892833e-03 -1.580133e-03 -9.168561e-02
1.692085e-02 3.883993e-02 -7.185032e-02
1.881591e-02 1.901796e-02 2.063362e-02
-9.456554e-03 -1.159780e-03 2.724597e-02
1.069517e-02 -4.127314e-03 2.699192e-02
-3.228143e-02 -9.661526e-03 -8.472788e-02
8.142197e-04 -6.457437e-03 2.572819e-02
-2.814147e-02 2.949785e-03 2.193220e-02
1.633546e-02 1.734302e-02 2.434705e-02
-3.844413e-02 4.764270e-02 -3.199744e-02
3.440429e-02 -1.155470e-02 1.660026e-02
-4.098961e-02 3.649041e-02 -2.107250e-02
1.225135e-02 2.342657e-02 2.252136e-02
8.150010e-03 -7.117635e-03 2.550257e-02
6.025468e-03 -4.925130e-02 -6.396971e-03
-2.168425e-02 9.575059e-03 -8.222622e-02
-2.185467e-02 -6.244428e-03 2.180711e-02
2.951082e-02 1.076303e-02 1.942229e-02
3.692124e-02 -2.367476e-02 7.883194e-04
3.234925e-02 -3.278101e-02 -7.394500e-02
2.448556e-02 -1.119411e-02 2.187341e-02
-5.729611e-02 -8.205452e-03 -2.927944e-02
4.193281e-02 -2.897518e-02 1.399259e-03
-3.248487e-02 -4.372857e-02 -4.824042e-02
-4.659973e-02 3.786953e-02 -4.839259e-02
3.805051e-02 2.694562e-02 -7.203194e-02
2.715022e-02 -1.164519e-02 2.000447e-02
-2.312228e-03 -4.839892e-02 -5.846230e-02
3.054833e-02 -2.841951e-02 1.077728e-02
-2.007605e-02 -5.737619e-03 -9.329640e-02
-7.725075e-03 -5.816932e-03 2.775749e-02
-5.164104e-02 2.254503e-02 -1.186443e-02
-5.308567e-02 1.240468e-02 -4.289641e-02
-4.626031e-02 -2.887910e-02 -2.732124e-02
-4.939165e-03 -2.695879e-02 1.959017e-02
1.527462e-02 1.628549e-02 2.207769e-02
-1.086041e-02 -1.924541e-02 2.279958e-02
-4.247810e-03 5.743753e-03 2.488076e-02
1.932936e-02 -2.200310e-02 2.125379e-02
-7.844295e-04 -9.427050e-03 2.752483e-02
-3.046642e-02 3.400375e-02 -6.716347e-02
-4.367669e-02 -3.557472e-02 -2.511380e-02
4.211840e-02 -3.774167e-02 -1.848345e-02
-5.130913e-02 5.680673e-03 -3.691740e-03
1.593670e-02 5.340679e-02 -6.291794e-02
-6.484162e-03 -3.672647e-02 1.090495e-02
9.654373e-03 -8.359514e-05 2.715935e-02
-3.605908e-02 -2.181584e-02 1.085946e-02
3.625241e-02 2.861930e-02 7.265656e-03
-9.719819e-04 2.488909e-02 1.947096e-02
1.726442e-02 -1.444008e-02 2.092122e-02
3.039545e-02 1.155685e-03 1.802099e-02
4.770898e-03 6.022946e-03 2.736434e-02
4.058935e-02 -1.737016e-02 2.596655e-03
9.131551e-03 5.541007e-04 2.760848e-02
4.823019e-04 2.009509e-05 2.834133e-02
9.853843e-03 -8.140569e-03 -9.527117e-02
-2.774476e-02 -1.003436e-02 2.033610e-02
-2.197532e-02 9.664212e-03 2.310103e-02
9.448032e-03 -4.507855e-02 -6.914726e-02
-3.790052e-02 -3.561276e-02 -4.813015e-02
-6.897245e-03 5.324754e-03 2.412039e-02
-2.828982e-04 -4.143238e-02 8.711032e-03
2.439654e-02 -4.410980e-02 -1.552104e-03
-1.859622e-02 5.101648e-02 -3.727660e-02
-2.146779e-03 2.320171e-03 -9.926019e-02
-1.773123e-03 -2.661849e-02 2.210339e-02
-5.583052e-03 -5.119545e-02 -6.416292e-02
-4.382683e-02 -3.279828e-02 -7.954739e-03
-1.951081e-02 1.700243e-03 2.278762e-02
1.859546e-02 -2.126739e-02 1.854451e-02
-2.540501e-02 3.300349e-02 -8.284598e-02
-2.346976e-02 8.184064e-03 2.378163e-02
-2.018136e-02 -1.003168e-02 2.313165e-02
-3.189234e-02 -4.275138e-02 -5.817553e-02
-2.052045e-02 9.853881e-04 2.155013e-02
2.463206e-02 1.485485e-03 2.164857e-02
2.165912e-02 1.686279e-02 1.875828e-02
2.920129e-02 1.484468e-02 1.573328e-02
-3.818462e-02 2.035435e-02 1.048030e-02
1.920154e-02 -5.394105e-02 -2.945825e-02
2.060083e-02 3.091918e-02 -7.576031e-02
1.592020e-03 -5.123069e-03 -9.528373e-02
2.150672e-02 8.764717e-03 2.416732e-02
1.253111e-02 5.671702e-02 -5.079204e-02
4.155040e-02 3.930186e-02 -1.278628e-02
-2.391910e-04 5.921872e-05 -1.013146e-01
2.162979e-02 1.575099e-02 -9.377369e-02
-4.909030e-02 2.437747e-02 -4.387207e-02
-7.010714e-03 -1.913311e-02 -8.945657e-02
-6.708911e-04 9.384883e-03 2.488332e-02
-1.830968e-02 -7.877917e-03 -8.337831e-02
-5.139721e-02 1.722558e-02 -5.359871e-02
4.647246e-02 7.459758e-03 2.572255e-03
-3.566383e-03 -6.701947e-03 2.746384e-02
2.394450e-03 -8.004296e-03 2.592810e-02
1.900171e-03 -5.017877e-02 1.887427e-03
7.182805e-03 4.670064e-03 2.448353e-02
-3.206611e-02 4.302885e-02 -5.330813e-02
6.031894e-03 -7.617340e-03 2.701912e-02
-2.960954e-02 1.140203e-02 1.549298e-02
3.193885e-02 -3.311045e-02 8.626426e-03
4.578500e-02 -8.279043e-03 -6.120383e-02
3.205651e-03 1.044872e-02 2.497317e-02
4.401657e-04 8.823542e-03 2.675364e-02
-2.095927e-02 2.411532e-02 -8.960320e-02
2.430440e-02 -1.338310e-02 2.229821e-02
-1.083439e-02 3.783393e-02 1.252960e-02
-4.764617e-02 3.108491e-02 -2.746242e-02
-9.987434e-03 1.933386e-03 2.607097e-02
6.984338e-03 5.650475e-03 2.754652e-02
-1.796275e-02 4.250743e-02 -7.898770e-02
9.150646e-03 1.513020e-04 2.552331e-02
-9.640875e-03 -5.767461e-04 2.760012e-02
3.123129e-02 -4.133616e-02 -6.677992e-02
-8.575850e-04 5.542701e-02 -3.888735e-02
2.055949e-02 6.196276e-03 2.471415e-02
1.217216e-02 -3.279699e-02 1.528112e-02
-2.142461e-02 5.215367e-02 -3.091058e-02
-4.912390e-04 2.703381e-02 2.289739e-02
1.403153e-02 -5.751741e-02 -3.469841e-02
3.298094e-03 1.315195e-02 -9.696449e-02
2.856054e-02 -4.239178e-02 -5.716747e-02
-1.920513e-02 -2.898891e-02 -8.888151e-02
6.677849e-03 3.784920e-02 1.471589e-02
3.299790e-02 2.899539e-02 4.155487e-03
4.126277e-04 4.271135e-03 -9.976816e-02
1.303779e-02 3.248299e-02 -7.581324e-02
-3.946497e-02 -1.095082e-02 1.256000e-02
-2.162288e-02 -1.603856e-02 2.131819e-02
2.933957e-02 3.580254e-02 6.227367e-03
-5.092336e-02 -5.812632e-03 -3.112240e-04
-1.068967e-02 3.258273e-03 2.534722e-02
1.925948e-02 -4.802141e-03 2.254918e-02
1.797309e-02 6.992718e-03 2.192472e-02
-2.941793e-02 -9.362011e-03 -8.824969e-02
4.041245e-02 3.867606e-02 -1.311558e-02
3.497349e-02 -2.045069e-02 -8.175806e-02
-1.184552e-02 3.963894e-02 -8.255299e-02
5.624512e-03 1.813239e-02 2.215948e-02
-4.703567e-02 -2.561253e-02 -2.319492e-02
-7.869319e-03 4.311117e-04 2.771353e-02
6.355073e-03 -3.191744e-03 2.679042e-02
3.387270e-03 -3.035530e-02 -9.161719e-02
-1.821433e-02 -6.274287e-03 2.232517e-02
-9.410906e-03 2.130074e-02 2.361299e-02
5.590429e-02 1.612562e-03 -5.498781e-02
2.220894e-03 2.655701e-02 2.334627e-02
3.642395e-02 3.831661e-02 -6.356769e-02
4.261177e-03 -7.315423e-03 2.535278e-02
4.203618e-02 -3.813821e-02 -1.745983e-02
-2.922076e-02 -5.479210e-02 -4.030707e-02
2.638743e-02 4.141460e-03 2.298607e-02
-1.702426e-02 -1.539076e-02 2.392094e-02
2.202522e-02 -4.213557e-02 6.181888e-03
4.186130e-02 4.445600e-02 -3.518041e-02
-4.072114e-02 -3.721075e-02 -4.795014e-03
1.795807e-02 5.574676e-02 -5.762827e-02
1.169312e-02 -2.003297e-02 2.078627e-02
-7.982989e-03 -6.006767e-03 2.523037e-02
-4.474695e-02 1.418955e-03 7.305415e-03
-5.556585e-03 -2.090548e-02 2.378765e-02
-3.581779e-03 -3.090672e-03 -1.002419e-01
1.108096e-03 -9.797040e-03 2.456461e-02
-8.746732e-03 -3.127428e-02 -7.874416e-02
-5.402593e-03 6.221016e-03 2.653502e-02
-3.143876e-04 7.433344e-04 2.833693e-02
-1.161225e-03 1.029100e-03 -9.029602e-02
-4.175741e-02 2.819465e-02 -1.266157e-03
5.060134e-02 9.869621e-03 -6.531324e-02
-4.036728e-02 2.631315e-02 6.174665e-03
-8.213985e-03 -5.282286e-02 -3.781784e-03
6.842602e-03 -7.486908e-04 2.478729e-02
2.454582e-02 -4.788694e-02 -2.956455e-02
-4.925195e-02 2.831766e-02 -1.306126e-02
-4.093660e-02 1.999264e-03 -8.230669e-02
2.406836e-02 4.255787e-02 -3.913048e-03
2.218837e-02 5.238699e-03 2.408467e-02
1.168818e-03 -5.749162e-02 -3.971908e-02
2.160510e-02 1.494732e-02 2.345421e-02
-1.349081e-02 2.367283e-02 2.237599e-02
1.986944e-02 -8.782863e-03 2.138925e-02
-1.582991e-03 2.156231e-02 2.539073e-02
-5.947424e-02 9.348998e-04 -2.558157e-02
6.938222e-03 3.167203e-02 -8.813848e-02
-2.235863e-02 9.583591e-03 -9.226481e-02
7.869699e-03 1.075452e-03 2.657983e-02
-3.042741e-02 2.564521e-03 1.986963e-02
-8.951533e-03 4.433616e-02 -7.053128e-02
-2.567093e-02 4.936357e-02 -4.296085e-02
-7.417183e-03 -4.137798e-03 -9.044880e-02
5.902004e-02 1.254617e-02 -2.160274e-02
-5.530514e-02 -1.145010e-02 -5.936505e-02
4.299596e-02 -1.693945e-02 3.227586e-03
4.523560e-02 2.064453e-02 -7.054146e-02
1.516977e-02 1.716778e-02 2.125191e-02
-2.649935e-02 2.723225e-02 1.008774e-02
2.070691e-02 -2.977154e-03 2.462990e-02
-2.094721e-02 -4.346609e-03 2.180449e-02
-1.998022e-02 -4.581038e-04 2.525091e-02
5.541536e-02 -2.162476e-02 -4.635637e-02
1.981863e-02 -9.966513e-04 2.488225e-02
3.177430e-02 -4.460463e-02 -1.422404e-02
-5.610461e-03 -5.715094e-03 2.752566e-02
-8.132874e-03 -3.880313e-03 -9.581175e-02
-2.272577e-03 3.835540e-02 -8.127705e-02
5.507257e-02 1.351469e-02 -1.042157e-02
-2.466799e-02 1.885028e-02 1.999921e-02
6.279714e-03 4.008531e-03 2.702215e-02
2.123680e-03 -5.485572e-02 -3.139645e-02
-2.162670e-02 5.038311e-02 -5.856650e-02
-1.539655e-03 -2.102184e-03 -9.159065e-02
-4.088121e-02 3.052037e-02 -6.973950e-02
-4.102944e-02 -9.880229e-03 9.943905e-03
2.229271e-02 -7.413348e-03 2.060452e-02
4.033967e-02 -1.413782e-02 -6.421702e-02
4.089013e-03 8.780453e-03 2.546551e-02
-7.453556e-03 -3.128974e-03 2.750465e-02
-3.082206e-02 3.298221e-02 6.980634e-03
7.742267e-03 -2.996685e-03 2.768334e-02
-5.382720e-02 1.571262e-02 -4.081979e-02
1.239775e-02 -1.375848e-02 2.455292e-02
4.812837e-02 9.334433e-03 2.790915e-03
-4.006205e-02 3.161934e-02 -1.350075e-02
3.373442e-02 -4.708006e-02 -2.388160e-02
-3.068383e-02 -3.073989e-02 9.612807e-03
-7.256908e-03 -4.822275e-03 2.767218e-02
-5.812585e-03 -7.746459e-03 2.508140e-02
5.829151e-04 7.158817e-03 2.690066e-02
-5.650928e-02 -2.122970e-02 -4.705112e-02
2.334098e-02 1.252380e-02 -9.421196e-02
3.196507e-02 -3.116445e-02 8.956208e-03
2.169358e-02 1.283285e-02 -9.134050e-02
-2.180269e-02 -4.322158e-02 -5.578931e-03
-3.160991e-02 1.312500e-03 2.034379e-02
-4.732616e-02 -3.380399e-02 -1.445076e-02
2.133010e-02 1.265761e-02 2.298602e-02
5.622734e-02 1.799723e-02 -4.894889e-02
-6.235373e-03 1.024159e-02 -9.240407e-02
5.651326e-03 -6.948883e-03 2.644988e-02
-5.142016e-02 3.650898e-02 -4.088091e-02
3.279104e-02 4.841294e-02 -4.453489e-02
-2.040104e-02 1.246524e-02 2.299974e-02
-3.198690e-02 5.666943e-03 -8.402651e-02
-3.942448e-02 -3.239256e-02 3.857053e-04
-3.921454e-02 1.601476e-02 9.401538e-03
5.990977e-02 -1.196961e-02 -3.976469e-02
-5.495197e-03 5.935633e-03 2.745234e-02
3.817639e-02 4.867026e-02 -2.976864e-02
-1.143505e-02 5.923097e-02 -2.526843e-02
2.094709e-02 -5.106611e-02 -4.887127e-02
-1.456014e-02 -1.845040e-02 2.419354e-02
-1.766484e-02 5.416315e-02 -1.244333e-02
-2.997576e-02 2.472966e-02 -7.425416e-02
-1.554139e-02 1.555299e-02 2.419942e-02
-5.373453e-02 -1.773045e-02 -2.776588e-02
-4.745035e-02 2.721056e-02 -2.550966e-02
4.450061e-02 3.708562e-03 7.826250e-03
-1.062320e-02 -2.178047e-02 2.186212e-02
1.440471e-02 -3.088522e-02 1.768476e-02
2.176188e-02 2.940409e-02 1.714309e-02
3.408995e-02 -6.678830e-03 1.839674e-02
-2.321770e-02 -4.717884e-02 -6.842829e-02
-3.961380e-03 -4.753316e-02 -5.712159e-04
-4.810342e-02 4.318851e-03 -6.058473e-02
-1.646513e-02 6.596765e-03 -9.482721e-02
2.291316e-02 -5.052157e-02 -2.475262e-02
2.020643e-02 4.546857e-02 -6.837003e-02
1.305191e-02 1.742119e-02 -9.299607e-02
-3.321413e-02 -8.049800e-03 1.811827e-02
1.356551e-03 4.541868e-02 7.097806e-03
-2.086715e-03 7.800560e-03 2.746917e-02
-1.905075e-02 5.748254e-02 -2.342172e-02
-1.753709e-02 1.546763e-02 2.363424e-02
-4.688229e-02 1.493021e-02 1.767114e-03
-7.879344e-03 2.817602e-03 2.455358e-02
-1.707590e-02 3.457926e-02 1.485472e-02
-9.363302e-04 1.602885e-04 2.806950e-02
5.002685e-02 2.639737e-02 -8.275350e-03
-7.607964e-04 -5.768171e-02 -3.906498e-02
-3.526247e-02 4.714330e-02 -4.212135e-02
3.597325e-02 -2.975143e-02 -7.272995e-02
4.364081e-03 5.364745e-02 -1.002352e-03
-9.163463e-04 2.020460e-03 -8.704362e-02
-4.737488e-02 -2.354050e-02 -6.897215e-02
6.539109e-03 -6.122746e-03 2.755491e-02
3.830059e-03 -7.570727e-03 2.761485e-02
-6.730644e-03 2.841686e-03 2.622696e-02
-2.099793e-02 -1.474807e-02 1.875987e-02
5.454557e-02 1.220927e-02 -8.928672e-03
1.927119e-02 -1.147856e-02 2.260741e-02
-5.613534e-02 -1.890337e-03 -6.046379e-02
-2.517528e-02 -3.858636e-02 2.930359e-03
-4.400917e-02 -4.895209e-03 -6.662696e-02
-8.931139e-03 -2.397857e-03 2.710893e-02
4.504656e-02 7.024237e-03 5.200476e-03
4.154601e-02 -4.337041e-02 -3.175458e-02
-3.231832e-02 -2.314303e-02 -8.355060e-02
1.763698e-02 1.055605e-02 2.532600e-02
-6.264093e-03 3.330344e-03 2.576709e-02
-4.973879e-02 2.212925e-02 -2.821175e-02
3.774524e-02 4.406829e-02 -4.844017e-02
-7.027218e-03 -1.992686e-02 2.467205e-02
-2.813438e-02 3.148995e-02 -7.490556e-02
1.570195e-03 -5.735607e-03 2.817167e-02
-3.993235e-02 -4.646505e-02 -3.132451e-02
-1.782161e-02 9.516895e-03 2.308961e-02
1.318475e-02 -4.571434e-02 1.007045e-03
2.582904e-02 3.457613e-03 2.281100e-02
2.070180e-03 1.060600e-02 2.818383e-02
4.054289e-02 2.034279e-02 4.553965e-03
3.159010e-02 -3.832309e-02 -9.621553e-03
3.296566e-02 4.497203e-02 -6.209231e-02
-1.344405e-02 2.035553e-02 2.320759e-02
2.635092e-03 -2.540713e-02 2.290149e-02
3.576276e-03 2.556161e-02 -8.387910e-02
-2.308246e-02 -1.111679e-02 2.129215e-02
-1.088688e-02 -2.240347e-02 2.255686e-02
-5.216461e-02 3.681037e-03 -5.130148e-02
-2.833128e-02 4.929647e-02 -5.690742e-02
-3.414471e-03 1.599729e-02 -8.662366e-02
1.313026e-02 3.899116e-02 1.269773e-02
-5.254428e-02 6.283202e-03 -4.379439e-03
5.186356e-02 -1.227600e-02 -6.196554e-02
3.229301e-02 3.575211e-02 -6.575463e-02
-4.128851e-02 -2.428860e-02 4.967559e-03
-5.473259e-02 -9.037807e-03 -7.683536e-03
-5.475291e-03 5.647083e-02 -1.788934e-02
2.174607e-02 4.369652e-02 -2.862885e-03
9.100123e-03 5.417971e-02 -8.322447e-03
5.845576e-03 -4.531181e-02 2.526150e-03
9.488030e-04 -1.143280e-03 2.817235e-02
3.670593e-02 -2.550576e-02 4.989441e-03
-2.933555e-02 -3.761346e-02 -1.932487e-03
-2.094486e-02 -4.992104e-02 -1.552077e-02
-6.841256e-03 -4.467194e-02 9.511403e-03
-2.135205e-02 -2.676433e-02 -8.479107e-02
-4.326666e-02 -1.873449e-02 6.168642e-03
5.111030e-02 3.229138e-02 -4.685848e-02
2.852004e-02 2.265587e-02 1.365407e-02
-6.522904e-03 -1.053128e-02 -8.976669e-02
9.381268e-04 1.272007e-03 -9.849499e-02
9.753989e-05 6.439966e-04 2.898230e-02
5.277396e-03 4.604951e-02 6.765987e-03
-2.544235e-02 3.856112e-02 4.150954e-03
-1.585118e-02 4.412902e-02 8.056080e-03
-1.016359e-02 4.580249e-02 5.667349e-03
-2.753306e-02 3.344560e-02 4.742348e-03
2.154061e-02 3.668544e-02 5.546670e-03
4.722561e-02 -5.364951e-03 5.274788e-03
-3.873428e-02 5.036091e-03 9.326170e-03
-7.345401e-03 -4.026262e-02 1.072239e-02
6.028538e-02 -1.803022e-02 -2.908340e-02
1.560252e-04 2.614746e-04 2.880541e-02
-3.627863e-02 2.476152e-02 8.954279e-03
1.573827e-03 1.806881e-02 -9.303718e-02
7.572198e-03 -4.352537e-02 9.015643e-03
1.618367e-02 -3.689560e-02 7.811504e-03
2.913783e-02 -3.369827e-02 1.028052e-02
7.412350e-03 3.527904e-02 -8.346517e-02
-3.440471e-02 1.083304e-02 -7.616159e-02
-3.272902e-02 -1.760869e-02 1.620114e-02
3.397359e-02 -1.764837e-02 1.587502e-02
1.282333e-02 -2.749785e-02 -9.112402e-02
1.016661e-04 3.871185e-04 2.866765e-02
-3.710316e-02 -4.474350e-02 -1.485270e-02
3.235260e-04 -3.824418e-02 1.304521e-02
-5.101994e-02 1.428415e-02 -4.670271e-02
-1.052548e-02 -4.002696e-02 -7.361988e-02
-4.788856e-02 2.512693e-02 -2.842298e-02
-2.714344e-02 1.753205e-02 1.771833e-02
-2.743000e-02 2.655559e-02 1.510485e-02
-1.519518e-03 3.508055e-02 1.336024e-02
3.533048e-02 3.247783e-03 1.544918e-02
1.150954e-02 3.214502e-02 1.610686e-02
-1.228400e-03 -6.419449e-04 2.734594e-02
1.868812e-02 3.043744e-02 -7.303928e-02
9.233904e-04 -6.427886e-03 -9.776532e-02
3.428000e-02 -4.593194e-03 1.859700e-02
-3.308564e-02 -5.544512e-03 1.772022e-02
1.712908e-02 1.700266e-02 -9.446192e-02
2.657514e-02 2.188652e-02 1.483635e-02
2.057561e-02 2.544267e-02 1.805620e-02
-3.307154e-02 -5.730130e-03 -7.464139e-02
-3.531137e-02 9.284123e-03 1.233195e-02
1.692217e-02 -3.321472e-02 1.584152e-02
7.963540e-05 -8.337470e-04 2.818597e-02
1.217419e-02 -3.175536e-02 1.434288e-02
-2.780972e-02 -2.481021e-02 1.641438e-02
-1.938756e-02 -3.304304e-02 1.452512e-02
5.424729e-02 2.345511e-02 -4.941080e-02
2.260696e-02 2.813044e-02 1.651466e-02
3.402597e-02 -1.422368e-02 1.641817e-02
-2.964616e-02 4.118277e-02 -5.574320e-02
3.141618e-02 1.296592e-02 1.866523e-02
-3.393945e-02 -4.206189e-04 1.823110e-02
-1.456560e-02 3.017388e-02 1.501775e-02
-2.881089e-04 -7.252274e-04 2.586203e-02
1.343878e-03 3.753346e-04 2.590250e-02
-2.861807e-02 3.903263e-02 -6.189517e-02
-4.269156e-02 3.539766e-02 -5.827250e-02
9.113754e-03 3.194042e-02 1.944943e-02
-1.228904e-02 4.778071e-02 -5.833676e-02
5.119958e-02 -5.765157e-03 -6.234497e-02
2.210272e-02 -8.272685e-03 -9.576054e-02
4.335305e-02 -4.327405e-02 -4.824921e-02
2.590569e-02 4.141496e-02 -7.325947e-02
4.965130e-02 4.142952e-03 -4.901310e-02
1.603520e-02 2.508922e-02 1.980313e-02
-6.046602e-04 1.502098e-03 2.627601e-02
3.607231e-04 5.036511e-02 -5.422670e-02
2.370937e-02 -2.118491e-02 1.949123e-02
-2.585503e-02 1.214902e-02 2.020977e-02
8.726451e-03 -4.932620e-02 -5.300191e-02
1.849010e-02 3.140314e-03 2.382883e-02
4.806423e-02 1.148250e-02 -7.156261e-02
3.071042e-02 -6.053404e-03 -8.996393e-02
-5.033079e-02 -2.846424e-02 -4.377218e-02
4.678946e-02 -3.220093e-02 -5.773839e-02
-4.072351e-04 3.376255e-02 1.623421e-02
-4.636895e-04 1.923736e-04 2.777802e-02
-6.638448e-03 3.084945e-02 1.604882e-02
-2.070576e-02 -4.053725e-02 -6.901184e-02
-2.805496e-02 -7.835660e-03 2.213461e-02
-2.299969e-02 -1.495174e-02 1.771918e-02
-3.334414e-02 -7.063719e-03 -8.776751e-02
-8.679341e-03 -2.859427e-02 1.633476e-02
4.500539e-02 -4.155956e-02 -4.434130e-02
1.137776e-02 -6.029153e-02 -5.284617e-02
-5.883101e-02 -1.652852e-03 -4.972774e-02
1.387143e-02 -2.199702e-02 2.007312e-02
3.874012e-04 5.833073e-05 2.715465e-02
2.811049e-02 6.545116e-03 2.185846e-02
-1.154658e-02 -2.734565e-02 2.050336e-02
-4.314840e-02 -3.605672e-02 -6.278900e-02