# vtk DataFile Version 2.0
Electric current density generated by TTH
ASCII
DATASET UNSTRUCTURED_GRID
POINTS 4477 double
-8.000000e-06 8.000000e-06 -1.000000e-07
-8.000000e-06 -7.397707e-06 -1.000000e-07
5.382775e-06 -8.979471e-06 -1.000000e-07
-1.106906e-05 3.680627e-06 -1.000000e-07
9.361215e-06 1.658452e-05 -1.000000e-07
1.007822e-05 8.773919e-06 -1.000000e-07
8.859234e-06 -3.094223e-06 -1.000000e-07
-3.315025e-06 1.389840e-05 -1.000000e-07
-4.808924e-06 -1.259573e-05 -1.000000e-07
1.896831e-05 1.012067e-05 -1.000000e-07
3.623703e-06 -1.811252e-05 -1.000000e-07
8.318415e-06 -1.493282e-05 -1.000000e-07
-8.000000e-06 -6.829490e-06 -1.000000e-07
6.885941e-06 1.004810e-05 -1.000000e-07
4.361695e-06 1.818575e-05 -1.000000e-07
7.711106e-06 1.851504e-05 -1.000000e-07
-1.888149e-05 1.542949e-05 -1.000000e-07
3.059276e-06 -1.210198e-05 -1.000000e-07
-2.981938e-06 -8.819697e-06 -1.000000e-07
-1.567496e-05 1.900715e-05 -1.000000e-07
-9.292329e-06 1.462077e-05 -1.000000e-07
1.570224e-05 1.909328e-05 -1.000000e-07
-1.126011e-05 6.377836e-06 -1.000000e-07
-8.000000e-06 -6.302577e-06 -1.000000e-07
-1.241249e-05 5.140909e-06 -1.000000e-07
1.578425e-05 -1.900896e-05 -1.000000e-07
1.148646e-05 -8.440619e-06 -1.000000e-07
1.695449e-05 -1.706558e-05 -1.000000e-07
1.517758e-05 1.743062e-06 -1.000000e-07
3.626961e-06 8.921970e-06 -1.000000e-07
-1.692425e-06 -9.002888e-06 -1.000000e-07
1.900914e-05 1.570393e-05 -1.000000e-07
-8.889853e-06 6.738959e-06 -1.000000e-07
-1.458629e-05 -4.510674e-06 -1.000000e-07
-8.000000e-06 -5.728397e-06 -1.000000e-07
1.690308e-05 -1.054188e-05 -1.000000e-07
-1.558790e-05 -1.420296e-05 -1.000000e-07
-1.824256e-05 -3.611416e-06 -1.000000e-07
-1.013845e-05 -1.657198e-05 -1.000000e-07
-1.337167e-05 -1.875104e-05 -1.000000e-07
-8.981944e-06 4.669190e-06 -1.000000e-07
1.686117e-05 1.902109e-05 -1.000000e-07
-1.028939e-05 8.471723e-06 -1.000000e-07
-2.990480e-06 9.050127e-06 -1.000000e-07
8.350829e-06 1.062078e-05 -1.000000e-07
-8.000000e-06 -5.163568e-06 -1.000000e-07
-1.687811e-05 1.694922e-05 -1.000000e-07
4.654393e-06 1.061744e-05 -1.000000e-07
1.490685e-06 9.094883e-06 -1.000000e-07
-8.281671e-06 -9.738835e-06 -1.000000e-07
4.715224e-07 -8.968437e-06 -1.000000e-07
-8.015122e-06 -1.876029e-05 -1.000000e-07
1.905138e-05 1.701846e-05 -1.000000e-07
-1.876103e-05 9.542988e-06 -1.000000e-07
1.033525e-05 -9.075182e-06 -1.000000e-07
-1.045508e-05 -5.549860e-06 -1.000000e-07
-8.000000e-06 -4.623585e-06 -1.000000e-07
1.301545e-06 -1.108789e-05 -1.000000e-07
5.762255e-06 8.928072e-06 -1.000000e-07
-1.650959e-05 1.437074e-05 -1.000000e-07
1.105457e-05 -2.132585e-06 -1.000000e-07
-1.298625e-05 1.173745e-05 -1.000000e-07
-5.702808e-06 -1.098505e-05 -1.000000e-07
-1.166251e-05 1.596789e-05 -1.000000e-07
1.042789e-05 1.869245e-05 -1.000000e-07
1.148427e-05 1.298652e-05 -1.000000e-07
-1.132295e-05 -3.026134e-06 -1.000000e-07
-8.000000e-06 -4.091596e-06 -1.000000e-07
1.035370e-05 1.740614e-05 -1.000000e-07
-1.230052e-05 -1.153811e-05 -1.000000e-07
-1.897051e-05 -1.732422e-05 -1.000000e-07
1.860925e-05 -3.078051e-06 -1.000000e-07
3.625848e-06 -1.071564e-05 -1.000000e-07
9.028366e-06 2.057479e-06 -1.000000e-07
-4.993642e-06 1.567048e-05 -1.000000e-07
-7.917754e-06 -1.093099e-05 -1.000000e-07
-1.904506e-05 -1.096742e-05 -1.000000e-07
-1.839261e-06 1.089227e-05 -1.000000e-07
-8.000000e-06 -3.533338e-06 -1.000000e-07
6.050720e-06 1.095680e-05 -1.000000e-07
1.071150e-05 3.583105e-06 -1.000000e-07
1.894820e-05 1.873453e-05 -1.000000e-07
-8.988067e-06 2.881393e-07 -1.000000e-07
9.978853e-06 -6.797809e-06 -1.000000e-07
-9.206568e-06 1.861236e-05 -1.000000e-07
2.028040e-06 1.284582e-05 -1.000000e-07
7.149342e-07 1.202048e-05 -1.000000e-07
-9.109979e-07 1.266020e-05 -1.000000e-07
1.841621e-05 -6.094399e-06 -1.000000e-07
-8.000000e-06 -2.949684e-06 -1.000000e-07
-1.856871e-05 -7.242628e-06 -1.000000e-07
-4.428387e-06 1.115355e-05 -1.000000e-07
1.219180e-05 1.675901e-05 -1.000000e-07
-8.886648e-06 -8.136129e-06 -1.000000e-07
-9.058054e-06 -2.033437e-06 -1.000000e-07
-1.526821e-06 8.869422e-06 -1.000000e-07
8.843266e-06 -2.212287e-06 -1.000000e-07
1.457766e-05 1.586228e-05 -1.000000e-07
1.901841e-05 -1.603272e-05 -1.000000e-07
1.259353e-05 1.155148e-05 -1.000000e-07
-8.000000e-06 -2.370395e-06 -1.000000e-07
-3.705372e-06 9.040482e-06 -1.000000e-07
-1.872080e-05 -1.889831e-05 -1.000000e-07
1.116108e-05 -5.038107e-06 -1.000000e-07
7.708450e-06 8.776448e-06 -1.000000e-07
-1.546560e-06 -1.310086e-05 -1.000000e-07
-5.318998e-06 -8.799181e-06 -1.000000e-07
-8.787689e-06 1.210590e-05 -1.000000e-07
5.877369e-06 1.588426e-05 -1.000000e-07
1.319435e-05 -4.822544e-06 -1.000000e-07
-1.845932e-05 6.204286e-06 -1.000000e-07
-2.000000e-05 -2.000000e-05 1.000000e-07
-8.000000e-06 -1.717116e-06 -1.000000e-07
-1.842780e-05 -4.474078e-07 -1.000000e-07
-1.293070e-05 -8.982995e-06 -1.000000e-07
-7.306951e-06 -1.445222e-05 -1.000000e-07
8.485034e-06 1.374347e-05 -1.000000e-07
8.689757e-06 -1.039074e-05 -1.000000e-07
8.722219e-06 -1.184282e-05 -1.000000e-07
-1.013136e-05 -8.827268e-06 -1.000000e-07
1.242213e-05 -9.783355e-06 -1.000000e-07
1.151139e-05 -1.285367e-05 -1.000000e-07
5.998259e-06 -1.102633e-05 -1.000000e-07
-8.000000e-06 -1.049759e-06 -1.000000e-07
1.095749e-05 6.008978e-06 -1.000000e-07
-8.849476e-06 -5.973016e-06 -1.000000e-07
-1.891886e-05 -1.563645e-05 -1.000000e-07
3.116530e-06 1.097938e-05 -1.000000e-07
-5.391386e-06 -1.836830e-05 -1.000000e-07
-3.828151e-06 -1.855369e-05 -1.000000e-07
-8.903055e-06 1.900392e-06 -1.000000e-07
-1.170939e-05 1.226334e-05 -1.000000e-07
-1.160035e-05 -1.273133e-05 -1.000000e-07
1.428067e-05 1.905333e-05 -1.000000e-07
-8.000000e-06 -4.233044e-07 -1.000000e-07
-1.150126e-05 8.781842e-07 -1.000000e-07
-1.260263e-05 2.429834e-06 -1.000000e-07
-1.845826e-05 2.856304e-06 -1.000000e-07
-9.368232e-06 -1.401633e-05 -1.000000e-07
-1.381949e-05 1.271338e-05 -1.000000e-07
1.661051e-05 -7.647041e-06 -1.000000e-07
1.184871e-05 -1.590171e-05 -1.000000e-07
-8.767056e-07 -1.809210e-05 -1.000000e-07
1.917695e-05 -1.811443e-05 -1.000000e-07
-8.911064e-06 -4.055401e-06 -1.000000e-07
-8.000000e-06 1.823992e-07 -1.000000e-07
-1.889782e-05 1.616670e-05 -1.000000e-07
1.531491e-05 -1.712122e-05 -1.000000e-07
-1.487755e-05 -2.211433e-06 -1.000000e-07
8.935168e-06 4.237776e-06 -1.000000e-07
4.257277e-06 -8.937069e-06 -1.000000e-07
-8.721803e-06 1.137861e-06 -1.000000e-07
-1.002528e-05 -6.826878e-06 -1.000000e-07
-3.050088e-06 1.014762e-05 -1.000000e-07
-1.913970e-05 -1.212039e-05 -1.000000e-07
-1.188945e-07 8.772620e-06 -1.000000e-07
-8.000000e-06 8.239180e-07 -1.000000e-07
1.039441e-05 3.527861e-07 -1.000000e-07
-1.569964e-05 -1.906002e-05 -1.000000e-07
-1.140141e-05 -1.340167e-06 -1.000000e-07
-6.862362e-06 1.034577e-05 -1.000000e-07
-1.912317e-05 -1.356673e-05 -1.000000e-07
-4.771453e-07 -1.026566e-05 -1.000000e-07
9.727262e-06 -1.394076e-05 -1.000000e-07
-1.234041e-05 -6.337673e-06 -1.000000e-07
-1.495615e-05 1.715051e-05 -1.000000e-07
1.525391e-05 1.267741e-05 -1.000000e-07
-8.000000e-06 1.451805e-06 -1.000000e-07
1.619284e-05 -9.226301e-06 -1.000000e-07
1.527624e-05 1.726307e-05 -1.000000e-07
-1.503717e-05 -1.777412e-05 -1.000000e-07
-1.527757e-05 7.098170e-06 -1.000000e-07
1.902273e-05 1.196534e-05 -1.000000e-07
-1.041983e-05 -1.507271e-05 -1.000000e-07
8.256710e-06 -8.833983e-06 -1.000000e-07
1.409054e-05 9.939136e-06 -1.000000e-07
-1.691895e-05 -1.707505e-05 -1.000000e-07
-6.830990e-06 -1.085974e-05 -1.000000e-07
-8.000000e-06 2.010641e-06 -1.000000e-07
7.207121e-06 1.550698e-05 -1.000000e-07
1.006517e-05 1.519291e-05 -1.000000e-07
-1.272258e-05 6.837366e-06 -1.000000e-07
-8.843427e-06 3.597979e-06 -1.000000e-07
-1.683740e-05 -1.186394e-05 -1.000000e-07
8.637147e-06 -7.755361e-06 -1.000000e-07
1.718908e-05 1.715733e-05 -1.000000e-07
-1.233504e-05 1.445725e-05 -1.000000e-07
1.388355e-05 -9.170331e-06 -1.000000e-07
1.660626e-05 1.466626e-05 -1.000000e-07
-8.000000e-06 2.551929e-06 -1.000000e-07
-9.450295e-06 1.093608e-05 -1.000000e-07
1.118819e-05 -7.033268e-06 -1.000000e-07
5.149130e-06 -1.267760e-05 -1.000000e-07
2.485165e-06 -1.477987e-05 -1.000000e-07
-2.547050e-06 -1.863809e-05 -1.000000e-07
1.222414e-05 9.039401e-06 -1.000000e-07
1.304665e-05 -1.176176e-05 -1.000000e-07
1.568755e-05 5.518389e-06 -1.000000e-07
-9.396077e-06 -1.883899e-05 -1.000000e-07
8.870334e-06 6.377243e-07 -1.000000e-07
-8.000000e-06 3.080917e-06 -1.000000e-07
-1.890436e-05 -9.577262e-06 -1.000000e-07
-1.796943e-05 1.694387e-05 -1.000000e-07
1.156369e-05 1.910644e-05 -1.000000e-07
-1.779129e-05 -1.888192e-05 -1.000000e-07
-8.091459e-06 8.785707e-06 -1.000000e-07
5.005813e-06 -1.023674e-05 -1.000000e-07
-1.477260e-05 1.526291e-05 -1.000000e-07
1.631876e-05 -1.458654e-05 -1.000000e-07
1.022859e-05 4.971742e-06 -1.000000e-07
-1.541790e-05 1.243275e-05 -1.000000e-07
-8.000000e-06 3.591949e-06 -1.000000e-07
-1.426766e-05 -1.905345e-05 -1.000000e-07
1.396449e-05 -1.891531e-05 -1.000000e-07
-9.846243e-06 2.281806e-06 -1.000000e-07
-8.668413e-06 -1.370730e-06 -1.000000e-07
-1.022142e-05 5.993461e-06 -1.000000e-07
1.810796e-05 -1.706387e-05 -1.000000e-07
-1.891007e-05 1.396505e-05 -1.000000e-07
1.462293e-05 -1.531396e-05 -1.000000e-07
9.663100e-06 -3.389027e-06 -1.000000e-07
1.144677e-05 1.053623e-05 -1.000000e-07
-2.000000e-05 2.000000e-05 1.000000e-07
-8.000000e-06 4.231745e-06 -1.000000e-07
1.247139e-05 1.391372e-05 -1.000000e-07
8.582405e-06 9.698978e-06 -1.000000e-07
1.915158e-05 -8.353171e-06 -1.000000e-07
9.217771e-06 1.910377e-05 -1.000000e-07
-1.583499e-05 -6.271809e-06 -1.000000e-07
-1.207975e-05 1.699757e-05 -1.000000e-07
-1.062311e-05 1.891196e-05 -1.000000e-07
1.687255e-05 1.163479e-05 -1.000000e-07
1.889506e-05 1.781688e-05 -1.000000e-07
-2.289110e-06 8.972790e-06 -1.000000e-07
-8.000000e-06 4.825879e-06 -1.000000e-07
-1.552190e-05 4.806544e-06 -1.000000e-07
9.830519e-06 6.865136e-06 -1.000000e-07
1.916410e-05 -1.131846e-05 -1.000000e-07
-9.840133e-06 4.903359e-06 -1.000000e-07
1.076539e-05 -1.157599e-05 -1.000000e-07
[...]
POINT_DATA 4477
VECTORS 10.000GHz_fone_imag double
1.734418e+12 1.627269e+12 -1.567222e+10
-1.104097e+11 2.245239e+12 -8.053842e+09
-4.718992e+11 -4.864312e+10 -2.554011e+09
2.803437e+10 2.114023e+11 1.809411e+08
7.990194e+10 -2.680213e+10 -1.143846e+08
1.345650e+11 -1.837358e+11 4.904405e+07
-1.937100e+10 -5.021690e+11 -1.878330e+08
1.362409e+11 1.708944e+10 -1.256205e+07
-1.561921e+11 2.954407e+10 6.256303e+07
1.365591e+10 -1.055688e+11 -2.786952e+08
-1.166866e+11 -7.462676e+09 -1.048504e+08
-9.206515e+10 -3.619722e+10 -1.258140e+08
-5.306194e+10 1.981951e+12 -5.685423e+09
2.796820e+11 -9.374590e+10 7.712723e+08
1.147014e+11 -8.343720e+09 -8.726438e+07
1.070086e+11 -1.239459e+10 -2.891898e+08
1.509133e+10 6.159065e+10 -5.922280e+07
-1.765758e+11 -2.108784e+10 -5.072286e+07
-4.776589e+11 1.814845e+10 2.095479e+08
6.192358e+10 1.363788e+10 6.914229e+07
8.676922e+10 4.196065e+10 5.160238e+07
6.484188e+10 -1.273383e+10 8.959085e+07
5.863714e+10 1.860663e+11 5.951415e+08
-1.942504e+10 1.882110e+12 4.504841e+09
3.803655e+10 1.583963e+11 -2.075100e+08
-6.087003e+10 -1.393109e+10 -2.844100e+08
-8.140937e+10 -1.411684e+11 -8.258628e+07
-3.295494e+10 -2.919426e+10 -5.119572e+07
7.358043e+09 -1.185531e+11 -2.562033e+07
4.983710e+11 -1.951050e+10 -1.371495e+09
-4.535010e+11 6.712242e+09 -1.042381e+09
1.357431e+10 -6.136094e+10 8.464848e+07
9.343233e+10 5.600064e+11 1.377057e+09
-2.284632e+10 1.203051e+11 -3.601984e+08
-2.917216e+10 1.722449e+12 5.655388e+09
-2.614723e+10 -7.260604e+10 -1.016252e+08
-3.654820e+10 4.703687e+10 5.701376e+07
-6.341939e+09 1.192018e+11 6.015359e+07
-7.555119e+10 2.643182e+10 -5.861133e+07
-7.431801e+10 1.422710e+10 -9.627429e+07
2.925531e+10 4.738744e+11 -8.667432e+08
4.999964e+10 -1.560615e+10 2.057158e+08
1.204379e+11 1.841524e+11 1.386461e+07
4.611098e+11 1.830016e+10 6.567525e+06
1.759011e+11 -1.055331e+11 1.974774e+08
-1.133089e+10 1.690368e+12 -1.380181e+10
3.297453e+10 3.110396e+10 -2.597243e+07
2.320140e+11 -3.785536e+10 1.600913e+08
4.211388e+11 -7.890039e+09 -1.745932e+09
-2.279151e+11 1.456150e+11 -1.590849e+09
-4.453035e+11 -2.039025e+09 -7.368158e+08
-1.116217e+11 1.119478e+10 -8.057535e+07
1.555136e+10 -4.974360e+10 -4.464539e+07
1.239565e+10 1.031798e+11 1.185720e+07
-1.185185e+11 -1.540350e+11 -4.930842e+07
-5.769861e+10 2.523281e+11 7.781738e+07
-3.832560e+09 1.607575e+12 1.052949e+10
-2.148510e+11 -8.271826e+09 -1.074685e+08
4.833825e+11 -5.431710e+10 6.135503e+08
3.041902e+10 4.588943e+10 -1.097908e+08
-1.501145e+10 -2.167608e+11 8.457541e+06
5.819708e+10 7.016989e+10 1.150803e+08
-2.105148e+11 5.366168e+10 1.612845e+08
6.377090e+10 3.265241e+10 7.553922e+07
9.586289e+10 -1.489891e+10 8.710446e+07
7.251905e+10 -6.080205e+10 -1.490111e+07
-2.053930e+10 2.047931e+11 -1.884378e+08
1.810250e+09 1.669040e+12 -2.227826e+09
7.715671e+10 -2.230656e+10 1.505391e+08
-6.771802e+10 7.618594e+10 2.938742e+07
-1.680685e+10 4.562573e+10 -8.110941e+07
-5.855551e+09 -1.280685e+11 8.327312e+07
-2.358246e+11 -2.877564e+10 6.605805e-07
1.133557e+10 -4.386953e+11 -4.275987e+08
1.031289e+11 1.699473e+10 1.219879e+08
-1.739712e+11 9.147652e+10 5.209596e+08
-1.148448e+10 1.031181e+11 7.305920e+07
2.323938e+11 1.131686e+10 6.115896e+08
-1.777866e+10 1.488151e+12 9.070538e+09
2.075720e+11 -5.918577e+10 2.381764e+08
2.875097e+10 -2.271083e+11 -8.424050e+07
2.416043e+10 -2.829291e+10 -1.429564e+07
2.974896e+09 4.553071e+11 -7.248319e+07
-8.792328e+10 -2.700579e+11 -2.028542e+09
9.952194e+10 1.376935e+10 3.199404e+08
1.585169e+11 -1.146362e+10 2.538912e+08
1.830393e+11 -4.154278e+09 1.262726e+08
1.626972e+11 4.867776e+09 -7.672358e+07
-1.169425e+10 -1.130522e+11 8.216096e+07
-5.444978e+09 1.456110e+12 1.660496e+09
-1.220731e+10 1.100021e+11 -4.083923e+07
2.042869e+11 3.452338e+10 1.148987e+08
6.194662e+10 -2.813052e+10 1.422182e+07
-2.395866e+11 4.153568e+11 -3.302930e+09
-9.624825e+09 4.391535e+11 4.370386e+07
4.817580e+11 7.225553e+09 -6.244532e+08
-6.679435e+09 -5.053643e+11 -8.721550e+07
4.346114e+10 -3.534204e+10 3.867181e+07
-1.446784e+10 -5.911709e+10 2.963181e+08
6.273967e+10 -7.233797e+10 6.618238e+07
6.682656e+09 1.475523e+12 -5.523811e+09
4.361799e+11 2.400559e+10 -6.220239e+08
-2.805688e+10 2.491925e+10 -3.408111e+07
-4.144719e+10 -2.053585e+11 5.614006e+07
5.662343e+11 -2.244986e+11 3.434563e+09
-1.466529e+11 9.640193e+09 -1.385942e+08
-5.566926e+11 4.874503e+10 1.193372e+09
1.192104e+11 6.972599e+10 1.849987e+08
9.931036e+10 -2.178472e+10 2.106577e+07
-2.926109e+10 -1.389169e+11 1.474502e+08
1.079961e+10 1.147088e+11 1.229827e+08
-3.295478e+10 3.429025e+10 -7.055791e+06
-2.289393e+10 1.418881e+12 3.378111e+09
-1.710352e+09 1.277672e+11 -8.614922e+07
-5.908809e+10 1.043471e+11 5.139716e+06
-1.047173e+11 3.609219e+10 -2.887172e+08
9.950365e+10 -4.705714e+10 3.021281e+07
-1.722453e+11 -1.193967e+11 -1.000314e+09
-1.273618e+11 -7.514012e+10 -1.134526e+08
-1.304842e+11 1.784090e+11 -1.441265e+08
-6.623864e+10 -9.806516e+10 -1.432995e+08
-7.341309e+10 -6.035210e+10 -1.877745e+08
-2.121714e+11 -6.072140e+10 2.494985e+08
-9.628030e+09 1.334027e+12 -3.564219e+09
5.918628e+10 -2.115976e+11 4.242817e+07
-6.455271e+10 5.457036e+11 1.460182e+08
-1.452548e+10 5.875884e+10 3.707255e+08
2.216249e+11 -2.360671e+10 1.981058e+08
-1.181157e+11 9.852719e+09 -8.798021e+06
-1.252592e+11 5.809641e+09 -4.027113e+08
5.893313e+09 5.061224e+11 4.638122e+08
7.188285e+10 6.656301e+10 1.793902e+08
-7.208285e+10 6.175615e+10 -6.233680e+07
7.258089e+10 -1.353497e+10 -9.030242e+07
-6.180463e+09 1.347147e+12 -7.435258e+09
5.614016e+09 1.909429e+11 -3.020964e+07
1.544981e+10 1.593917e+11 -8.707074e+07
4.887176e+09 1.281454e+11 -3.380442e+05
-9.014462e+10 4.607019e+10 1.420233e+08
5.050879e+10 5.908144e+10 6.538871e+07
-2.327037e+10 -9.094158e+10 -1.537519e+08
-6.240867e+10 -3.331571e+10 9.247421e+06
-1.180813e+11 2.638403e+09 -5.996752e+07
-1.449819e+10 -4.540041e+10 -1.662567e+08
-2.261942e+10 5.082590e+11 4.188408e+08
-5.258301e+09 1.513154e+12 -1.053875e+09
1.439078e+10 5.659557e+10 2.380904e+08
-4.369987e+10 -2.634142e+10 -5.170968e+07
-9.105383e+09 1.239423e+11 -1.940028e+07
2.778872e+10 -4.855136e+11 2.370716e+09
-5.038734e+11 -2.639936e+10 -1.469503e+09
3.411351e+09 5.748398e+11 -4.526792e+08
-8.961046e+10 2.652143e+11 -6.405875e+08
2.730948e+11 2.252578e+10 -3.808053e+08
-1.180951e+10 9.830375e+10 -4.783266e+08
5.008212e+11 -5.279524e+08 1.698670e+09
-7.216710e+09 1.426578e+12 5.145626e+09
2.732114e+09 -2.584835e+11 -1.518532e+08
-6.402467e+10 1.298294e+10 -2.549518e+07
-9.066844e+09 1.997914e+11 1.376936e+08
2.523419e+11 8.589370e+10 6.302013e+08
-1.211873e+10 8.757496e+10 -2.443305e+08
-2.631023e+11 1.506709e+09 -1.322141e+08
-8.546586e+10 -4.908693e+10 6.910776e+07
-5.109737e+10 1.534131e+11 2.899733e+08
4.650677e+10 2.620391e+10 -9.862208e+07
3.787663e+10 -5.661449e+10 2.925095e+07
1.669304e+10 1.506454e+12 -5.864206e+09
-2.947842e+10 -8.010105e+10 -5.042542e+07
4.356839e+10 -2.610941e+10 3.877277e+07
-4.761789e+10 2.317419e+10 6.017051e+07
2.947526e+10 9.529244e+10 -6.435261e+07
1.413641e+10 -9.221920e+10 -3.110846e+08
-7.493203e+10 3.903257e+10 1.592515e+08
-3.966927e+11 -2.530532e+11 -3.731628e+09
4.758717e+10 -8.386910e+10 -1.580209e+07
-3.212472e+10 2.995218e+10 -1.200948e+07
-2.013719e+11 7.511043e+10 -4.161668e+07
7.742920e+09 1.544539e+12 3.093929e+09
9.542954e+10 -2.955287e+10 5.875402e+07
7.650716e+10 -3.424086e+10 2.584559e+06
4.943538e+10 1.360397e+11 1.964458e+08
1.919383e+10 5.573529e+11 1.431007e+09
-2.789728e+10 6.358172e+10 7.830109e+07
-2.572821e+11 -7.968745e+11 5.295997e+09
3.107041e+10 -3.037491e+10 -5.664019e+05
6.097397e+10 4.463062e+10 8.594024e+06
-4.581262e+10 -9.055510e+10 -5.836519e+07
3.032631e+10 -4.560386e+10 -2.000468e+08
7.020998e+07 1.463566e+12 4.661819e+09
1.255184e+11 9.904016e+10 2.177860e+08
-7.396133e+10 -1.832886e+11 2.745129e+06
-1.508930e+11 -3.565255e+10 -1.983321e+08
-1.221684e+11 -9.902337e+09 -2.800486e+06
-1.274336e+11 3.867116e+09 1.575440e+06
7.145196e+10 -1.152455e+11 2.956706e+08
-5.877022e+10 -6.982869e+10 -1.131143e+08
2.154830e+10 -1.003533e+11 -3.662919e+07
-1.054334e+11 1.189771e+10 -6.567640e+07
1.067696e+10 -4.902423e+11 4.771973e+09
1.508612e+10 1.558870e+12 2.085558e+09
-1.166535e+10 1.110244e+11 1.652160e+08
2.368072e+10 3.681323e+10 7.837345e+07
1.114505e+11 -1.148675e+10 -3.101736e+07
-3.881384e+10 1.891539e+10 -8.334723e+07
4.527474e+11 2.795739e+11 1.579579e+08
-2.782886e+11 -4.464891e+10 -1.165683e+09
4.299341e+10 3.823549e+10 -2.861755e+07
-3.172074e+10 -4.537178e+10 8.569725e+07
4.409787e+10 -2.720691e+11 1.831939e+07
3.767750e+10 5.789303e+10 -1.783603e+07
1.496711e+10 1.556502e+12 1.752885e+08
-7.700393e+10 1.291567e+10 -5.519905e+07
-7.228038e+10 -1.419324e+10 2.876819e+08
1.315637e+10 2.934884e+11 -4.084360e+08
-3.716370e+09 6.062425e+11 2.739482e+08
6.509558e+10 2.721050e+11 3.293199e+08
-2.278930e+10 -3.577163e+10 7.627781e+06
1.471291e+10 7.213965e+10 1.934879e+08
-4.535886e+10 -3.723522e+10 -9.260321e+07
-2.438361e+10 -3.205589e+11 -2.313955e+08
8.125406e+10 -9.387582e+10 1.756341e+08
2.206631e+10 4.181803e+10 -7.759777e+08
2.796088e+09 1.588314e+12 1.437269e+09
5.950121e+10 -4.853086e+10 -1.967208e+06
2.261708e+11 -1.565220e+11 -1.160100e+09
-8.468521e+09 -1.383195e+11 -6.361974e+07
1.286578e+11 -9.965120e+09 -1.510856e+08
-2.348372e+10 9.539804e+10 -5.892100e+06
6.420415e+10 2.561624e+10 -8.255182e+07
9.974845e+10 1.436356e+10 -1.239791e+08
2.663005e+10 -6.729533e+10 -5.176301e+07
1.841483e+10 -3.944926e+10 -6.564346e+07
4.701101e+11 1.146525e+10 -2.479510e+09
1.499020e+10 1.652116e+12 8.949562e+08
1.962579e+10 1.124839e+11 -1.766937e+08
9.831180e+10 -2.913710e+11 1.496283e+08
-9.866408e+09 -1.155132e+11 -1.036679e+09
4.101917e+10 3.130553e+11 2.618119e+08
-9.269517e+10 -8.102225e+10 -2.250967e+08
4.548576e+10 -1.604794e+10 6.384616e+07
-1.614575e+10 5.062468e+10 5.980914e+07
-1.400348e+11 -1.248225e+09 6.081962e+07
-3.115337e+11 8.407880e+09 -2.391048e+06
1.395637e+10 -7.216434e+10 1.351821e+08
1.213602e+10 1.699110e+12 6.057077e+09
2.595764e+10 5.836244e+10 -7.828937e+07
-1.861075e+10 -6.212068e+11 -2.165862e+09
2.852432e+11 -2.018544e+10 -1.793654e+08
-1.031052e+11 -1.051586e+10 -1.661422e+08
-1.103460e+11 -2.104111e+10 -5.856002e+07
-3.041811e+11 -9.580301e+10 -3.999884e+08
-5.227373e+11 7.174403e+10 -6.914942e+07
4.904334e+09 1.200822e+11 1.361486e+08
2.716427e+11 -3.769961e+11 -2.194182e+08
-1.202086e+11 -1.276096e+11 -2.863582e+08
2.838870e+10 1.768009e+12 -2.922365e+09
3.159198e+11 3.703093e+10 -8.143801e+08
-4.711194e+11 1.072196e+09 1.150740e+08
2.107635e+10 2.849228e+11 -1.769826e+08
-2.863631e+11 2.728168e+10 1.660090e+08
-6.735213e+10 9.176314e+10 -1.441887e+08
-6.973813e+09 -1.164819e+11 -6.256623e+07
-3.332253e+09 -5.574320e+11 -9.048954e+08
-1.523974e+08 -5.796290e+11 -9.858813e+08
-1.731386e+11 2.590997e+10 1.103592e+08
2.614716e+10 7.149668e+10 3.575859e-07
2.361796e+10 2.144938e+12 -1.576073e+10
6.872406e+11 5.076699e+10 -2.622311e+09
-5.560303e+10 -1.215596e+10 -1.882814e+08
-5.284281e+11 1.029492e+10 -5.352638e+08
-6.870991e+09 2.758672e+11 -3.868090e+08
-1.119881e+10 6.297723e+11 2.581959e+09
8.600452e+09 1.399676e+11 -1.162869e+08
-2.646001e+10 4.467153e+10 -7.817641e+07
8.896848e+11 -8.249670e+10 3.280738e+09
-5.191098e+10 -1.533961e+10 2.250305e+07
-1.444948e+10 -7.142737e+10 -3.605328e+07
2.982445e+10 2.141312e+12 1.522765e+10
1.145974e+10 1.185145e+11 -1.503799e+08
-9.446280e+09 -2.736280e+11 -3.846529e+08
9.969641e+10 5.979363e+10 -8.230775e+07
-8.808548e+11 1.453065e+11 1.102775e+07
-4.984920e+10 1.756908e+11 -1.533964e+08
-3.778600e+10 2.006636e+11 -4.207414e+08
-5.479266e+11 4.582431e+11 1.416378e+09
-2.839190e+11 4.727766e+10 5.915969e+07
-3.280805e+10 -5.318203e+10 -1.012076e+08
-2.892711e+10 8.187793e+10 1.399421e+08
9.088939e+10 2.285735e+12 2.270407e+10
-3.048482e+10 9.310615e+10 -1.721693e+08
-2.724437e+11 -9.902568e+09 3.226868e+08
8.817462e+10 1.199556e+10 -9.254784e+07
1.227854e+11 9.722467e+09 -2.925781e+08
5.695800e+11 -1.529660e+10 5.198492e+09
1.157746e+10 9.666858e+10 3.067554e+07
6.974102e+11 -1.917344e+10 9.079026e+08
-3.608498e+10 2.283647e+10 -5.822257e+06
1.347861e+11 6.263303e+10 -1.198316e+08
5.545623e+10 1.417384e+10 3.424703e+08
8.485057e+10 9.462213e+09 -2.228980e+08
1.135573e+11 -9.119720e+10 1.509586e+08
5.177135e+11 -3.316809e+09 -4.301606e+07
-8.998237e+10 2.369146e+10 9.499399e+07
2.747114e+10 8.118141e+10 2.158605e+07
-1.483493e+11 -6.017644e+09 6.373422e+08
-1.184456e+11 1.045155e+10 -2.740130e+08
-1.046021e+11 -5.845204e+11 -7.314252e+07
2.818355e+10 -8.467951e+10 1.623100e+08
-4.508937e+10 5.199949e+10 8.490126e+07
5.137906e+10 -4.828676e+10 5.289664e+07
1.203266e+11 4.309165e+09 3.241484e+08
5.117199e+10 7.489444e+11 7.458343e+07
6.282362e+10 -3.602919e+10 -2.427443e+07
-7.422186e+11 -5.175507e+10 -2.170629e+09
8.402984e+10 2.011299e+11 1.381777e+08
1.334219e+11 2.604750e+11 3.216620e+08
-8.817804e+11 -1.167718e+11 9.742893e+09
-5.997022e+11 -3.227651e+09 2.899946e+09
5.420176e+11 6.250686e+11 7.949057e+09
2.913282e+11 9.924752e+11 -7.194129e+09
-6.396737e+10 -1.442093e+11 1.713197e+08
1.348148e+11 4.512488e+09 -6.111197e+08
4.762540e+10 -1.272721e+11 1.585109e+08
-4.722856e+10 7.507192e+11 -1.775535e+08
-3.916386e+10 -1.062776e+11 -1.161068e+08
-2.850504e+10 -9.649919e+10 -4.182325e+07
7.483597e+09 -1.482682e+11 -8.290796e+06
2.350066e+11 -2.778288e+09 -4.538077e+08
5.336621e+10 -7.296279e+11 -7.020727e+09
6.203677e+10 -1.454822e+11 1.355821e+08
-1.258033e+11 4.340822e+10 -1.113037e+08
1.277949e+10 5.987683e+10 -1.862660e+08
2.661454e+10 -3.060030e+10 2.620058e+08
1.620994e+11 3.769093e+09 3.314581e+08
-4.325148e+10 -7.448964e+11 7.154382e+09
-8.303444e+10 -2.829346e+10 2.826193e+07
-5.424663e+10 6.686625e+10 6.798570e+07
-5.894538e+11 -1.275661e+10 4.025405e+09
1.108281e+11 -8.650195e+11 7.503404e+09
-6.237943e+10 3.324467e+11 -3.124497e+08
-1.083388e+11 1.232039e+10 3.850782e+08
-1.615869e+11 -3.207023e+11 9.114949e+08
-1.173426e+11 9.051842e+10 4.709143e+07
-6.655369e+10 -2.188920e+11 7.430985e+07
1.711924e+11 2.861316e+09 -6.996076e+08
3.565849e+10 2.417306e+10 6.300712e+07
-7.477680e+10 -2.327802e+10 3.809044e+07
-6.658515e+10 -2.576566e+10 2.867106e+06
-1.548768e+11 -8.060278e+09 6.295550e+08
2.565919e+10 1.629993e+11 1.193248e+08
1.176117e+11 4.201824e+10 -6.948054e+07
-5.480473e+09 -2.984328e+11 5.895059e+08
1.415011e+11 -7.676871e+09 -1.011358e+07
-2.829036e+10 -2.841313e+10 1.294899e+08
-4.368013e+10 -2.782394e+11 2.774101e+08
1.952777e+11 4.447727e+09 -7.410113e+07
1.356229e+11 -2.383513e+09 -1.478060e+08
-1.999156e+10 1.413544e+11 2.321456e+08
7.201453e+10 2.233238e+11 2.842928e+08
-1.070142e+11 1.136737e+10 5.932921e+08
-6.548670e+10 2.043823e+10 1.278661e+07
-2.852468e+10 -1.760298e+11 1.184426e+08
8.693450e+09 -3.063884e+11 -1.349650e+08
6.513898e+10 -1.509049e+10 -3.183001e+07
7.916902e+10 6.001548e+10 1.291264e+08
7.262411e+11 4.470321e+09 1.216832e+09
2.091000e+11 1.454518e+09 4.003437e+08
6.222517e+11 -3.602356e+10 -3.383025e+09
-3.608444e+10 -2.318274e+10 -4.092110e+07
-2.369775e+10 -6.050153e+10 2.112941e+07
-1.508876e+11 -3.181352e+09 -2.027573e+08
-7.137161e+11 1.293141e+10 4.308166e+08
5.604021e+10 1.284072e+10 3.398733e+08
7.603469e+09 -1.515093e+11 6.129368e+07
8.705595e+10 -4.517979e+10 -1.360267e+08
1.863850e+11 -4.294375e+10 2.670149e+08
-5.324650e+11 2.804826e+09 3.027388e+08
1.980833e+11 1.873868e+09 4.052540e+08
-1.898046e+10 -1.067880e+11 -2.478066e+07
2.438552e+10 4.737444e+10 5.896777e+07
2.276644e+10 -7.272174e+11 2.202860e+09
-7.226278e+11 -1.789428e+10 -5.943420e+08
2.343849e+10 -3.561630e+10 3.531822e+05
-2.723261e+10 -4.173976e+10 1.221089e+07
-4.712778e+10 -5.319893e+10 -2.140018e+07
3.444979e+10 -1.528561e+11 1.290672e+08
-5.224835e+11 2.906899e+10 -5.012162e+08
-9.723495e+10 -2.541904e+10 -1.825415e+07
2.068268e+11 2.686259e+09 7.187939e+08
-1.474510e+11 -3.896191e+09 1.826511e+08
1.243192e+11 7.860192e+09 -1.615806e+07
-2.136591e+10 2.489215e+11 2.290566e+08
1.065436e+10 9.659856e+10 -4.794134e+08
-4.595823e+10 -1.321441e+11 -2.113553e+08
-4.444296e+09 5.738717e+11 2.417159e+09
-1.419797e+11 6.879176e+10 1.716739e+08
2.193891e+11 -9.882070e+10 -3.309438e+07
-5.417469e+10 3.036282e+10 -2.928130e+07
2.127911e+11 1.617455e+11 1.047490e+09
2.157922e+11 6.331387e+09 -5.810167e+08
2.919254e+11 9.880144e+09 3.294976e+08
4.579860e+09 6.154493e+11 -8.110087e+08
-2.214610e+11 -1.653501e+11 1.205021e+09
8.284949e+10 -1.030538e+10 1.476361e+08
1.335554e+10 -1.919344e+11 -5.426328e+06
2.142096e+10 -6.958052e+11 1.188188e+09
-3.429767e+11 1.249249e+09 -3.979363e+08
2.994525e+10 -9.555476e+10 1.702543e+08
-1.958336e+11 6.800836e+11 7.405604e+07
-7.072921e+11 -2.004612e+10 -3.468899e+09
2.328202e+11 2.923473e+09 1.000941e+09
9.051543e+09 1.244054e+11 6.797639e+08
2.465015e+11 -2.703964e+10 4.238306e+08
-7.277620e+10 2.612954e+11 -4.173177e+08
1.539975e+11 -8.234415e+10 -2.888531e+08
-6.659816e+10 9.109257e+11 -1.121549e+09
1.016156e+10 -7.880780e+10 5.615967e+08
2.912092e+11 1.860255e+09 1.237571e+09
-4.349121e+10 -7.307373e+10 -5.154688e+07
-1.090588e+10 -8.702919e+10 -4.686167e+08
-1.003733e+11 -1.709362e+10 8.534567e+06
2.500417e+11 4.043171e+09 -7.796000e+08
-9.754069e+10 -1.020522e+10 7.108013e+08
3.649052e+11 -1.973811e+10 -3.405845e+06
1.958298e+10 -6.846793e+10 4.860368e+07
-2.820937e+11 7.487449e+10 1.132499e+09
3.918031e+10 1.023717e+11 6.179279e+07
8.833515e+10 2.503221e+10 1.309264e+08
5.394008e+10 -7.994593e+10 -9.872228e+07
5.148189e+10 7.717991e+10 -1.658123e+08
9.144142e+10 -6.938980e+10 -3.073319e+08
-3.983687e+10 7.824443e+10 -2.081531e+08
2.550985e+11 2.625311e+09 1.992173e+08
2.464167e+10 -4.449419e+10 3.183836e+07
-6.661417e+10 3.452565e+10 -2.062414e+08
-1.060664e+10 -7.530358e+10 -2.770539e+08
-1.391572e+10 5.180372e+10 7.433269e+07
8.110209e+11 7.971239e+10 2.750344e+09
1.553723e+10 -7.274962e+11 3.269441e+09
3.537109e+10 6.537925e+10 4.412818e+07
3.268093e+10 5.087096e+10 -3.409005e+07
-1.878598e+10 -2.595114e+11 8.590242e+08
1.557111e+11 6.291303e+09 3.649953e+08
-2.815807e+10 -2.940193e+10 -2.141037e+07
2.751638e+11 4.078479e+09 7.803549e+08
-2.202674e+11 -8.060745e+10 2.420914e+08
-1.467179e+11 -9.361186e+09 -2.239461e+08
-9.367404e+11 -2.115461e+11 5.527491e+08
5.569000e+10 -9.886296e+10 3.618928e+07
4.801345e+10 4.966108e+10 3.728002e+07
4.999033e+10 -3.443312e+10 -9.347277e+07
2.504063e+10 -2.937102e+11 -8.947122e+08
-5.949336e+10 -4.650455e+10 1.200250e+08
6.920938e+10 1.057833e+11 -8.950895e+07
9.972601e+09 -1.077002e+11 1.460089e+08
2.987851e+11 2.531651e+09 3.036795e+07
-3.020652e+11 -2.712335e+10 -5.135819e+07
-2.857966e+09 1.507553e+11 3.980676e+08
1.870004e+11 1.021714e+11 8.969182e+07
1.153816e+11 -9.347484e+09 1.099915e+09
-1.096166e+11 -9.340710e+09 -2.511956e+08
-3.797621e+08 -1.222211e+11 -9.460509e+07
1.008586e+10 -1.405289e+11 1.333176e+09
4.692739e+10 -5.936167e+10 1.890452e+08
-8.076144e+10 -5.448946e+10 2.219023e+08
-1.245763e+11 -9.429295e+09 -1.215510e+08
3.005914e+11 4.231250e+09 -2.722435e+08
1.721247e+10 8.596833e+10 1.240000e+08
1.762423e+11 -2.494399e+11 7.673723e+08
-4.824401e+09 1.377451e+11 1.988166e+06
6.789490e+11 1.999502e+10 -4.320729e+09
6.839988e+10 7.957168e+10 -3.529371e+07
-9.166856e+10 1.042017e+10 2.856959e+08
-7.588502e+10 -9.831750e+10 3.709321e+08
2.812212e+10 3.930477e+10 1.078187e+08
1.270598e+11 9.718961e+09 -7.466856e+07
1.564851e+11 6.328747e+09 6.367563e+08
3.008087e+11 -9.569275e+06 6.789072e+08
-2.132493e+10 7.621084e+10 -6.023746e+07
3.801879e+09 -1.537542e+11 -1.232102e+08
-1.478981e+11 -6.925772e+10 3.062129e+08
-3.561518e+10 -6.697009e+10 -6.650609e+06
-1.505910e+10 2.257069e+11 6.592053e-06
-1.030269e+10 9.421182e+10 -3.827060e+08
3.935078e+11 -2.922204e+10 -7.376258e+08
1.746841e+11 2.337227e+11 7.373018e+08
-6.952060e+10 1.626800e+11 -1.855968e+08
1.013895e+11 2.678371e+10 2.058312e+07
3.130405e+11 2.040383e+09 -1.426791e+08
-1.558341e+10 -7.387556e+11 5.499756e+09
3.728413e+10 -2.177508e+10 2.210540e+07
1.537372e+11 1.419285e+10 1.779792e+08