# vtk DataFile Version 2.0
Electric current density generated by TTH
ASCII
DATASET UNSTRUCTURED_GRID
POINTS 2193 double
4.000000e-05 4.000000e-05 -2.000000e-05
3.000000e-05 4.000000e-05 -2.000000e-05
-3.000000e-05 -4.000000e-05 2.000000e-05
-2.500000e-06 1.028857e-06 2.000000e-05
2.068828e-16 -3.301270e-06 2.000000e-05
-5.000000e-06 -3.301270e-06 2.000000e-05
5.000000e-06 -3.301270e-06 2.000000e-05
-2.500000e-06 -7.631397e-06 2.000000e-05
-7.500000e-06 -7.631397e-06 2.000000e-05
-1.000000e-05 -3.301270e-06 2.000000e-05
-5.000000e-06 -1.196152e-05 2.000000e-05
-1.000000e-05 -1.196152e-05 2.000000e-05
7.500000e-06 9.689111e-06 2.000000e-05
-2.500000e-05 -4.000000e-05 2.000000e-05
2.302372e-16 -1.196152e-05 2.000000e-05
-1.000000e-05 2.267949e-05 2.000000e-05
1.000000e-05 5.358984e-06 2.000000e-05
1.250000e-05 9.689111e-06 2.000000e-05
1.500000e-05 5.358984e-06 2.000000e-05
-7.500000e-06 -1.629165e-05 2.000000e-05
-1.250000e-05 -1.629165e-05 2.000000e-05
-1.500000e-05 -1.196152e-05 2.000000e-05
1.750000e-05 9.689111e-06 2.000000e-05
1.500000e-05 1.401924e-05 2.000000e-05
-2.000000e-05 -4.000000e-05 2.000000e-05
-1.750000e-05 -1.629165e-05 2.000000e-05
-2.000000e-05 -1.196152e-05 2.000000e-05
2.000000e-05 1.401924e-05 2.000000e-05
1.750000e-05 1.834936e-05 2.000000e-05
2.000000e-05 5.358984e-06 2.000000e-05
1.750000e-05 1.028857e-06 2.000000e-05
-7.500000e-06 9.689111e-06 2.000000e-05
5.000000e-06 2.267949e-05 2.000000e-05
-1.000000e-05 -2.062178e-05 2.000000e-05
-5.000000e-06 -2.062178e-05 2.000000e-05
-1.500000e-05 -4.000000e-05 2.000000e-05
2.241875e-05 1.075766e-06 2.000000e-05
1.998646e-05 -3.293452e-06 2.000000e-05
2.243591e-05 1.831236e-05 2.000000e-05
2.463371e-05 -3.089795e-06 2.000000e-05
2.239876e-05 -7.572949e-06 2.000000e-05
1.748087e-05 -7.620353e-06 2.000000e-05
1.975059e-05 -1.181753e-05 2.000000e-05
1.495524e-05 -1.193568e-05 2.000000e-05
1.722162e-05 -1.613093e-05 2.000000e-05
1.244614e-05 -1.626056e-05 2.000000e-05
-1.000000e-05 -4.000000e-05 2.000000e-05
1.500165e-05 -2.062273e-05 2.000000e-05
2.040532e-05 -2.067653e-05 2.000000e-05
9.991299e-06 -2.061675e-05 2.000000e-05
-2.250000e-05 -1.629165e-05 2.000000e-05
-2.000000e-05 -2.062178e-05 2.000000e-05
-2.500000e-05 -1.196152e-05 2.000000e-05
-2.250000e-05 -7.631397e-06 2.000000e-05
1.998932e-05 2.249090e-05 2.000000e-05
2.457241e-05 1.370575e-05 2.000000e-05
-2.500000e-05 -2.062178e-05 2.000000e-05
-5.000000e-06 -4.000000e-05 2.000000e-05
-7.500000e-06 -2.495191e-05 2.000000e-05
-2.500000e-06 -2.464892e-05 2.000000e-05
1.255585e-05 -2.498415e-05 2.000000e-05
2.461842e-05 2.247428e-05 2.000000e-05
2.440429e-05 -1.259411e-05 2.000000e-05
-4.295141e-06 -2.947901e-05 2.000000e-05
-2.250000e-05 -2.495191e-05 2.000000e-05
-1.250000e-05 2.700962e-05 2.000000e-05
-1.500000e-05 2.267949e-05 2.000000e-05
1.499822e-05 2.264806e-05 2.000000e-05
-1.053167e-16 -4.000000e-05 2.000000e-05
-1.750000e-05 -2.464892e-05 2.000000e-05
-1.000000e-05 1.401924e-05 2.000000e-05
-1.250000e-05 9.689111e-06 2.000000e-05
2.503463e-05 5.299684e-06 2.000000e-05
-1.500000e-05 1.401924e-05 2.000000e-05
-1.750000e-05 9.689111e-06 2.000000e-05
-2.000000e-05 1.401924e-05 2.000000e-05
-2.250000e-05 9.689111e-06 2.000000e-05
-2.000000e-05 5.358984e-06 2.000000e-05
-2.500000e-05 5.358984e-06 2.000000e-05
5.000000e-06 -4.000000e-05 2.000000e-05
-2.500000e-05 1.401924e-05 2.000000e-05
-2.250000e-05 1.834936e-05 2.000000e-05
-1.750000e-05 2.700962e-05 2.000000e-05
9.995722e-06 -1.195905e-05 2.000000e-05
2.519073e-16 -2.057128e-05 2.000000e-05
7.507857e-06 -2.495644e-05 2.000000e-05
1.000000e-05 -2.928203e-05 2.000000e-05
5.000000e-06 3.133975e-05 2.000000e-05
1.789100e-05 2.738599e-05 2.000000e-05
-2.750000e-05 -7.631397e-06 2.000000e-05
1.000000e-05 -4.000000e-05 2.000000e-05
-2.753345e-05 1.834936e-05 2.000000e-05
-2.500557e-05 2.267949e-05 2.000000e-05
-1.000000e-05 5.358984e-06 2.000000e-05
1.244957e-05 2.700054e-05 2.000000e-05
7.500000e-06 1.834936e-05 2.000000e-05
-2.250000e-05 1.028857e-06 2.000000e-05
-2.738185e-05 9.606420e-07 2.000000e-05
-3.071060e-05 5.232615e-06 2.000000e-05
-1.750000e-05 1.028857e-06 2.000000e-05
-2.741122e-05 -2.495992e-05 2.000000e-05
1.500000e-05 -4.000000e-05 2.000000e-05
-2.987321e-05 -1.188832e-05 2.000000e-05
-1.051155e-05 -2.952694e-05 2.000000e-05
4.387531e-06 -2.950017e-05 2.000000e-05
1.497701e-05 -3.000212e-05 2.000000e-05
-1.928571e-05 -2.924175e-05 2.000000e-05
-3.066988e-05 -2.041168e-05 2.000000e-05
-3.237851e-05 -7.530731e-06 2.000000e-05
-3.000000e-05 1.401924e-05 2.000000e-05
-3.013274e-05 2.265873e-05 2.000000e-05
-2.752305e-05 2.700616e-05 2.000000e-05
2.500000e-05 4.000000e-05 -2.000000e-05
2.000000e-05 -4.000000e-05 2.000000e-05
-3.255578e-05 2.718341e-05 2.000000e-05
-7.331678e-06 -3.338160e-05 2.000000e-05
7.549694e-06 -3.303724e-05 2.000000e-05
-1.481660e-05 -3.136084e-05 2.000000e-05
1.462526e-07 -3.141103e-05 2.000000e-05
-3.515115e-05 -1.220392e-05 2.000000e-05
-2.967958e-06 -3.525616e-05 2.000000e-05
-3.258668e-05 1.813289e-05 2.000000e-05
-1.810305e-05 -3.488351e-05 2.000000e-05
-1.500000e-05 3.133975e-05 2.000000e-05
2.500000e-05 -4.000000e-05 2.000000e-05
-3.559662e-05 2.553609e-06 2.000000e-05
3.566987e-05 -2.500000e-06 2.000000e-05
3.160732e-05 -1.982814e-07 2.000000e-05
3.169523e-05 -5.033047e-06 2.000000e-05
3.046725e-05 5.110807e-06 2.000000e-05
-7.500000e-06 3.566987e-05 2.000000e-05
3.552446e-05 7.518468e-06 2.000000e-05
3.139741e-05 1.036929e-05 2.000000e-05
-2.249319e-05 3.567381e-05 2.000000e-05
-1.999886e-05 3.134040e-05 2.000000e-05
3.000000e-05 -4.000000e-05 2.000000e-05
-3.561619e-05 -2.256597e-05 2.000000e-05
2.237786e-05 -3.562464e-05 2.000000e-05
2.497283e-05 -3.133614e-05 2.000000e-05
3.002638e-05 -3.148352e-05 2.000000e-05
2.749987e-05 -2.717796e-05 2.000000e-05
2.250000e-05 -2.700962e-05 2.000000e-05
2.556608e-05 -2.258333e-05 2.000000e-05
2.433033e-05 -1.768905e-05 2.000000e-05
2.870857e-05 -1.926758e-05 2.000000e-05
3.250121e-05 -2.744812e-05 2.000000e-05
3.500000e-05 -4.000000e-05 2.000000e-05
1.784213e-05 -2.514943e-05 2.000000e-05
3.567381e-05 2.249319e-05 2.000000e-05
3.163314e-05 2.010342e-05 2.000000e-05
3.165535e-05 1.522043e-05 2.000000e-05
3.166834e-05 2.500929e-05 2.000000e-05
3.153889e-05 3.003246e-05 2.000000e-05
2.695357e-05 2.691873e-05 2.000000e-05
2.715261e-05 3.245603e-05 2.000000e-05
2.255083e-05 3.015517e-05 2.000000e-05
1.816762e-05 3.269362e-05 2.000000e-05
4.000000e-05 -3.500000e-05 2.000000e-05
3.570785e-05 1.260136e-05 2.000000e-05
2.000000e-05 -3.133975e-05 2.000000e-05
1.155579e-05 -3.374028e-05 2.000000e-05
1.250000e-05 1.028857e-06 2.000000e-05
-2.486616e-05 -2.900575e-05 2.000000e-05
-2.984490e-05 -2.878160e-05 2.000000e-05
-2.748231e-05 -3.322376e-05 2.000000e-05
-1.750000e-05 -7.631397e-06 2.000000e-05
-3.000000e-05 -3.301270e-06 2.000000e-05
9.991298e-06 2.267274e-05 2.000000e-05
4.000000e-05 -3.000000e-05 2.000000e-05
-1.258526e-05 -2.463924e-05 2.000000e-05
7.488861e-06 -1.628522e-05 2.000000e-05
-2.750000e-05 9.689111e-06 2.000000e-05
-1.501015e-05 -2.054849e-05 2.000000e-05
1.248864e-05 -7.624838e-06 2.000000e-05
-1.250000e-05 -7.631397e-06 2.000000e-05
7.500000e-06 1.028857e-06 2.000000e-05
-3.566987e-05 7.500000e-06 2.000000e-05
-7.500000e-06 1.834936e-05 2.000000e-05
1.249825e-05 1.834300e-05 2.000000e-05
4.000000e-05 -2.500000e-05 2.000000e-05
-5.000000e-06 5.358984e-06 2.000000e-05
9.998107e-06 -3.300177e-06 2.000000e-05
-2.500000e-06 -1.628324e-05 2.000000e-05
2.500000e-06 -7.631397e-06 2.000000e-05
-1.250000e-05 1.834936e-05 2.000000e-05
2.245852e-05 9.658830e-06 2.000000e-05
7.497078e-06 -7.629710e-06 2.000000e-05
5.000000e-06 1.401924e-05 2.000000e-05
-1.500000e-05 5.358984e-06 2.000000e-05
1.499453e-05 -3.298114e-06 2.000000e-05
4.000000e-05 -2.000000e-05 2.000000e-05
-7.500000e-06 1.028857e-06 2.000000e-05
-1.750000e-05 1.834936e-05 2.000000e-05
3.572912e-05 -7.505508e-06 2.000000e-05
3.584332e-05 -1.757283e-05 2.000000e-05
3.133975e-05 -1.500000e-05 2.000000e-05
7.620714e-06 3.561501e-05 2.000000e-05
-2.000093e-05 2.267949e-05 2.000000e-05
-2.750000e-05 -1.629165e-05 2.000000e-05
9.999709e-06 1.401818e-05 2.000000e-05
-1.250000e-05 1.028857e-06 2.000000e-05
4.000000e-05 -1.500000e-05 2.000000e-05
2.500000e-06 2.700962e-05 2.000000e-05
3.171588e-05 -9.978930e-06 2.000000e-05
4.996943e-06 -1.195976e-05 2.000000e-05
-1.500000e-05 -3.301270e-06 2.000000e-05
-2.000000e-05 -3.301270e-06 2.000000e-05
-2.498031e-05 -3.312639e-06 2.000000e-05
4.998003e-06 -2.061221e-05 2.000000e-05
2.497301e-06 -1.627887e-05 2.000000e-05
2.398899e-06 -2.462553e-05 2.000000e-05
7.490144e-06 2.700698e-05 2.000000e-05
4.000000e-05 -1.000000e-05 2.000000e-05
-1.000000e-05 3.133975e-05 2.000000e-05
-3.004405e-05 3.151251e-05 2.000000e-05
-1.250000e-05 3.566987e-05 2.000000e-05
-2.250474e-05 2.700915e-05 2.000000e-05
1.000000e-05 3.133975e-05 2.000000e-05
-2.500384e-05 3.137258e-05 2.000000e-05
2.743556e-05 -7.586265e-06 2.000000e-05
-3.234833e-05 3.589691e-05 2.000000e-05
-3.591263e-05 -3.271491e-05 2.000000e-05
3.234623e-05 -3.589346e-05 2.000000e-05
2.000000e-05 4.000000e-05 -2.000000e-05
4.000000e-05 -5.000000e-06 2.000000e-05
3.590005e-05 3.234695e-05 2.000000e-05
2.743169e-05 1.786268e-05 2.000000e-05
2.709569e-05 1.052730e-06 2.000000e-05
-3.192858e-05 9.981074e-06 2.000000e-05
-3.190495e-05 -2.498635e-05 2.000000e-05
2.693678e-05 9.363933e-06 2.000000e-05
1.432773e-05 3.084431e-05 2.000000e-05
-3.178428e-05 5.087448e-07 2.000000e-05
3.038767e-05 -2.323566e-05 2.000000e-05
-3.171915e-05 -1.569031e-05 2.000000e-05
4.000000e-05 -1.053167e-16 2.000000e-05
-3.671681e-05 2.735585e-05 2.000000e-05
2.734790e-05 3.669696e-05 2.000000e-05
3.666631e-05 -2.748520e-05 2.000000e-05
-3.662429e-05 -7.509951e-06 2.000000e-05
-3.672906e-05 1.750000e-05 2.000000e-05
1.750000e-05 3.673719e-05 2.000000e-05
2.244930e-05 2.589973e-05 2.000000e-05
3.633975e-05 3.633975e-05 2.000000e-05
-3.633975e-05 3.633975e-05 2.000000e-05
-3.633975e-05 -3.633975e-05 2.000000e-05
[...]
POINT_DATA 2193
VECTORS 10.000GHz_fone_imag double
1.140605e-04 1.140652e-04 1.009180e-04
1.483182e-04 1.989776e-04 1.166137e-04
1.483489e-04 1.994041e-04 1.158737e-04
5.349061e-04 -2.197385e-04 -4.146649e-03
3.336894e-07 7.011080e-04 -4.097762e-03
1.007878e-03 6.658815e-04 -3.776290e-03
-1.007641e-03 6.653124e-04 -3.776131e-03
4.676105e-04 1.426941e-03 -3.423997e-03
1.250451e-03 1.272421e-03 -2.897989e-03
1.670083e-03 5.483529e-04 -2.933141e-03
7.208980e-04 1.753284e-03 -2.427480e-03
1.220154e-03 1.470840e-03 -1.903907e-03
-1.140789e-03 -1.479282e-03 -2.575945e-03
1.582433e-04 2.570590e-04 1.192715e-04
1.287683e-07 1.844627e-03 -2.632936e-03
5.533538e-04 -1.294105e-03 -5.090922e-04
-1.607102e-03 -8.553179e-04 -2.764305e-03
-1.515500e-03 -1.160712e-03 -1.859997e-03
-1.818676e-03 -6.266451e-04 -1.816534e-03
7.548447e-04 1.699827e-03 -1.445845e-03
1.036876e-03 1.373462e-03 -1.049475e-03
1.412487e-03 1.110606e-03 -1.260534e-03
-1.541949e-03 -8.271146e-04 -1.111812e-03
-1.261643e-03 -1.174285e-03 -1.056286e-03
1.578427e-04 3.204029e-04 1.202196e-04
1.092181e-03 1.012037e-03 -6.188738e-04
1.316733e-03 7.660702e-04 -6.737706e-04
-1.189799e-03 -8.171264e-04 -5.586910e-04
-9.492709e-04 -9.984064e-04 -4.727150e-04
-1.649874e-03 -4.206358e-04 -9.789245e-04
-1.874307e-03 -1.047342e-04 -1.491681e-03
1.140043e-03 -1.480037e-03 -2.576338e-03
-3.132229e-04 -1.489180e-03 -6.524524e-04
6.605998e-04 1.403348e-03 -7.112572e-04
3.761887e-04 1.628369e-03 -9.017285e-04
1.415866e-04 3.858310e-04 1.172179e-04
-1.578495e-03 -7.182139e-05 -7.346574e-04
-1.710569e-03 2.664457e-04 -1.038287e-03
-8.580912e-04 -6.987816e-04 -2.065742e-04
-1.389240e-03 1.655047e-04 -4.840340e-04
-1.418836e-03 4.615567e-04 -6.167220e-04
-1.664037e-03 6.976611e-04 -1.248347e-03
-1.335386e-03 7.773115e-04 -7.075506e-04
-1.414082e-03 1.113277e-03 -1.269694e-03
-1.106488e-03 1.032266e-03 -6.536693e-04
-1.037409e-03 1.378179e-03 -1.057932e-03
1.077781e-04 4.432928e-04 1.126499e-04
-7.975707e-04 1.107418e-03 -4.596375e-04
-7.753197e-04 7.863636e-04 -2.101053e-04
-6.607000e-04 1.403625e-03 -7.119412e-04
9.679518e-04 6.942755e-04 -2.792635e-04
7.864148e-04 8.042024e-04 -2.225794e-04
1.077341e-03 5.016225e-04 -2.738107e-04
1.409990e-03 4.602991e-04 -6.040089e-04
-6.837605e-04 -7.675190e-04 -1.462797e-04
-1.018309e-03 -5.558854e-04 -2.497304e-04
6.817888e-04 5.552636e-04 -5.270378e-05
5.845518e-05 4.829631e-04 1.086852e-04
3.627405e-04 1.256199e-03 -3.868559e-04
1.342970e-04 1.396759e-03 -4.876385e-04
-5.153466e-04 1.051539e-03 -2.586346e-04
-6.102889e-04 -5.540375e-04 -2.193335e-05
-1.079347e-03 5.434669e-04 -2.932394e-04
1.424000e-04 1.023742e-03 -1.356777e-04
5.398053e-04 6.025116e-04 -1.393365e-05
4.278306e-04 -9.502606e-04 -1.518954e-04
6.736777e-04 -1.032915e-03 -3.190015e-04
-6.752395e-04 -1.034529e-03 -3.207011e-04
-1.497241e-09 4.971570e-04 1.071278e-04
5.844874e-04 8.313557e-04 -1.366418e-04
1.077919e-03 -1.539208e-03 -1.594781e-03
1.515783e-03 -1.161481e-03 -1.860367e-03
-1.314579e-03 -2.660284e-04 -4.199789e-04
1.262135e-03 -1.174372e-03 -1.055860e-03
1.542277e-03 -8.275463e-04 -1.111453e-03
1.189952e-03 -8.172321e-04 -5.582599e-04
1.319221e-03 -5.503462e-04 -5.361857e-04
1.649607e-03 -4.207677e-04 -9.789241e-04
1.315358e-03 -2.694964e-04 -4.221973e-04
-5.845868e-05 4.829611e-04 1.086597e-04
9.836386e-04 -5.400777e-04 -2.170324e-04
8.543532e-04 -6.950096e-04 -2.021171e-04
4.783837e-04 -7.484340e-04 -5.267441e-05
-1.219704e-03 1.471293e-03 -1.905497e-03
-2.720731e-07 1.714618e-03 -9.811404e-04
-3.630565e-04 1.255073e-03 -3.864170e-04
-3.006475e-04 9.116280e-04 -9.090687e-05
-1.367296e-04 -8.950245e-04 -5.204380e-05
-4.638665e-04 -7.196434e-04 -3.424751e-05
1.085373e-03 2.893855e-04 -2.102433e-04
-1.077841e-04 4.432928e-04 1.126150e-04
6.966719e-04 -4.586287e-04 -2.243047e-05
5.940721e-04 -5.354512e-04 -9.176685e-06
1.606201e-03 -8.558076e-04 -2.765972e-03
-4.272298e-04 -9.526474e-04 -1.530991e-04
-6.429658e-04 -1.639328e-03 -1.123697e-03
1.572418e-03 -6.798703e-05 -7.251869e-04
1.203239e-03 -4.009206e-05 -2.740487e-04
9.305171e-04 -1.517728e-04 -7.512702e-05
1.874406e-03 -1.047010e-04 -1.491693e-03
4.665046e-04 4.225795e-04 6.321031e-05
-1.415962e-04 3.858367e-04 1.171927e-04
8.254080e-04 3.184713e-04 -4.577881e-05
3.040312e-04 8.837871e-04 -7.479443e-05
-1.451049e-04 1.020868e-03 -1.341701e-04
-3.529168e-04 7.236732e-04 -4.956381e-06
3.963690e-04 6.084280e-04 2.953008e-05
5.352912e-04 3.482715e-04 6.062510e-05
7.961067e-04 1.780907e-04 -4.504071e-06
7.540862e-04 -3.434031e-04 -1.638291e-05
4.825360e-04 -3.573159e-04 7.305503e-05
4.031646e-04 -3.951838e-04 8.333733e-05
1.584172e-04 2.562424e-04 1.203665e-04
-1.578546e-04 3.204126e-04 1.202077e-04
3.276846e-04 -2.714840e-04 1.120089e-04
1.577177e-04 7.464021e-04 2.104012e-05
-1.673077e-04 7.607439e-04 1.337695e-05
3.101831e-04 6.729055e-04 2.580189e-05
-4.151982e-06 9.250974e-04 -6.168492e-05
5.820886e-04 1.962708e-04 7.533648e-05
5.619119e-05 6.953150e-04 5.001557e-05
5.391675e-04 -2.947789e-04 7.238771e-05
2.405320e-04 4.720862e-04 9.609124e-05
3.123417e-04 -6.684670e-04 2.694661e-05
-1.582477e-04 2.570807e-04 1.192739e-04
6.804233e-04 -4.687724e-05 5.581069e-05
-6.770868e-04 4.556391e-05 5.712421e-05
-9.125264e-04 5.418727e-06 -5.426483e-05
-8.733965e-04 1.328028e-04 -3.915974e-05
-9.475793e-04 -1.521693e-04 -8.573024e-05
1.285783e-04 -6.338420e-04 6.681685e-05
-6.401013e-04 -1.307070e-04 6.454678e-05
-7.889502e-04 -2.518020e-04 -1.307965e-05
2.270883e-04 -3.673298e-04 1.116038e-04
3.309473e-04 -5.253064e-04 6.943364e-05
-1.483577e-04 1.994186e-04 1.158774e-04
3.671030e-04 2.280947e-04 1.115418e-04
-2.281520e-04 3.705313e-04 1.111523e-04
-3.125744e-04 3.965372e-04 9.825238e-05
-2.711598e-04 2.848589e-04 1.155239e-04
-3.986371e-04 3.937057e-04 8.447798e-05
-4.600327e-04 5.582663e-04 2.682478e-05
-5.864219e-04 5.139843e-04 7.466436e-07
-8.327907e-04 6.003362e-04 -1.442045e-04
-6.253349e-04 4.148144e-04 1.869647e-05
-3.231098e-04 2.708849e-04 1.124884e-04
-1.323384e-04 1.517228e-04 1.092724e-04
-5.608974e-04 7.981629e-04 -1.081725e-04
-3.673218e-04 -2.271186e-04 1.116024e-04
-5.143877e-04 -3.227328e-04 7.386804e-05
-6.498790e-04 -3.051642e-04 3.548632e-05
-3.897222e-04 -3.043748e-04 1.004920e-04
-2.841403e-04 -2.700633e-04 1.156749e-04
-4.133480e-04 -4.128630e-04 7.770024e-05
-2.737070e-04 -3.297553e-04 1.116406e-04
-3.571534e-04 -4.852117e-04 7.248019e-05
-2.920662e-04 -5.349904e-04 7.399387e-05
-1.517278e-04 1.323335e-04 1.092750e-04
-5.538152e-04 -1.900284e-04 8.376080e-05
-3.309821e-04 5.253154e-04 6.946565e-05
-2.166253e-04 6.524453e-04 5.001145e-05
-1.867990e-03 -1.509334e-04 -2.510391e-03
3.752192e-04 4.412306e-04 7.923575e-05
3.287365e-04 3.164968e-04 1.073519e-04
2.564773e-04 3.125033e-04 1.145205e-04
1.663308e-03 6.976749e-04 -1.243859e-03
1.000980e-03 1.051664e-04 -1.158196e-04
-5.532811e-04 -1.294943e-03 -5.096293e-04
-1.994255e-04 1.483519e-04 1.158851e-04
5.318917e-04 1.067950e-03 -2.788319e-04
-7.539406e-04 1.700506e-03 -1.447535e-03
1.023570e-03 -3.481586e-04 -1.787036e-04
8.021166e-04 1.109227e-03 -4.653005e-04
-1.647519e-03 9.882082e-04 -2.087985e-03
1.648401e-03 9.886521e-04 -2.084943e-03
-1.422411e-03 -1.951517e-04 -3.503772e-03
6.338258e-04 -1.285763e-04 6.676364e-05
6.431132e-04 -1.639322e-03 -1.123623e-03
-8.914213e-04 -1.338528e-03 -8.136127e-04
-2.570912e-04 1.582424e-04 1.192913e-04
9.681869e-04 -1.037876e-03 -3.558638e-03
-1.669291e-03 5.477300e-04 -2.932728e-03
2.776770e-04 1.892692e-03 -1.697139e-03
-4.673593e-04 1.426531e-03 -3.424016e-03
8.911858e-04 -1.337765e-03 -8.127661e-04
-1.323088e-03 -5.511956e-04 -5.411300e-04
-1.249766e-03 1.271689e-03 -2.898644e-03
-6.312555e-04 -1.825537e-03 -2.028096e-03
1.818959e-03 -6.272916e-04 -1.817044e-03
-1.888311e-03 3.999297e-04 -1.925053e-03
-3.204298e-04 1.578485e-04 1.202171e-04
1.421503e-03 -1.948546e-04 -3.504763e-03
9.495261e-04 -9.982514e-04 -4.724466e-04
-6.311847e-04 1.279123e-04 6.775731e-05
-4.559894e-04 2.192633e-04 1.015991e-04
-6.685876e-04 3.123571e-04 2.701182e-05
-1.310398e-04 -6.347075e-04 6.625464e-05
6.740435e-04 -7.624671e-04 -1.388430e-04
7.786268e-04 4.531528e-04 -5.926101e-05
-1.077724e-03 -1.539125e-03 -1.595305e-03
1.868354e-03 -1.509581e-04 -2.511549e-03
-3.858626e-04 1.415902e-04 1.172156e-04
-1.073848e-04 -1.219604e-03 -2.941222e-04
-7.819859e-04 2.375514e-04 -7.083396e-06
-7.201810e-04 1.752924e-03 -2.428194e-03
1.889392e-03 4.006337e-04 -1.923850e-03
1.709761e-03 2.670412e-04 -1.035601e-03
1.359652e-03 1.715616e-04 -4.501205e-04
-3.765800e-04 1.628400e-03 -9.027920e-04
-2.773110e-04 1.892564e-03 -1.697889e-03
-1.295961e-04 1.399555e-03 -4.905958e-04
-2.986251e-04 -1.120817e-03 -2.420098e-04
-4.433214e-04 1.077773e-04 1.126403e-04
2.466935e-04 -8.007162e-04 -1.796159e-05
2.704339e-04 -2.842035e-04 1.156278e-04
1.897446e-04 -5.570424e-04 8.293385e-05
4.600047e-04 -5.580582e-04 2.691316e-05
-2.466728e-04 -8.005906e-04 -1.794497e-05
3.114737e-04 -3.950980e-04 9.865667e-05
-1.090911e-03 2.897238e-04 -2.148137e-04
1.866165e-04 -2.077693e-04 1.181358e-04
2.030650e-04 1.844489e-04 1.178450e-04
-1.866922e-04 2.078381e-04 1.181369e-04
1.573231e-04 3.202069e-04 1.207828e-04
-4.829770e-04 5.844830e-05 1.086653e-04
-2.077558e-04 -1.866000e-04 1.181460e-04
-7.191898e-04 -4.620810e-04 -3.352901e-05
-1.224226e-03 -4.529965e-05 -2.937219e-04
7.709780e-04 -2.327489e-04 -1.160040e-06
3.860853e-04 2.988889e-04 1.017392e-04
-1.067901e-03 -3.582302e-04 -2.153008e-04
-3.206773e-04 -7.081875e-04 9.268785e-06
9.010442e-04 -1.375049e-05 -4.766913e-05
-4.605453e-04 3.471911e-04 8.015480e-05
6.344180e-04 3.067803e-04 4.069090e-05
-4.971499e-04 -1.233867e-08 1.071064e-04
2.683762e-04 -1.978593e-04 1.191393e-04
-1.981731e-04 -2.687613e-04 1.191540e-04
-2.671156e-04 1.981688e-04 1.191539e-04
5.923410e-04 1.173241e-04 8.043390e-05
4.331577e-04 -2.024402e-04 1.070288e-04
-2.022697e-04 -4.329313e-04 1.070979e-04
-5.021959e-04 -5.846665e-04 5.238214e-06
-1.600755e-04 -1.600890e-04 1.132006e-04
1.600792e-04 -1.600809e-04 1.131896e-04
1.600817e-04 1.600807e-04 1.131852e-04
-4.829388e-04 -5.846832e-05 1.086512e-04
-1.600960e-04 1.600901e-04 1.131914e-04
-4.937194e-04 2.971473e-04 8.327882e-05
-8.064066e-04 4.477494e-04 -7.189660e-05
-1.046080e-03 7.683092e-04 -3.848641e-04
-1.104132e-03 9.182755e-05 -1.915137e-04
1.121260e-04 5.761654e-04 8.533466e-05
-1.190993e-04 5.752133e-04 8.500399e-05
3.004346e-04 4.374772e-04 9.259641e-05
1.896154e-04 2.593366e-04 1.192822e-04
-8.569550e-04 -3.856736e-04 -8.076172e-05
-4.432658e-04 -1.077875e-04 1.126223e-04
-5.208586e-04 -4.033983e-04 5.296306e-05
-8.760480e-04 3.670553e-04 -8.651002e-05
2.436199e-04 2.421353e-04 1.186968e-04
-1.606118e-04 4.943886e-04 1.003115e-04
-6.810779e-07 1.181666e-03 -2.531179e-04
4.355945e-04 8.230778e-04 -7.702013e-05
1.744109e-05 8.829648e-06 -3.407633e-02
2.353855e-04 2.586945e-04 1.182620e-04
-4.907403e-05 7.484767e-05 3.465561e-04
1.882132e-04 5.907563e-05 4.840311e-03
-3.858119e-04 -1.415935e-04 1.172049e-04
-3.198570e-04 3.998844e-04 7.580842e-03
-2.559181e-04 1.172910e-03 8.792155e-05
4.502550e-03 -1.759306e-04 7.410382e-03
7.751502e-04 -4.967977e-04 2.427038e-03
-1.348963e-03 -4.415370e-04 2.723291e-03
1.625968e-04 -2.409708e-03 1.959719e-03
4.603254e-04 5.241600e-04 9.819425e-04
-3.249692e-04 -3.269915e-04 9.175175e-04
-8.607185e-04 8.453290e-03 -1.347347e-03
-3.548343e-03 -1.036448e-02 -1.322573e-02
-3.203928e-04 -1.578500e-04 1.202185e-04
-1.355446e-03 5.711240e-04 1.308248e-03
1.671134e-03 4.781019e-04 1.376370e-03
-8.732687e-03 -6.362838e-03 -9.375249e-03
3.822232e-04 2.182828e-03 1.857131e-03
-5.332665e-03 6.141589e-03 -1.609854e-02
4.148125e-04 -3.870833e-04 7.428506e-04
-5.553435e-04 1.266399e-03 1.215800e-03
6.281769e-03 3.350515e-03 -1.944876e-03
-2.309399e-03 -5.159031e-04 1.358910e-03
9.940089e-03 2.771345e-03 -8.425527e-03
-2.570503e-04 -1.582465e-04 1.192769e-04
-7.391075e-03 4.223739e-03 -3.858692e-03
-1.048496e-04 -2.032944e-03 1.342332e-03
-1.428007e-03 4.472691e-04 1.095122e-03
6.816604e-03 -4.927682e-03 -4.385117e-03
7.162828e-03 -1.242669e-03 -1.430000e-02
-3.995991e-04 4.480497e-04 7.213826e-04
-4.353768e-04 -3.854597e-04 6.741784e-04
1.870178e-03 2.118158e-04 1.281940e-03
5.172721e-04 -1.196234e-03 1.054904e-03
4.818440e-03 -4.185255e-03 -1.947983e-03
-1.993985e-04 -1.483539e-04 1.158836e-04
7.181346e-04 1.009815e-03 9.401870e-04
-4.144051e-03 3.713678e-03 -8.250719e-04
1.175820e-03 -4.319738e-04 1.157369e-03
-3.283274e-04 3.327759e-04 5.995578e-04
1.779147e-04 1.713373e-03 1.150389e-03
-4.065970e-04 1.548523e-03 1.051556e-03
-4.645086e-04 -9.612558e-04 8.856970e-04
1.207776e-03 -2.726512e-04 1.543096e-03
3.530697e-04 -8.100606e-03 -4.766283e-03
1.726815e-03 7.670900e-03 -4.416212e-03
-1.517091e-04 -1.323331e-04 1.092777e-04
-4.662869e-04 -1.079000e-03 8.744240e-04
2.985521e-04 -2.986004e-04 5.218868e-04
-7.494600e-03 -1.331209e-03 -4.131940e-03
4.715855e-04 -9.947079e-04 7.771213e-04
-1.358580e-03 -4.864355e-05 1.709392e-03
1.173427e-03 5.944568e-04 7.459542e-04
-2.496583e-03 -2.624481e-03 -1.640238e-04
-1.872872e-03 -4.213567e-03 -7.550611e-04
-3.010725e-03 3.251850e-04 5.476770e-04
-6.266033e-05 6.498783e-04 1.845940e-03
9.962942e-05 9.963609e-05 1.375942e-04
2.669210e-03 6.131294e-03 -8.506457e-03
-1.881774e-03 -1.479455e-03 4.537143e-04
1.489355e-03 -2.131925e-05 8.035391e-04
1.614014e-03 2.375786e-03 2.028399e-04
8.283576e-04 -4.625962e-04 5.898724e-04
-4.946265e-03 -6.358720e-04 -1.044733e-03
4.363563e-04 2.870035e-04 8.793586e-04
1.886072e-04 5.022823e-04 1.309269e-03
-8.293127e-04 -3.526744e-03 1.454065e-05
2.000723e-03 -1.772531e-03 2.715646e-04
1.410191e-04 3.854251e-04 1.180463e-04
7.469635e-05 7.470454e-05 1.708875e-04
-3.701088e-03 1.199912e-03 -1.139633e-02
3.143145e-04 -5.572155e-03 -1.980177e-03
2.964802e-03 2.127250e-03 -4.769417e-04
-4.115663e-04 -2.365715e-03 -1.225021e-02
-4.326953e-04 3.778293e-03 -3.071637e-05
-2.040122e-03 2.060560e-03 1.001026e-04
5.078297e-03 -4.380061e-04 -1.745358e-03
-5.455967e-04 -2.629210e-04 9.700660e-04
1.419453e-03 -3.617015e-03 -4.930793e-04
2.864520e-04 3.055619e-04 4.128133e-04
4.023780e-05 4.024629e-05 1.945685e-04
-4.602855e-04 6.350895e-05 1.576975e-03
1.695607e-05 1.699362e-05 5.300606e-04
-8.743251e-05 1.801898e-04 1.166856e-03
4.309390e-03 1.304772e-04 -9.035829e-04
-8.992072e-04 -4.367005e-04 5.473834e-04
1.106074e-04 6.443087e-05 9.197064e-04
3.371887e-04 2.889615e-04 3.874761e-04
-1.445225e-04 -8.672840e-04 1.601067e-03
3.394112e-03 2.128308e-02 -7.746617e-04
3.530471e-05 -5.932566e-05 9.208410e-04
-2.445285e-08 -1.758490e-08 2.031886e-04
-1.042556e-04 6.123257e-05 8.890979e-04
-1.263598e-03 1.006701e-03 5.146248e-04
-2.802768e-05 -2.898896e-06 1.663828e-03
-1.710911e-03 -1.274300e-02 2.492964e-04
7.075435e-05 1.955119e-04 1.268729e-03
-5.255074e-03 1.690112e-03 -3.868195e-03
1.059792e-03 4.234224e-03 -1.194979e-03
1.488980e-02 9.111447e-04 6.167797e-03
-1.202528e-02 1.500212e-03 9.079758e-04
-4.434458e-04 -3.226880e-04 4.089329e-04
-4.032210e-05 -4.031882e-05 1.945156e-04
-2.438522e-02 1.311146e-03 -2.959014e-03
-1.485729e-05 1.446860e-05 5.193161e-04
1.325897e-05 -7.026171e-06 1.109866e-03
5.052023e-03 -2.603400e-02 -2.286327e-02
-3.646800e-04 7.073058e-04 4.827703e-04
2.155683e-05 1.271328e-03 5.760715e-04
-5.701729e-04 3.690449e-04 4.618198e-04
3.851260e-03 -1.174179e-02 -7.755891e-04
1.808260e-03 3.052000e-03 -9.411259e-03
-1.045037e-03 2.388462e-04 5.119192e-04
-7.484130e-05 -7.484257e-05 1.707278e-04
3.451466e-04 9.086266e-04 5.108024e-04
2.582521e-03 -1.045627e-03 -3.553387e-05
3.156123e-03 -1.127122e-03 -5.108916e-04
2.526259e-03 6.201530e-03 -3.217381e-02
2.095493e-04 -1.075092e-03 5.166469e-04
-2.584610e-05 3.720702e-04 1.514575e-03
-1.165821e-03 -5.478000e-05 6.082427e-04
2.590114e-03 -4.441793e-03 -6.108489e-03
-2.147036e-03 4.681302e-03 -3.640190e-03
1.436023e-03 3.047216e-03 -4.393148e-04
-9.978577e-05 -9.979101e-05 1.373105e-04
-1.098869e-02 -2.462304e-03 5.182000e-04
1.328870e-03 -3.075261e-03 -3.690273e-04
1.520616e-03 -1.507043e-03 3.587242e-04
-8.158602e-04 -1.038820e-03 2.109246e-03
-4.972356e-05 -1.209039e-03 5.234358e-04
-2.351141e-03 4.651277e-03 -5.522417e-03
3.201666e-04 -4.524594e-04 3.907437e-04
6.831410e-04 -4.685413e-03 7.735665e-03
-6.218183e-05 -9.460999e-05 8.134313e-04
1.114831e-02 -1.847545e-03 1.460611e-03
-9.963058e-05 9.962842e-05 1.375997e-04
-3.839295e-02 -2.571008e-04 -2.033791e-02
-1.669183e-04 -1.680351e-04 3.966010e-04
-3.489868e-04 -5.070483e-04 4.301870e-04
4.353921e-03 -1.389137e-03 -7.735784e-03
8.362226e-05 1.203808e-04 7.456121e-04
1.090876e-03 -1.169709e-04 4.930115e-04
3.591184e-04 6.440559e-04 4.672194e-04
-1.274255e-03 3.200759e-03 -6.101483e-04
-2.511816e-04 1.048772e-03 4.925305e-04
-4.599426e-04 -1.914633e-03 4.409665e-03
-7.469763e-05 7.469463e-05 1.708910e-04
-6.541246e-04 3.487256e-04 4.236752e-04
-1.310807e-06 1.391603e-06 5.071112e-04
7.736910e-04 3.400734e-04 4.579371e-04
-2.130912e-02 -9.550156e-03 -5.174201e-03
2.205931e-05 4.864517e-06 1.350693e-03
2.683314e-04 -1.261917e-03 4.565835e-04
-2.908562e-03 5.165572e-04 -1.839057e-04
-9.085849e-04 -2.802251e-04 4.652053e-04
-1.114026e-03 1.292316e-04 4.943208e-04
-3.428642e-03 -2.556779e-03 -2.002005e-03
-4.023887e-05 4.023500e-05 1.945686e-04
-2.061145e-04 2.107693e-04 3.397770e-04
-2.374045e-03 -1.029706e-03 8.176825e-06
4.816620e-05 4.417849e-05 5.433638e-04
-7.615291e-05 1.085451e-03 4.612448e-04
-3.257426e-04 -4.574681e-04 4.016407e-04
-2.021709e-05 -1.498459e-04 1.448837e-03
8.792169e-05 2.656856e-03 6.919352e-03
-2.112177e-03 -4.054088e-03 -3.204596e-03
3.212226e-04 1.180055e-04 3.033030e-03
1.969331e-04 -1.977110e-04 3.470782e-04
2.373217e-08 -2.838461e-08 2.031845e-04
4.674337e-03 1.396596e-03 -5.054922e-03
-1.315797e-03 2.547389e-03 -2.707856e-04
1.171846e-04 -5.112386e-04 1.161611e-03
6.644059e-04 -3.995660e-04 4.259824e-04
3.283228e-03 1.969565e-03 1.809773e-03
7.630800e-04 -4.536083e-04 2.245708e-03
4.360170e-04 3.030394e-04 3.505002e-04
9.777329e-04 -2.173753e-04 4.339153e-04
8.718946e-06 -2.704021e-05 1.230134e-03
-1.679559e-04 -1.699656e-04 3.648630e-04
1.072853e-04 4.426402e-04 1.137540e-04
4.032179e-05 -4.032677e-05 1.945079e-04
-2.936949e-03 1.319235e-03 -6.432122e-04
-4.319962e-03 -6.427480e-04 -7.347975e-03
-2.018262e-04 -1.014583e-03 4.736178e-04
3.681668e-04 -2.278054e-03 2.352358e-03
-1.724016e-04 1.134448e-03 5.316552e-03
-1.774671e-02 8.356133e-03 -4.931192e-03
1.103554e-03 8.497664e-04 3.857572e-04
3.279113e-03 3.303438e-03 -3.823574e-03
-1.431697e-04 2.851474e-03 -1.451211e-04
2.638003e-04 9.348850e-04 4.645397e-04
7.484167e-05 -7.484613e-05 1.707186e-04
-1.269965e-03 -2.558939e-04 4.854099e-04
2.809638e-03 8.567219e-04 -3.267041e-04
3.315471e-04 -1.279378e-05 1.344287e-03
2.519922e-04 8.823096e-05 1.009336e-03
-2.557608e-04 -9.353092e-04 4.383682e-04
1.087869e-04 -1.553395e-04 6.757460e-04
-9.035931e-04 -1.037847e-03 3.827305e-04
1.814410e-04 -3.213364e-03 -5.989209e-04
9.521896e-04 2.460420e-04 4.553868e-04
-3.229342e-04 -2.609244e-03 -9.058299e-03
9.978714e-05 -9.979029e-05 1.373018e-04
-3.352384e-04 6.751409e-04 4.001614e-04
-3.550246e-03 -2.153419e-03 -2.387464e-03
2.870311e-04 -4.686739e-04 5.283826e-04
9.793075e-04 9.164219e-04 3.311877e-04
2.135318e-03 -3.885809e-03 -3.875044e-03
-4.436813e-03 1.056702e-03 -4.458647e-03
-3.213589e-03 -4.600943e-04 -6.092684e-04
-2.713734e-05 1.002485e-05 1.101824e-03
9.889679e-04 1.861072e-04 5.087284e-04
-9.091499e-05 -1.266344e-04 3.167698e-03
-9.963184e-05 -9.962762e-05 1.376057e-04
-1.376074e-03 1.677672e-04 3.843145e-03
-3.514872e-03 -2.609065e-03 -6.010131e-03
2.645856e-03 3.248324e-03 -2.669816e-03
1.748387e-02 1.010033e-02 -1.845153e-02
4.066540e-04 -2.899076e-04 3.302158e-04
-2.172726e-04 2.192889e-04 2.787199e-04
1.971448e-04 2.480082e-04 4.734865e-04
-5.364024e-04 -2.095740e-03 -2.268365e-02
-7.071666e-03 1.654403e-02 -1.335335e-02
7.710660e-04 -8.603197e-04 3.490253e-04
-7.469826e-05 -7.469288e-05 1.708972e-04
2.011418e-04 -1.313801e-04 6.562530e-04
2.576726e-03 8.017196e-04 -2.581997e-04