# vtk DataFile Version 2.0
Electric current density generated by TTH
ASCII
DATASET UNSTRUCTURED_GRID
POINTS 8534 double
2.840673e-05 2.686320e-05 -1.480653e-22
-3.111281e-05 -2.228322e-05 5.618744e-07
-3.643637e-05 1.170213e-05 5.618744e-07
-2.977800e-05 -2.403999e-05 5.623974e-07
-3.809268e-05 -3.687593e-06 5.623974e-07
-3.754667e-05 7.409309e-06 5.623974e-07
-5.118155e-06 -3.792697e-05 5.623974e-07
-3.686334e-05 -1.027828e-05 5.618744e-07
-3.541824e-05 -1.449473e-05 5.618744e-07
-6.503463e-07 -3.826390e-05 5.618744e-07
-1.579639e-05 -3.485863e-05 5.623974e-07
2.814452e-05 2.713780e-05 -1.480653e-22
-9.470416e-06 -3.707911e-05 5.618744e-07
-1.974232e-05 -3.278553e-05 5.623974e-07
1.555865e-06 -3.823911e-05 5.623974e-07
-2.514332e-05 -2.885245e-05 5.623974e-07
3.803067e-06 -3.807999e-05 5.618744e-07
1.036775e-05 -3.683828e-05 5.618745e-07
8.204892e-06 -3.737952e-05 5.618745e-07
2.471519e-05 2.924552e-05 -5.696890e-07
2.466795e-05 -2.928783e-05 5.703521e-07
1.208300e-06 3.827115e-05 -5.696889e-07
2.787966e-05 2.740983e-05 -1.480653e-22
5.934544e-06 3.782034e-05 -5.671157e-07
-7.299020e-06 3.758810e-05 -5.696885e-07
2.615310e-05 -2.796873e-05 5.701207e-07
3.655274e-05 -1.134830e-05 5.636035e-07
1.928673e-05 -3.315725e-05 5.895127e-07
3.738734e-05 8.301801e-06 -5.723754e-07
1.758860e-05 3.377700e-05 4.438863e-07
3.558336e-05 -1.430362e-05 5.876424e-07
3.558336e-05 1.430362e-05 -5.876424e-07
-1.280698e-05 3.594082e-05 5.011864e-07
2.761216e-05 2.767928e-05 -1.480653e-22
-3.053683e-06 3.803328e-05 5.020166e-07
3.489395e-05 -1.595686e-05 5.918599e-07
3.489395e-05 1.595686e-05 -5.918599e-07
3.723597e-05 -9.389771e-06 5.976596e-07
3.639407e-05 1.123601e-05 -4.502356e-07
-1.951176e-05 3.256371e-05 2.896994e-07
3.830196e-05 2.425650e-06 -5.937194e-07
-1.674123e-05 3.454555e-05 5.954874e-07
2.732522e-05 -2.696275e-05 -5.954723e-07
2.845179e-05 -2.577241e-05 -5.956166e-07
2.734206e-05 2.794612e-05 -1.480653e-22
1.602893e-05 -3.487757e-05 -5.948081e-07
1.701309e-05 -3.435402e-05 -5.839073e-07
1.796847e-05 -3.385104e-05 -5.806885e-07
-8.888617e-06 3.734611e-05 5.956569e-07
2.221966e-05 -3.130537e-05 -5.956571e-07
2.221966e-05 3.130537e-05 5.956571e-07
2.353037e-05 -3.033251e-05 -5.956572e-07
2.353037e-05 3.033251e-05 5.956572e-07
4.441127e-06 3.813156e-05 5.956572e-07
2.889911e-06 3.830925e-05 5.999318e-07
2.706939e-05 2.821033e-05 -1.480653e-22
6.163097e-06 3.789183e-05 5.957360e-07
1.083304e-06 3.839503e-05 5.989140e-07
-7.195390e-06 3.773033e-05 5.989140e-07
2.609043e-05 -2.814965e-05 -5.941882e-07
2.487987e-05 2.923643e-05 5.957412e-07
2.485406e-05 -2.924706e-05 -5.941925e-07
2.774912e-05 2.621796e-05 5.149752e-07
2.770295e-05 2.609602e-05 -4.209441e-07
3.784195e-05 -6.366809e-06 5.927639e-07
3.615084e-05 1.299362e-05 -5.995472e-07
2.679416e-05 2.847187e-05 -1.480653e-22
3.613118e-05 -1.301355e-05 5.979134e-07
3.052637e-05 -2.327889e-05 -5.957166e-07
2.957743e-05 -2.449675e-05 -5.981070e-07
3.712194e-05 7.591862e-06 5.340954e-08
3.213837e-05 2.046549e-05 4.609342e-07
3.211344e-05 -2.049322e-05 -4.556751e-07
3.103223e-05 2.186787e-05 2.920753e-07
3.133151e-05 2.203703e-05 -5.748115e-07
2.740409e-05 2.705347e-05 6.043201e-07
1.066204e-05 3.668095e-05 5.285717e-07
2.651640e-05 2.873073e-05 -1.480653e-22
1.179316e-05 3.641592e-05 5.651662e-07
1.286430e-05 3.610003e-05 5.804745e-07
1.394638e-05 3.566839e-05 5.723846e-07
1.491554e-05 3.505818e-05 4.591267e-07
1.047483e-05 3.687470e-05 -5.832781e-07
-1.370379e-05 3.598132e-05 6.044379e-07
-2.269724e-06 3.843810e-05 6.043915e-07
-3.918760e-06 3.830353e-05 6.044224e-07
-1.212999e-05 3.654281e-05 6.044233e-07
3.497168e-05 -1.565438e-05 -5.780431e-07
2.623614e-05 2.898688e-05 -1.480653e-22
3.497168e-05 1.565438e-05 5.780431e-07
1.591895e-05 3.495458e-05 5.987046e-07
2.857612e-05 2.580839e-05 6.043836e-07
3.404348e-05 1.748089e-05 -5.618285e-07
3.404348e-05 -1.748089e-05 5.618285e-07
-1.818901e-05 3.388174e-05 6.033810e-07
2.541486e-05 -2.863354e-05 5.680656e-07
3.039624e-05 -2.332740e-05 5.781281e-07
3.755872e-05 -8.071268e-06 5.996900e-07
2.651099e-05 -2.736113e-05 -4.581626e-07
2.595341e-05 2.924029e-05 -1.480653e-22
-7.982110e-06 3.724431e-05 4.511303e-07
5.257931e-06 3.772541e-05 4.511313e-07
1.941587e-06 3.804919e-05 4.586867e-07
2.401921e-05 -2.956233e-05 -4.511429e-07
2.401921e-05 2.956233e-05 4.511429e-07
3.839444e-05 1.884313e-06 6.022979e-07
3.165924e-05 -2.172791e-05 -5.971026e-07
3.754571e-05 -7.940984e-06 -5.932544e-07
3.734544e-05 -8.883209e-06 -5.953247e-07
2.884116e-05 2.485144e-05 4.334549e-07
2.566823e-05 2.949095e-05 -1.480653e-22
-2.200374e-05 3.144257e-05 5.934072e-07
-2.131742e-05 3.201822e-05 6.039234e-07
3.789229e-05 3.477430e-06 -4.135411e-07
2.229598e-05 3.114329e-05 -5.736126e-07
2.310559e-05 3.056305e-05 -5.776036e-07
2.230630e-05 -3.114381e-05 5.757119e-07
2.310559e-05 -3.056305e-05 5.776036e-07
3.206685e-05 2.135607e-05 -6.035090e-07
2.096706e-05 -3.190047e-05 -5.138628e-07
-1.814879e-05 3.379348e-05 -5.895026e-07
2.538063e-05 2.973883e-05 -1.480653e-22
2.957396e-05 -2.436133e-05 5.781043e-07
3.824996e-05 3.538872e-06 5.993200e-07
2.826662e-05 -2.585906e-05 5.764805e-07
2.759013e-05 -2.653872e-05 5.667396e-07
3.658976e-05 1.194769e-05 6.045209e-07
3.605495e-05 1.294697e-05 5.760289e-07
3.604546e-05 -1.289391e-05 -5.667831e-07
1.839530e-05 -3.329588e-05 4.003217e-07
3.378735e-05 1.846930e-05 -6.043745e-07
3.378735e-05 -1.846930e-05 6.043745e-07
2.509064e-05 2.998390e-05 -1.480653e-22
3.655174e-05 -1.224183e-05 6.020327e-07
3.782932e-05 -6.143427e-06 -5.808409e-07
-1.651159e-05 3.457854e-05 -5.789552e-07
2.802201e-05 -2.649395e-05 -6.003056e-07
3.541762e-05 1.450964e-05 5.638607e-07
3.541765e-05 -1.450958e-05 -5.638628e-07
3.599202e-05 -1.374862e-05 -6.034441e-07
3.599602e-05 1.382567e-05 6.007540e-07
9.727615e-06 3.732920e-05 -5.987444e-07
8.704686e-06 3.741931e-05 -5.999734e-07
2.479828e-05 3.022614e-05 -1.480653e-22
7.905414e-06 3.776271e-05 -5.979579e-07
6.943453e-06 3.785368e-05 -6.044793e-07
3.436135e-05 1.722838e-05 6.021108e-07
3.436135e-05 -1.722838e-05 -6.021108e-07
3.833371e-05 -4.676350e-06 5.913672e-07
3.832832e-05 4.704620e-06 -5.917704e-07
2.292511e-05 -3.100230e-05 -6.009826e-07
2.298000e-05 3.096039e-05 6.010897e-07
3.645289e-06 3.838408e-05 6.010902e-07
2.559462e-05 -2.883622e-05 -6.011094e-07
2.450358e-05 3.046553e-05 -1.480653e-22
7.913114e-06 3.779949e-05 5.911542e-07
9.375098e-06 3.746367e-05 5.911542e-07
2.632980e-05 2.825206e-05 5.911026e-07
2.109845e-05 3.221737e-05 -6.042358e-07
2.108012e-05 -3.221285e-05 6.045036e-07
-1.590243e-05 3.514942e-05 -5.982412e-07
2.179275e-05 -3.179437e-05 6.021337e-07
2.179275e-05 3.179437e-05 -6.021337e-07
3.161322e-05 -2.187579e-05 6.025819e-07
1.217382e-05 -3.653255e-05 6.043350e-07
2.420657e-05 3.070206e-05 -1.480653e-22
1.225753e-05 3.652551e-05 -6.035127e-07
3.808781e-05 6.535957e-06 -5.850819e-07
3.807916e-05 5.588630e-06 -6.044986e-07
1.359654e-05 3.601576e-05 -6.045073e-07
1.359654e-05 -3.601576e-05 6.045073e-07
1.956263e-05 -3.247544e-05 1.702506e-07
3.066623e-05 2.258600e-05 4.474926e-07
2.991793e-05 2.330437e-05 -2.036957e-07
3.066758e-05 2.334658e-05 -6.024062e-07
-9.249150e-06 3.736408e-05 -6.045223e-07
2.390728e-05 3.093568e-05 -1.480653e-22
4.201373e-06 3.830279e-05 -6.031940e-07
3.250982e-06 3.811620e-05 -5.557567e-07
3.883930e-05 8.123977e-07 -4.890691e-07
3.883930e-05 -8.123977e-07 4.890691e-07
1.498400e-05 -3.549941e-05 6.032169e-07
1.498400e-05 3.549941e-05 -6.032169e-07
3.488765e-05 1.654412e-05 5.926658e-07
3.488765e-05 -1.654412e-05 -5.926658e-07
-1.993299e-05 3.295527e-05 -6.041173e-07
-1.912119e-05 3.335919e-05 -6.030778e-07
2.360573e-05 3.116639e-05 -1.480653e-22
-2.116612e-05 3.221276e-05 -6.022921e-07
3.785500e-05 1.943307e-06 -1.419636e-07
3.201453e-05 2.142380e-05 6.038226e-07
3.118745e-05 2.273935e-05 -5.954004e-07
3.381495e-05 1.710856e-05 1.020716e-07
3.381495e-05 -1.710856e-05 -1.020716e-07
1.971476e-05 -3.314822e-05 -5.998083e-07
2.893508e-05 2.555718e-05 -5.938017e-07
3.708049e-05 -7.785287e-06 -3.511677e-08
-2.207861e-05 3.163130e-05 -5.989091e-07
2.330196e-05 3.139416e-05 -1.480653e-22
3.738073e-05 -6.185808e-06 3.722387e-08
3.712239e-05 -1.053909e-05 -5.966943e-07
3.825052e-05 -5.393029e-06 -5.889393e-07
3.848961e-05 -2.219860e-06 6.014258e-07
3.786564e-05 -2.050593e-06 1.975261e-07
3.768849e-05 -4.853975e-06 -3.503012e-07
3.817391e-05 -4.047413e-06 -5.954073e-07
1.203648e-05 -3.592603e-05 -3.098878e-08
-1.650070e-05 3.410871e-05 5.373281e-08
-1.796071e-05 3.336342e-05 -5.762786e-08
2.299599e-05 3.161896e-05 -1.480653e-22
3.752147e-05 7.127839e-06 -5.248531e-07
2.675650e-05 2.762085e-05 -6.033884e-07
2.583225e-05 2.805392e-05 -4.879833e-07
2.552856e-05 2.887382e-05 -6.025749e-07
3.720079e-05 1.049477e-05 5.828717e-07
3.824713e-05 4.777469e-06 6.022917e-07
-1.273800e-05 3.586721e-05 -4.244061e-07
1.203512e-05 3.592564e-05 -1.522335e-09
-3.082299e-06 3.793721e-05 -4.246576e-07
3.647930e-05 1.023630e-05 -2.000557e-08
2.268785e-05 3.184079e-05 -1.480653e-22
3.024144e-05 -2.403539e-05 -5.887667e-07
3.449782e-05 1.567060e-05 -5.228521e-08
3.449782e-05 -1.567060e-05 5.228521e-08
3.788189e-05 6.068951e-06 5.909220e-07
3.649207e-05 -1.188256e-05 -5.935770e-07
-6.625995e-06 3.805798e-05 -5.885581e-07
-5.658684e-06 3.771280e-05 -4.874912e-07
-4.813992e-06 3.814874e-05 -6.031179e-07
-4.045001e-06 3.843485e-05 -5.844062e-07
4.689267e-07 3.862763e-05 -5.885580e-07
2.237757e-05 3.205961e-05 -1.480653e-22
-4.309199e-07 3.813254e-05 -4.874912e-07
-1.334345e-06 3.842812e-05 -6.031179e-07
-2.132518e-06 3.857165e-05 -5.885388e-07
3.228393e-05 -2.090286e-05 6.036577e-07
3.510557e-05 -1.426012e-05 6.388190e-08
3.510557e-05 1.426012e-05 -6.387943e-08
1.877616e-05 -3.377204e-05 -5.860936e-07
1.817826e-05 3.324325e-05 -3.275697e-08
1.856400e-05 3.380827e-05 -5.995692e-07
1.959255e-05 3.244885e-05 -1.429859e-07
2.206518e-05 3.227541e-05 -1.480653e-22
3.662820e-05 1.235514e-05 -5.820255e-07
-1.762454e-05 3.439758e-05 -5.836498e-07
3.564793e-05 1.284271e-05 -5.832534e-08
[...]
POINT_DATA 8534
VECTORS 10.000GHz_fone_imag double
3.945541e+10 -4.254857e+10 -1.441832e+08
-3.759235e+10 5.166159e+10 4.070422e+07
1.871115e+10 6.063610e+10 5.069674e+07
-4.096729e+10 4.928639e+10 -7.069890e+07
-7.150626e+09 6.349326e+10 -7.026148e+07
1.153050e+10 6.304356e+10 -7.817222e+07
-6.298111e+10 7.621994e+09 9.166724e+07
-1.779311e+10 6.086866e+10 6.923970e+07
-2.470371e+10 5.843926e+10 5.059778e+07
-6.340431e+10 3.335632e+08 7.012586e+07
-5.867916e+10 2.548322e+10 -7.710972e+07
4.190047e+10 -4.160348e+10 1.937465e+08
-6.166212e+10 1.681498e+10 8.664439e+07
-5.529499e+10 3.231914e+10 -5.946165e+07
-6.387035e+10 -3.595261e+09 -7.856954e+07
-4.888986e+10 4.141166e+10 -6.103064e+07
-6.368637e+10 -5.292925e+09 7.594852e+07
-6.048841e+10 -1.848722e+10 2.460596e+08
-6.184094e+10 -1.430805e+10 4.949131e+07
4.782904e+10 -3.930743e+10 -2.152913e+08
-4.725203e+10 -4.058312e+10 -2.012107e+08
6.282729e+10 -2.609536e+09 -7.684517e+08
4.000046e+10 -4.273112e+10 2.031451e+08
6.178220e+10 -1.015167e+10 9.091634e+08
6.321153e+10 1.228808e+10 5.621604e+08
-4.583435e+10 -4.223208e+10 -8.231722e+07
-1.739266e+10 -6.017233e+10 4.814157e+08
-5.528340e+10 -3.223228e+10 4.656477e+08
1.451433e+10 -6.055316e+10 -1.425669e+09
5.758773e+10 -2.970474e+10 -4.341820e+08
-2.333907e+10 -5.771163e+10 5.359990e+08
2.486913e+10 -6.550122e+10 -2.615354e+09
6.212651e+10 2.128642e+10 1.044100e+09
4.236140e+10 -4.210208e+10 1.742479e+09
6.285208e+10 5.128376e+09 -1.649769e+09
-2.599588e+10 -5.666521e+10 9.108811e+07
2.520659e+10 -5.689113e+10 -1.300268e+09
-1.388610e+10 -6.136195e+10 -8.706871e+08
1.820855e+10 -6.204995e+10 1.044910e+09
5.468281e+10 3.386985e+10 -2.879765e+08
2.764930e+09 -6.293822e+10 -1.745140e+08
5.537955e+10 2.725512e+10 3.205413e+07
-4.301099e+10 -4.502305e+10 1.014498e+09
-4.213731e+10 -4.676170e+10 1.012062e+09
4.284303e+10 -4.163735e+10 -1.231533e+08
-5.682365e+10 -2.793074e+10 1.333412e+09
-5.839304e+10 -2.753980e+10 2.868633e+08
-5.632706e+10 -3.001604e+10 -2.509256e+08
6.235760e+10 1.281203e+10 2.761598e+09
-5.087443e+10 -3.574611e+10 -3.160522e+08
5.260639e+10 -3.663891e+10 1.476981e+09
-5.229967e+10 -3.940098e+10 -1.301738e+09
5.038986e+10 -3.806500e+10 -1.163096e+09
6.288088e+10 -6.610270e+09 -8.155903e+08
6.170496e+10 -3.582641e+09 7.322046e+08
4.299338e+10 -4.093331e+10 7.969298e+08
6.197408e+10 -9.779392e+09 4.650196e+08
6.236352e+10 -1.180712e+09 -3.336422e+08
6.080225e+10 1.099650e+10 7.432779e+08
-4.726254e+10 -4.258779e+10 1.972352e+09
4.876327e+10 -4.109166e+10 -1.416673e+07
-4.815998e+10 -4.177879e+10 -1.254168e+09
4.408225e+10 -4.778313e+10 5.241982e+08
4.513544e+10 -4.823530e+10 6.026342e+08
-1.176289e+10 -6.229437e+10 1.762498e+09
2.194293e+10 -5.985257e+10 -2.281556e+08
4.361924e+10 -4.044957e+10 6.703883e+08
-2.154992e+10 -5.997956e+10 1.257624e+09
-3.895561e+10 -4.857743e+10 -7.453253e+08
-4.004046e+10 -4.763305e+10 7.320603e+08
1.425711e+10 -6.388805e+10 6.803698e+08
3.348470e+10 -5.359052e+10 2.706652e+09
-3.567804e+10 -5.488522e+10 1.399556e+09
3.698960e+10 -5.291832e+10 -2.030570e+08
3.727624e+10 -5.244056e+10 -7.991295e+08
4.219859e+10 -4.425532e+10 5.404357e+08
6.112137e+10 -1.778076e+10 -5.928478e+08
4.328448e+10 -4.108370e+10 -4.389318e+08
5.901157e+10 -1.797143e+10 -6.997321e+08
5.845767e+10 -2.115497e+10 2.094278e+08
5.900111e+10 -2.199298e+10 8.661567e+08
5.917754e+10 -2.623562e+10 -1.192968e+09
6.035778e+10 -1.832473e+10 -5.660467e+08
5.900545e+10 2.186032e+10 8.869396e+08
6.131288e+10 4.544378e+09 -1.326853e+07
6.267572e+10 5.916583e+09 7.465666e+08
5.943207e+10 2.055983e+10 -1.589012e+09
-2.572711e+10 -5.822443e+10 -3.028586e+08
4.421132e+10 -3.875251e+10 -2.075806e+08
2.649282e+10 -5.770326e+10 -6.368284e+08
5.647824e+10 -2.584295e+10 -3.647047e+08
4.133091e+10 -4.786914e+10 5.612408e+08
3.000511e+10 -5.630773e+10 -9.487715e+07
-2.986645e+10 -5.535868e+10 -2.630315e+08
5.484331e+10 2.989700e+10 8.051035e+08
-4.607475e+10 -4.214358e+10 -8.302884e+08
-4.048107e+10 -4.985968e+10 2.282181e+08
-1.319054e+10 -6.090965e+10 9.155235e+08
-4.790631e+10 -4.676305e+10 -2.237414e+08
4.473638e+10 -4.027766e+10 -4.672489e+08
6.206607e+10 1.361652e+10 -4.410018e+08
6.254404e+10 -7.822839e+09 -1.166718e+08
6.371283e+10 -5.299123e+09 1.027267e+09
-5.101561e+10 -4.056094e+10 9.336822e+08
5.004642e+10 -4.030996e+10 -7.878161e+07
3.698965e+09 -6.327006e+10 -2.745026e+08
-3.343902e+10 -5.169824e+10 -6.554318e+08
-1.342048e+10 -6.161191e+10 2.005066e+09
-1.367631e+10 -6.060882e+10 8.551620e+08
4.174539e+10 -4.782799e+10 -7.692231e+08
4.435840e+10 -3.981435e+10 -5.425072e+08
5.152507e+10 3.527854e+10 -9.279174e+07
5.202767e+10 3.466698e+10 -2.834206e+09
5.718376e+09 -6.366305e+10 7.683392e+08
5.128781e+10 -3.602822e+10 -6.213263e+08
5.019556e+10 -3.669835e+10 -6.975021e+08
-5.057899e+10 -3.659101e+10 1.286876e+09
-5.085848e+10 -3.822927e+10 -4.234888e+08
3.540526e+10 -5.179860e+10 1.064510e+09
-5.381570e+10 -3.484211e+10 1.001845e+09
5.453785e+10 2.967692e+10 -2.376093e+08
4.510747e+10 -3.939177e+10 -6.108087e+08
-3.984980e+10 -5.034132e+10 -1.283558e+09
6.069979e+09 -6.267579e+10 1.327026e+09
-4.249030e+10 -4.798824e+10 -7.422814e+08
-4.359866e+10 -4.570371e+10 2.695182e+08
1.900726e+10 -5.923814e+10 1.728124e+07
2.103327e+10 -5.862547e+10 2.090121e+08
-2.056363e+10 -5.817323e+10 -5.889162e+08
-5.838076e+10 -3.206396e+10 1.443788e+09
2.952750e+10 -5.448043e+10 -7.285903e+08
-2.946106e+10 -5.437058e+10 -7.002422e+08
4.612796e+10 -3.791608e+10 3.119497e+08
-2.000281e+10 -5.873990e+10 7.104565e+08
-1.032077e+10 -6.267549e+10 2.208507e+08
5.757456e+10 2.720913e+10 -5.415465e+08
-4.360429e+10 -4.326630e+10 1.709749e+08
2.219510e+10 -6.166008e+10 1.506224e+09
-2.312313e+10 -5.854625e+10 2.670172e+08
-2.211724e+10 -5.815553e+10 -4.368427e+08
2.306375e+10 -5.772899e+10 -1.577307e+09
5.994646e+10 -1.722747e+10 -8.861907e+08
6.112120e+10 -1.508979e+10 9.127997e+07
4.656429e+10 -3.617413e+10 -8.296254e+07
6.033721e+10 -1.318725e+10 4.524802e+08
6.173056e+10 -1.155338e+10 -6.854633e+08
2.787076e+10 -5.660405e+10 1.202659e+09
-2.723908e+10 -5.787657e+10 3.294588e+08
-8.380903e+09 -6.412512e+10 6.814340e+08
9.053581e+09 -6.364040e+10 1.653704e+09
-5.017275e+10 -3.705413e+10 1.690212e+08
5.034520e+10 -3.659446e+10 1.638637e+09
6.065332e+10 -5.664879e+09 -3.408959e+08
-4.634861e+10 -4.032309e+10 -3.036857e+08
4.527243e+10 -3.802422e+10 -5.681811e+08
5.960711e+10 -1.226352e+10 -4.936414e+06
5.864438e+10 -1.464116e+10 -6.387982e+08
4.617031e+10 -4.245711e+10 1.724259e+09
5.165072e+10 -3.493414e+10 -1.430974e+09
-5.432796e+10 -3.319328e+10 -2.458591e+09
5.662370e+10 2.578484e+10 2.443520e+09
-5.116661e+10 -3.617762e+10 -4.575092e+08
5.149245e+10 -3.505328e+10 -5.029784e+08
-3.505247e+10 -5.092486e+10 5.676129e+08
-5.988617e+10 -1.939201e+10 -6.741862e+07
4.608598e+10 -3.727870e+10 -7.252164e+08
5.848768e+10 -2.027746e+10 -1.576332e+08
1.075436e+10 -6.052334e+10 3.746977e+07
8.612591e+09 -6.400852e+10 9.973709e+08
5.849018e+10 -2.133570e+10 -1.100572e+07
-5.977499e+10 -2.159940e+10 9.566115e+08
-5.660738e+10 -3.269768e+10 6.591523e+08
3.840492e+10 -5.123710e+10 -4.467995e+08
3.881980e+10 -5.225424e+10 -5.093989e+07
3.784046e+10 -4.911390e+10 -7.933993e+08
6.036274e+10 1.384201e+10 -6.933562e+08
4.640594e+10 -3.591514e+10 4.627780e+07
5.962564e+10 -7.370389e+09 -1.302961e+09
6.315327e+10 -5.229509e+09 5.927538e+08
2.504003e+09 -6.093098e+10 2.419390e+08
-1.810863e+09 -5.942515e+10 -1.083083e+09
-5.804685e+10 -2.582458e+10 5.270334e+08
5.750127e+10 -2.436319e+10 3.862779e+08
2.668151e+10 -5.687000e+10 -2.968335e+08
-2.583379e+10 -5.550628e+10 6.846480e+07
5.324253e+10 3.402406e+10 1.447082e+09
5.374989e+10 3.308816e+10 1.003648e+09
4.793759e+10 -3.507660e+10 -3.556639e+08
5.208417e+10 3.465202e+10 1.390289e+08
3.391656e+09 -6.489196e+10 -6.826778e+08
3.507509e+10 -5.043020e+10 -6.804624e+07
3.653238e+10 -5.145758e+10 7.090303e+08
2.944228e+10 -6.069335e+10 -9.650875e+07
-2.934959e+10 -5.903763e+10 1.639887e+09
-5.330799e+10 -3.052349e+10 8.487076e+08
4.144827e+10 -4.573081e+10 2.864899e+08
-1.293624e+10 -6.368461e+10 1.142546e+09
5.047426e+10 3.564518e+10 -6.886823e+07
4.868679e+10 -3.519629e+10 7.850214e+08
-1.083105e+10 -6.390895e+10 6.165882e+08
-1.725734e+10 -5.813050e+10 4.218847e+08
-8.761866e+09 -6.166982e+10 -1.759970e+08
-6.142450e+09 -6.330840e+10 7.181028e+08
-3.606050e+09 -6.685569e+10 6.128349e+08
-1.038718e+10 -6.237801e+10 -1.073182e+09
-8.250731e+09 -6.147595e+10 4.603204e+08
-6.124383e+10 -1.954613e+10 1.471662e+08
5.913109e+10 2.764404e+10 -2.263399e+08
5.699025e+10 2.982375e+10 -6.006008e+08
4.857914e+10 -3.577091e+10 -6.635973e+08
1.117230e+10 -6.206865e+10 2.115073e+08
4.344623e+10 -4.322367e+10 -9.616097e+08
4.652249e+10 -4.182469e+10 1.529390e+09
4.715564e+10 -4.296077e+10 -8.409609e+07
1.702599e+10 -5.913561e+10 6.344451e+08
7.405788e+09 -6.133796e+10 -7.233783e+08
6.123671e+10 2.154541e+10 1.343120e+09
6.138636e+10 -2.048026e+10 -3.231964e+08
6.479186e+10 4.568803e+09 -6.590807e+07
1.684884e+10 -6.236225e+10 -1.941731e+07
4.780380e+10 -3.417197e+10 4.862014e+08
-3.992463e+10 -4.882394e+10 -2.165172e+09
2.707491e+10 -5.958411e+10 6.153888e+07
-2.948821e+10 -6.187509e+10 -7.590326e+08
8.998192e+09 -6.221895e+10 1.343331e+08
-1.944265e+10 -5.961770e+10 -1.084080e+09
6.134781e+10 1.004166e+10 -5.814456e+08
6.374664e+10 9.373620e+09 1.585316e+09
6.127716e+10 7.264806e+09 5.465051e+08
5.966993e+10 5.508692e+09 1.506758e+09
6.292851e+10 -3.247518e+08 -4.447008e+08
4.865087e+10 -3.295231e+10 1.023284e+08
6.393551e+10 3.839336e+08 -1.016526e+09
6.098104e+10 3.431764e+09 1.380736e+09
6.173607e+10 3.935820e+09 -1.841392e+08
-3.370744e+10 -5.411749e+10 -8.955144e+08
-2.400755e+10 -5.957011e+10 -5.126502e+07
2.216952e+10 -6.318658e+10 2.037348e+09
-5.369493e+10 -3.104845e+10 -9.464505e+07
5.894549e+10 -3.087138e+10 -1.556035e+09
5.289041e+10 -3.116152e+10 1.102918e+09
5.579802e+10 -3.484271e+10 6.904774e+08
4.910281e+10 -3.279271e+10 1.013127e+09
1.873408e+10 -5.819353e+10 -6.990614e+08
5.404860e+10 2.708985e+10 4.240201e+08
2.168895e+10 -6.120786e+10 -9.501309e+07
-2.206913e+10 -6.046700e+10 -4.970640e+08
1.281084e+10 -6.062220e+10 2.353669e+08
1.067526e+10 -6.137008e+10 -6.929637e+08
-1.065053e+10 -6.021906e+10 -1.283148e+09
3.154444e+10 -5.273451e+10 5.704589e+08
3.307344e+10 -5.260833e+10 -2.445623e+08
-3.231274e+10 -5.301384e+10 6.822862e+07
4.956401e+10 -3.396366e+10 -2.524331e+08
2.891218e+10 -5.693093e+10 -2.281131e+09
-2.487461e+10 -5.750313e+10 -9.852150e+08
5.870952e+10 -1.652306e+10 4.669399e+08
-3.702877e+10 -5.312985e+10 1.014188e+08
5.858388e+10 2.274418e+10 -1.768341e+09
5.034453e+09 -6.138521e+10 -2.318230e+09
5.767119e+10 2.465138e+10 -8.386348e+07
5.864252e+10 2.603914e+10 -4.478596e+08
-6.044156e+09 -6.222618e+10 -3.123776e+08
3.575004e+10 -4.997696e+10 6.711404e+07
5.021869e+10 -3.278607e+10 -4.479196e+08
5.339573e+10 3.630132e+10 -1.182413e+08
6.146812e+10 1.019331e+10 1.289660e+09
6.280689e+10 -9.657860e+08 -1.902801e+09
3.388566e+10 -5.601933e+10 6.101400e+08
-3.405080e+10 -5.550586e+10 -3.216752e+08
4.283883e+10 -4.413446e+10 -5.980864e+07
6.007533e+10 1.604760e+10 -1.503164e+09
5.970234e+10 1.998792e+10 8.945871e+08
6.066437e+10 1.802864e+10 1.763687e+08
5.638298e+10 2.010206e+10 -5.238428e+08
5.032701e+10 -3.342696e+10 -5.766082e+08
5.647077e+10 2.562750e+10 5.256590e+07
1.115204e+10 -6.357441e+10 3.245960e+08
6.067937e+10 1.628213e+10 -9.994630e+08
5.466473e+10 -3.090913e+10 -5.958957e+08
4.175143e+10 -4.425766e+10 -4.672195e+08
5.255558e+10 -3.587621e+10 -8.376619e+08
-5.347750e+09 -6.546530e+10 -2.795666e+08
5.135980e+10 3.872394e+10 1.234588e+09
-1.816264e+10 -5.887629e+10 -3.938587e+08
4.901047e+10 3.909857e+10 9.261481e+08
5.144440e+10 -3.015956e+10 -8.664247e+06
6.704946e+10 -1.278440e+10 9.292546e+07
-3.686788e+10 -4.989559e+10 5.524448e+08
-8.631879e+09 -6.017385e+10 -1.640614e+09
5.952979e+10 -1.095041e+10 -5.610269e+08
4.502682e+10 -3.967899e+10 3.826877e+08
5.191071e+10 3.193383e+10 7.408091e+08
5.369589e+10 3.136352e+10 -1.139682e+09
5.716095e+10 -2.362787e+10 8.509309e+08
-5.754934e+10 -2.383267e+10 8.538557e+08
-1.852490e+10 -6.171212e+10 -8.798918e+07
5.080453e+10 -3.169037e+10 8.945804e+08
1.761421e+09 -6.625304e+10 9.100045e+08
-3.753465e+08 -6.459162e+10 -6.447380e+08
5.696430e+10 -3.092228e+10 -4.118660e+08
-5.588313e+10 -3.012206e+10 1.083336e+08
-5.950644e+10 -2.846267e+10 6.615860e+08
-2.178552e+10 -5.717147e+10 3.695742e+08
2.291287e+10 -6.157335e+10 2.646598e+08
6.209111e+10 -1.584296e+10 4.393585e+08
-5.850396e+10 -1.689170e+10 1.303875e+08
6.042491e+10 -1.844622e+10 1.494417e+09
5.053131e+10 -3.022700e+10 -2.631049e+08
2.761492e+10 -5.635425e+10 3.590280e+08
-2.692138e+10 -5.619118e+10 -5.657273e+08
5.945709e+10 -2.758334e+10 7.911460e+08
-3.749802e+10 -5.376380e+10 -1.503460e+08
-3.788784e+10 -5.220954e+10 -3.014390e+08
-5.496743e+10 -3.713557e+10 -3.268077e+08
2.918849e+10 -5.292461e+10 1.012743e+09
-2.923829e+10 -5.354029e+10 1.410185e+09
4.924855e+10 3.856441e+10 -2.013008e+08
3.994567e+10 -4.764049e+10 4.457285e+08
5.249379e+10 -2.937586e+10 -3.367929e+08
-4.038937e+10 -4.619427e+10 4.295009e+08
6.291931e+10 -5.307225e+09 -6.264191e+08
5.384301e+10 -2.847211e+10 -3.735263e+08
-4.489695e+10 -4.489754e+10 -5.487989e+08
5.111842e+10 4.018782e+10 -7.220808e+08
-1.243953e+10 -6.286998e+10 -1.328980e+09
3.613792e+10 -5.423226e+10 -1.092866e+09
5.553448e+10 2.516780e+10 2.952715e+07
6.549458e+10 1.665838e+10 2.379885e+08
6.420524e+10 -5.764890e+09 6.023502e+08
5.098247e+10 -2.944879e+10 1.864243e+08
-5.169133e+10 -4.004550e+10 9.550776e+08
5.113882e+10 -4.011775e+10 2.033488e+08
-3.106330e+10 -5.662337e+10 -1.826512e+08
3.113665e+10 -5.660628e+10 -3.513867e+08
5.587438e+10 2.294497e+10 1.991412e+08
-8.599941e+09 -6.425897e+10 -3.641716e+08
8.093546e+09 -6.328243e+10 3.706047e+08
6.009444e+10 2.396453e+10 4.293893e+08
-3.533940e+10 -5.144383e+10 -8.677533e+08
-6.296399e+10 -1.568213e+10 -5.533449e+07
5.115433e+10 -2.816416e+10 -3.603380e+08
-6.208047e+10 -1.941255e+10 -2.115538e+08
4.745784e+10 4.432581e+10 5.260527e+08
-6.351918e+10 -6.528958e+09 1.210578e+08
-6.625232e+10 -1.234444e+10 3.237543e+08
-6.169262e+10 1.553294e+10 1.739168e+08
-5.460766e+10 3.172597e+10 4.673029e+08
-5.460724e+10 3.504028e+10 -2.468938e+08
-6.073467e+10 1.883027e+10 6.197865e+07
1.125660e+10 6.228945e+10 3.816558e+08
-1.917237e+10 6.194788e+10 -1.079910e+08
5.205373e+10 -2.828945e+10 1.560789e+09
-2.626960e+10 5.938295e+10 -5.704507e+07
4.806785e+09 6.358064e+10 2.086633e+08
-4.052853e+10 4.860576e+10 4.382250e+08
3.189011e+10 5.459622e+10 4.501302e+08
-2.283110e+10 6.078603e+10 -1.915686e+08
-7.228322e+09 6.319041e+10 1.027866e+08
-4.837091e+10 4.082581e+10 4.505389e+08
-6.283753e+10 7.507275e+09 6.215871e+08
-3.299138e+10 5.591190e+10 -5.386185e+07
2.183745e+10 6.129508e+10 2.895650e+08
5.176815e+10 -2.828597e+10 3.767325e+08
3.522119e+10 5.446325e+10 -5.244089e+07
-4.597097e+10 4.801396e+10 -4.081799e+08
-5.362007e+10 3.939662e+10 4.190794e+07
5.406777e+08 6.546804e+10 1.348198e+09
-3.617026e+10 5.386291e+10 -9.007535e+07
3.835356e+10 5.235030e+10 -7.758237e+07
-1.188863e+10 6.545755e+10 3.337920e+07
1.811315e+10 6.236080e+10 -8.432698e+07
2.534464e+10 5.825644e+10 6.403980e+07
4.608010e+10 4.938605e+10 4.073900e+08
5.241607e+10 -2.746572e+10 -9.930179e+08
-4.386079e+09 6.735206e+10 3.872511e+08
-1.560973e+10 6.302164e+10 -2.449815e+08
4.135933e+10 5.005129e+10 -5.244171e+07
2.881470e+10 5.840524e+10 2.986153e+08
-3.927216e+10 5.160254e+10 -1.737992e+08
-6.161377e+10 2.170690e+10 1.835950e+08
-4.767996e+10 4.409893e+10 -1.338854e+08
8.487784e+09 6.321382e+10 1.932714e+08
-6.742372e+10 3.316097e+09 4.121866e+08
-2.966284e+10 5.771292e+10 -7.134024e+07
5.319770e+10 -2.811429e+10 1.163967e+09
-6.649106e+10 1.109893e+10 3.331901e+08
-6.487606e+10 -7.121720e+08 -3.110524e+07
-5.832568e+10 2.520733e+10 6.666259e+07
-6.349818e+10 -3.696604e+09 7.626848e+07
1.432679e+10 6.303969e+10 -1.690856e+08
-5.847375e+10 2.867181e+10 2.993418e+08
-5.672012e+10 -3.007449e+10 -5.784016e+08
-3.186980e+10 -5.187522e+10 -4.487204e+08
-1.214540e+10 -6.021954e+10 -3.226432e+08
5.987780e+10 2.057432e+10 5.076850e+07
5.283665e+10 -2.715712e+10 -4.395812e+08
6.350614e+10 3.391051e+09 7.307397e+07
6.518866e+10 7.216759e+09 1.020488e+09
6.092504e+10 2.213116e+08 -8.264407e+07
6.023899e+10 9.693847e+09 -1.705525e+08
5.840827e+10 1.567819e+10 -1.393954e+08
4.583040e+10 -4.441490e+10 -1.150633e+09
-3.834300e+10 -4.758552e+10 -2.934785e+08
-5.355652e+10 -3.629629e+10 1.435469e+08
-5.353697e+10 -3.758479e+10 9.438586e+08
2.404541e+10 -5.514488e+10 -4.673482e+08
5.319203e+10 -2.561705e+10 1.003446e+09
-2.341281e+10 -5.541250e+10 -4.668855e+08
1.310302e+10 -5.956832e+10 2.144491e+09
5.249723e+10 3.643635e+10 -2.247036e+08
-5.561972e+10 -2.652357e+10 -9.654878e+07
4.102649e+10 -5.055596e+10 1.568079e+08
-4.089360e+10 -4.738315e+10 5.576585e+08
-5.494543e+10 -2.656987e+10 1.717790e+08
-5.679667e+10 -2.368368e+10 1.467811e+08
5.821002e+10 -2.390098e+10 5.870285e+08
6.115497e+10 -1.347053e+10 -9.217216e+08
5.474601e+10 -2.666103e+10 2.983091e+08
2.920745e+10 -5.344463e+10 -3.128855e+08
-2.902112e+10 -5.347212e+10 -2.331176e+08
-6.158902e+10 -1.120836e+10 4.904051e+08
-6.153463e+10 -1.270108e+10 -5.054999e+08
-5.210122e+10 3.418527e+10 5.942728e+08
-5.291156e+10 3.275044e+10 -8.846548e+08
-6.222243e+10 -1.143770e+08 5.852601e+08
-6.223101e+10 -1.721053e+09 -8.736791e+08
-6.140045e+10 1.068592e+10 6.307783e+08
-6.146463e+10 9.074903e+09 -8.647792e+08
5.454466e+10 -2.280601e+10 -6.766854e+07
-6.051811e+10 1.643169e+10 1.786065e+08
-5.916089e+10 1.894612e+10 1.625228e+08
-2.153614e+10 5.878684e+10 4.584911e+08
-2.307415e+10 5.845957e+10 -5.030808e+08
-4.532636e+10 4.268070e+10 5.797778e+08
-4.640841e+10 4.144306e+10 -8.866872e+08
-5.786054e+10 2.072444e+10 1.107110e+09
-5.862892e+10 1.949640e+10 -1.239474e+08
-1.458560e+10 6.090323e+10 4.604735e+08
-1.612576e+10 6.077995e+10 -5.085486e+08
5.324275e+10 -2.542521e+10 -2.727814e+08
-5.446255e+10 2.968086e+10 5.294949e+08
-5.389976e+10 3.140921e+10 9.584408e+08
-5.007198e+10 3.937935e+10 -5.523842e+08
-4.746942e+10 4.032449e+10 9.829663e+08
-6.149903e+10 5.626315e+09 -2.600540e+07
-6.158935e+10 7.429923e+09 5.432354e+08
-3.726356e+10 5.000636e+10 5.981076e+08
-3.851128e+10 4.890227e+10 -8.761970e+08
1.445379e+10 6.064281e+10 6.004327e+08
1.280636e+10 6.089186e+10 -8.793399e+08
5.466796e+10 -2.316086e+10 1.200880e+09
-2.491091e+10 5.741114e+10 4.519146e+08
-2.645800e+10 5.704498e+10 -5.050397e+08
3.735910e+10 5.025009e+10 4.599121e+08
3.626308e+10 5.136688e+10 -5.056071e+08
3.428235e+10 5.198055e+10 5.819185e+08
3.287149e+10 5.282765e+10 -8.847510e+08
2.759027e+10 5.461166e+10 8.217109e+08
2.637693e+10 5.620659e+10 -8.986617e+08
2.124353e+10 5.764278e+10 3.828920e+08
1.996417e+10 5.944748e+10 -5.080977e+08
5.635739e+10 -2.343158e+10 5.236665e+08
2.921528e+09 6.205617e+10 -1.117407e+08
4.888601e+09 6.099924e+10 3.209510e+08
-3.614852e+09 6.222379e+10 6.387338e+08
-5.190391e+09 6.201636e+10 -8.671687e+08
-4.246403e+10 4.753847e+10 -5.519709e+08
-3.967093e+10 4.800656e+10 9.836388e+08
-3.138050e+10 5.413977e+10 4.509132e+08
-3.301955e+10 5.360383e+10 -5.010357e+08
5.721752e+09 6.234425e+10 1.982806e+08
7.778259e+09 6.158776e+10 3.384958e+08
5.524419e+10 -2.423219e+10 -4.461521e+08
4.290028e+10 4.561564e+10 4.851670e+08
4.196269e+10 4.679948e+10 -5.083404e+08
4.698238e+10 4.182488e+10 -1.305787e+09
4.397148e+10 4.334491e+10 -2.827616e+07
4.539633e+10 4.218337e+10 5.771946e+08
-6.250664e+10 3.331231e+09 4.940657e+08
-6.279159e+10 1.848157e+09 -5.084762e+08
4.010902e+10 4.795520e+10 4.379508e+08
3.925958e+10 4.913242e+10 -4.902724e+08
9.070713e+09 6.156585e+10 5.593233e+07
5.716167e+10 -2.345238e+10 -1.710843e+09
1.112526e+10 6.149225e+10 9.441803e+08
-1.166439e+10 6.060731e+10 7.356125e+08
-1.219792e+10 6.071104e+10 -7.752011e+08
-5.462224e+10 2.742734e+10 8.218831e+08
-5.624474e+10 2.622355e+10 -9.061217e+08
2.328066e+10 5.748210e+10 5.286206e+08
2.512615e+10 5.715758e+10 9.686127e+08