# vtk DataFile Version 2.0
Electric current density generated by TTH
ASCII
DATASET UNSTRUCTURED_GRID
POINTS 8679 double
-5.000000e-06 -5.000000e-06 0.000000e+00
-1.500000e-05 1.500000e-05 2.000000e-07
1.200000e-05 1.500000e-05 0.000000e+00
5.182361e-06 -8.495893e-06 0.000000e+00
1.284213e-05 1.453978e-05 0.000000e+00
-5.069241e-06 8.059984e-06 0.000000e+00
-5.525167e-06 8.166146e-06 0.000000e+00
-5.474995e-06 7.761021e-06 0.000000e+00
1.299438e-05 1.406173e-05 0.000000e+00
1.346422e-05 1.390757e-05 0.000000e+00
1.329140e-05 1.430678e-05 0.000000e+00
-5.182361e-06 8.495893e-06 0.000000e+00
-8.059984e-06 -5.069241e-06 0.000000e+00
1.150000e-05 1.500000e-05 0.000000e+00
-8.166146e-06 -5.525167e-06 0.000000e+00
-7.761021e-06 -5.474995e-06 0.000000e+00
1.454225e-05 1.278719e-05 0.000000e+00
1.425693e-05 -1.380181e-05 0.000000e+00
1.380513e-05 -1.393846e-05 0.000000e+00
-8.495893e-06 -5.182361e-06 0.000000e+00
1.036952e-05 2.453621e-06 0.000000e+00
1.068104e-05 2.219260e-06 0.000000e+00
1.279222e-05 -1.465637e-05 0.000000e+00
-1.380181e-05 -1.425693e-05 0.000000e+00
1.100000e-05 1.500000e-05 0.000000e+00
-1.393846e-05 -1.380513e-05 0.000000e+00
9.938282e-06 2.282317e-06 0.000000e+00
2.963137e-06 9.222288e-06 0.000000e+00
-1.465637e-05 -1.279222e-05 0.000000e+00
-1.425693e-05 1.380181e-05 0.000000e+00
-1.380513e-05 1.393846e-05 0.000000e+00
2.723574e-06 8.771569e-06 0.000000e+00
-2.955412e-06 -9.222154e-06 0.000000e+00
-1.279222e-05 1.465637e-05 0.000000e+00
1.380203e-05 1.425754e-05 0.000000e+00
1.050000e-05 1.500000e-05 0.000000e+00
1.393819e-05 1.380547e-05 0.000000e+00
-2.723655e-06 -8.771644e-06 0.000000e+00
1.411768e-05 1.339365e-05 0.000000e+00
1.386373e-05 1.310383e-05 0.000000e+00
1.423703e-05 1.302737e-05 0.000000e+00
1.364254e-05 1.348316e-05 0.000000e+00
9.222154e-06 -2.955412e-06 0.000000e+00
1.337053e-05 -1.411906e-05 0.000000e+00
1.348207e-05 -1.364348e-05 0.000000e+00
1.310182e-05 -1.386597e-05 0.000000e+00
1.000000e-05 1.500000e-05 0.000000e+00
8.771644e-06 -2.723655e-06 0.000000e+00
-9.222154e-06 2.955412e-06 0.000000e+00
-1.411906e-05 -1.337053e-05 0.000000e+00
-1.364348e-05 -1.348207e-05 0.000000e+00
-1.386597e-05 -1.310182e-05 0.000000e+00
-8.771644e-06 2.723655e-06 0.000000e+00
3.476834e-06 1.089083e-05 0.000000e+00
3.004568e-06 1.079398e-05 0.000000e+00
3.271136e-06 1.050363e-05 0.000000e+00
-1.337053e-05 1.411906e-05 0.000000e+00
9.500000e-06 1.500000e-05 0.000000e+00
-1.348207e-05 1.364348e-05 0.000000e+00
-1.310182e-05 1.386597e-05 0.000000e+00
3.156892e-06 1.135975e-05 0.000000e+00
1.330256e-05 1.134249e-05 0.000000e+00
1.295476e-05 1.118883e-05 0.000000e+00
1.321454e-05 1.092832e-05 0.000000e+00
1.453841e-05 -1.235105e-05 0.000000e+00
1.421800e-05 -1.264454e-05 0.000000e+00
1.380610e-05 -1.272662e-05 0.000000e+00
1.362858e-05 -1.317690e-05 0.000000e+00
9.000000e-06 1.500000e-05 0.000000e+00
1.275143e-05 1.079237e-05 0.000000e+00
-1.235105e-05 -1.453841e-05 0.000000e+00
-1.264454e-05 -1.421800e-05 0.000000e+00
-1.272662e-05 -1.380610e-05 0.000000e+00
-1.317690e-05 -1.362858e-05 0.000000e+00
3.176273e-06 9.694218e-06 0.000000e+00
5.120700e-06 1.126547e-05 0.000000e+00
5.510327e-06 1.129698e-05 0.000000e+00
5.217099e-06 1.169449e-05 0.000000e+00
-1.453841e-05 1.235105e-05 0.000000e+00
8.500000e-06 1.500000e-05 0.000000e+00
-1.421800e-05 1.264454e-05 0.000000e+00
-1.380610e-05 1.272662e-05 0.000000e+00
-1.362858e-05 1.317690e-05 0.000000e+00
-3.472577e-06 -1.089759e-05 0.000000e+00
-3.001612e-06 -1.079605e-05 0.000000e+00
-3.264296e-06 -1.050774e-05 0.000000e+00
5.669519e-06 1.170788e-05 0.000000e+00
1.230046e-05 1.458085e-05 0.000000e+00
-3.153502e-06 -1.135849e-05 0.000000e+00
1.279371e-05 1.376404e-05 0.000000e+00
8.000000e-06 1.500000e-05 0.000000e+00
1.317621e-05 1.362977e-05 0.000000e+00
1.413013e-05 1.271095e-05 0.000000e+00
1.453595e-05 1.236362e-05 0.000000e+00
-3.165496e-06 -9.698255e-06 0.000000e+00
1.089759e-05 -3.472577e-06 0.000000e+00
1.079605e-05 -3.001612e-06 0.000000e+00
1.050774e-05 -3.264296e-06 0.000000e+00
1.236479e-05 -1.453329e-05 0.000000e+00
1.135849e-05 -3.153502e-06 0.000000e+00
-1.453329e-05 -1.236479e-05 0.000000e+00
7.500000e-06 1.500000e-05 0.000000e+00
9.698255e-06 -3.165496e-06 0.000000e+00
-1.089759e-05 3.472577e-06 0.000000e+00
-1.079605e-05 3.001612e-06 0.000000e+00
-1.050774e-05 3.264296e-06 0.000000e+00
-1.236479e-05 1.453329e-05 0.000000e+00
-1.135849e-05 3.153502e-06 0.000000e+00
1.363317e-05 1.274736e-05 0.000000e+00
1.339015e-05 1.319807e-05 0.000000e+00
1.276975e-05 -1.369161e-05 0.000000e+00
1.285111e-05 -1.420785e-05 0.000000e+00
-1.500000e-05 -1.500000e-05 2.000000e-07
7.000000e-06 1.500000e-05 0.000000e+00
1.319472e-05 -1.339329e-05 0.000000e+00
-1.369161e-05 -1.276975e-05 0.000000e+00
-1.420785e-05 -1.285111e-05 0.000000e+00
-1.339329e-05 -1.319472e-05 0.000000e+00
-1.276975e-05 1.369161e-05 0.000000e+00
-1.285111e-05 1.420785e-05 0.000000e+00
-1.319472e-05 1.339329e-05 0.000000e+00
1.409501e-05 -1.228539e-05 0.000000e+00
1.450124e-05 -1.190514e-05 0.000000e+00
1.353519e-05 -1.225897e-05 0.000000e+00
6.500000e-06 1.500000e-05 0.000000e+00
1.331132e-05 -1.287377e-05 0.000000e+00
-1.228539e-05 -1.409501e-05 0.000000e+00
-1.190514e-05 -1.450124e-05 0.000000e+00
-1.225897e-05 -1.353519e-05 0.000000e+00
-1.287377e-05 -1.331132e-05 0.000000e+00
-1.409501e-05 1.228539e-05 0.000000e+00
-1.450124e-05 1.190514e-05 0.000000e+00
-1.353519e-05 1.225897e-05 0.000000e+00
-1.331132e-05 1.287377e-05 0.000000e+00
-9.698255e-06 3.165496e-06 0.000000e+00
6.000000e-06 1.500000e-05 0.000000e+00
1.180636e-05 1.453315e-05 0.000000e+00
1.250908e-05 1.411523e-05 0.000000e+00
1.246268e-05 1.359588e-05 0.000000e+00
1.291230e-05 1.335474e-05 0.000000e+00
-3.292716e-08 -6.578445e-06 0.000000e+00
-3.062614e-07 -6.333355e-06 0.000000e+00
-4.626961e-07 -6.791609e-06 0.000000e+00
1.396868e-05 1.223633e-05 0.000000e+00
1.452297e-05 1.187193e-05 0.000000e+00
1.231122e-05 -1.403531e-05 0.000000e+00
5.500000e-06 1.500000e-05 0.000000e+00
1.183194e-05 -1.448403e-05 0.000000e+00
-1.403531e-05 -1.231122e-05 0.000000e+00
-1.448403e-05 -1.183194e-05 0.000000e+00
-1.231122e-05 1.403531e-05 0.000000e+00
-1.183194e-05 1.448403e-05 0.000000e+00
1.332789e-05 1.236996e-05 0.000000e+00
1.311844e-05 1.286504e-05 0.000000e+00
1.234693e-05 -1.349096e-05 0.000000e+00
1.281272e-05 -1.315624e-05 0.000000e+00
-1.349096e-05 -1.234693e-05 0.000000e+00
5.000000e-06 1.500000e-05 0.000000e+00
-1.315624e-05 -1.281272e-05 0.000000e+00
-1.234693e-05 1.349096e-05 0.000000e+00
-1.281272e-05 1.315624e-05 0.000000e+00
1.397108e-05 -1.182603e-05 0.000000e+00
1.440296e-05 -1.146836e-05 0.000000e+00
4.079331e-06 1.086749e-05 0.000000e+00
-7.351794e-07 -6.377188e-06 0.000000e+00
-9.654855e-07 -6.767995e-06 0.000000e+00
1.317061e-05 -1.198288e-05 0.000000e+00
1.289063e-05 -1.253058e-05 0.000000e+00
4.500000e-06 1.500000e-05 0.000000e+00
-1.182603e-05 -1.397108e-05 0.000000e+00
-1.146836e-05 -1.440296e-05 0.000000e+00
1.448249e-05 -5.229451e-06 0.000000e+00
1.402195e-05 -5.279908e-06 0.000000e+00
1.421207e-05 -5.554178e-06 0.000000e+00
-1.198288e-05 -1.317061e-05 0.000000e+00
-1.253058e-05 -1.289063e-05 0.000000e+00
-1.397108e-05 1.182603e-05 0.000000e+00
-1.440296e-05 1.146836e-05 0.000000e+00
3.737733e-06 1.135320e-05 0.000000e+00
4.000000e-06 1.500000e-05 0.000000e+00
1.398538e-05 -7.447634e-06 0.000000e+00
1.375631e-05 -7.762791e-06 0.000000e+00
1.416220e-05 -7.770816e-06 0.000000e+00
-1.317061e-05 1.198288e-05 0.000000e+00
-1.289063e-05 1.253058e-05 0.000000e+00
1.356243e-05 -7.332067e-06 0.000000e+00
1.199172e-05 1.396275e-05 0.000000e+00
-4.058431e-06 -1.087546e-05 0.000000e+00
-5.229451e-06 -1.448249e-05 0.000000e+00
-5.279908e-06 -1.402195e-05 0.000000e+00
3.500000e-06 1.500000e-05 0.000000e+00
-5.554178e-06 -1.421207e-05 0.000000e+00
1.201029e-05 1.331782e-05 0.000000e+00
1.255898e-05 1.306066e-05 0.000000e+00
1.145539e-05 1.422168e-05 0.000000e+00
-3.724264e-06 -1.134516e-05 0.000000e+00
1.087546e-05 -4.058431e-06 0.000000e+00
1.443545e-05 1.139072e-05 0.000000e+00
-1.448249e-05 5.229451e-06 0.000000e+00
-1.402195e-05 5.279908e-06 0.000000e+00
-1.421207e-05 5.554178e-06 0.000000e+00
3.000000e-06 1.500000e-05 0.000000e+00
1.183564e-05 -1.387480e-05 0.000000e+00
1.134516e-05 -3.724264e-06 0.000000e+00
-1.087546e-05 4.058431e-06 0.000000e+00
-1.387480e-05 -1.183564e-05 0.000000e+00
-1.134516e-05 3.724264e-06 0.000000e+00
1.271442e-05 6.049088e-06 0.000000e+00
1.258890e-05 6.441997e-06 0.000000e+00
1.224291e-05 6.107032e-06 0.000000e+00
-1.183564e-05 1.387480e-05 0.000000e+00
1.197762e-05 5.771637e-06 0.000000e+00
2.500000e-06 1.500000e-05 0.000000e+00
1.210556e-05 5.311223e-06 0.000000e+00
1.243936e-05 5.666539e-06 0.000000e+00
5.595825e-06 8.167473e-06 0.000000e+00
5.109497e-06 8.443357e-06 0.000000e+00
5.149146e-06 8.058543e-06 0.000000e+00
1.274396e-05 1.247613e-05 0.000000e+00
1.303621e-05 1.206541e-05 0.000000e+00
5.419350e-06 8.590079e-06 0.000000e+00
1.190856e-05 -1.329318e-05 0.000000e+00
1.234296e-05 -1.290534e-05 0.000000e+00
1.500000e-05 -1.500000e-05 2.000000e-07
2.000000e-06 1.500000e-05 0.000000e+00
-1.329318e-05 -1.190856e-05 0.000000e+00
-1.290534e-05 -1.234296e-05 0.000000e+00
-1.190856e-05 1.329318e-05 0.000000e+00
-1.234296e-05 1.290534e-05 0.000000e+00
1.391127e-05 -1.131848e-05 0.000000e+00
2.889618e-06 -1.056978e-05 0.000000e+00
2.521001e-06 -1.078995e-05 0.000000e+00
-2.889619e-06 1.056980e-05 0.000000e+00
-2.521001e-06 1.078995e-05 0.000000e+00
-1.056978e-05 -2.889618e-06 0.000000e+00
1.500000e-06 1.500000e-05 0.000000e+00
-1.078995e-05 -2.521001e-06 0.000000e+00
-1.131848e-05 -1.391127e-05 0.000000e+00
1.057201e-05 2.890198e-06 0.000000e+00
1.079050e-05 2.521089e-06 0.000000e+00
1.414298e-05 6.118851e-06 0.000000e+00
1.445907e-05 5.714539e-06 0.000000e+00
1.146995e-05 5.778485e-06 0.000000e+00
1.116052e-05 5.402749e-06 0.000000e+00
1.167029e-05 5.359255e-06 0.000000e+00
1.103376e-05 5.772618e-06 0.000000e+00
1.000000e-06 1.500000e-05 0.000000e+00
[...]
POINT_DATA 8679
VECTORS fone_imag double
-1.609053e+12 1.428161e+12 -4.166820e+09
1.705430e+10 1.683973e+10 -3.356134e+06
1.551566e+11 -3.216808e+09 -2.073670e+08
-2.545051e+11 -1.230515e+11 4.153340e+08
1.003645e+11 -1.298665e+10 -2.763838e+07
2.882585e+11 1.433889e+11 3.084574e+08
2.597666e+11 1.409713e+11 -3.443950e+08
2.860084e+11 1.623572e+11 -3.658205e+07
7.221811e+10 -2.583211e+10 4.567050e+07
5.249629e+10 -3.408336e+10 8.863575e+06
7.187673e+10 -2.217083e+10 4.611751e+08
2.545120e+11 1.230935e+11 4.404781e+08
-1.433663e+11 2.881766e+11 3.088597e+08
1.702398e+11 -3.854659e+09 -2.830709e+07
-1.408220e+11 2.600182e+11 -2.532620e+08
-1.623481e+11 2.858965e+11 -2.206568e+07
1.409283e+10 -9.586700e+10 -3.455000e+08
-3.001638e+10 -5.250143e+10 2.747049e+08
-4.503296e+10 -3.814170e+10 5.970029e+08
-1.231355e+11 2.544605e+11 4.638712e+08
3.520792e+10 -2.324021e+11 -4.999121e+07
2.927146e+10 -2.220796e+11 -3.910962e+07
-1.049922e+11 -1.121799e+10 -1.525932e+08
-5.505106e+10 2.723218e+10 5.633411e+08
1.875296e+11 -3.785833e+09 3.897570e+07
-3.883464e+10 4.296150e+10 2.599508e+08
3.674584e+10 -2.496501e+11 -3.569128e+07
2.699821e+11 -5.629644e+10 -2.846096e+08
-1.083713e+10 1.053835e+11 -2.152572e+08
2.809777e+10 5.118388e+10 -3.493881e+08
4.690007e+10 3.634348e+10 -4.712493e+08
2.977125e+11 -5.701585e+10 -1.172050e+08
-2.674323e+11 5.497071e+10 -1.270361e+08
1.052203e+11 1.091730e+10 -2.245867e+08
5.498611e+10 -2.747119e+10 5.150210e+08
2.070149e+11 -2.575347e+09 -5.317998e+07
3.635763e+10 -4.489237e+10 -1.294127e+08
-2.976820e+11 5.693431e+10 -2.457629e+07
2.847175e+10 -5.997508e+10 1.476298e-07
3.185737e+10 -5.995983e+10 8.982126e+07
2.522645e+10 -6.920811e+10 -7.546552e+07
3.822883e+10 -4.931445e+10 -5.067000e+07
-5.497966e+10 -2.674937e+11 -1.280872e+08
-5.911043e+10 -2.810660e+10 2.927184e+08
-4.421720e+10 -4.408496e+10 8.325203e+07
-5.835224e+10 -3.362506e+10 -2.630238e+08
2.154581e+11 -2.746417e+09 -5.654017e+07
-5.678150e+10 -2.978136e+11 2.394340e+07
5.495701e+10 2.674579e+11 -1.275463e+08
-2.831027e+10 6.052430e+10 1.011728e+08
-4.394287e+10 4.500537e+10 6.149666e+06
-3.384013e+10 5.852582e+10 1.176747e+07
5.691519e+10 2.977093e+11 -2.462578e+07
2.040786e+11 -4.304360e+10 -1.896005e+08
2.093556e+11 -3.661765e+10 -2.219172e+07
2.140922e+11 -4.366558e+10 1.839036e+08
6.037397e+10 2.852683e+10 -1.746881e-07
2.226874e+11 -3.594131e+09 -5.310403e+08
4.947238e+10 3.817475e+10 -5.288348e+07
5.999488e+10 3.275480e+10 3.144421e+07
1.987643e+11 -3.421506e+10 2.696712e-07
3.590976e+10 -8.136177e+10 6.583289e+06
4.219415e+10 -7.949941e+10 -6.750088e+07
3.841034e+10 -8.596764e+10 1.021095e+08
-1.175629e+10 -1.144229e+11 2.743373e+07
-2.069758e+10 -8.505494e+10 2.139869e+07
-3.055461e+10 -6.847954e+10 1.513564e+08
-3.843479e+10 -5.399320e+10 6.756344e-07
2.349369e+11 -4.042819e+09 -5.629393e+07
4.467369e+10 -8.458802e+10 -3.298747e-07
-1.072046e+11 1.321034e+10 3.612679e+08
-7.712277e+10 2.423379e+10 -8.018243e+07
-6.783776e+10 3.241036e+10 5.438529e+07
-5.676475e+10 3.691912e+10 1.738653e+07
2.423113e+11 -5.276769e+10 5.919798e+07
1.733117e+11 -5.359538e+10 1.646702e+07
1.659917e+11 -5.659015e+10 -1.416376e+08
1.648632e+11 -4.828927e+10 4.252451e+06
1.398056e+10 1.050411e+11 -6.555890e+07
2.470714e+11 -3.784864e+09 -5.743702e+07
2.412731e+10 7.704943e+10 -8.875978e+07
3.236653e+10 6.783197e+10 5.428614e+07
3.812800e+10 5.365025e+10 1.214954e+08
-2.045641e+11 4.005064e+10 -2.595829e+08
-2.094863e+11 3.656656e+10 -5.925557e+07
-2.138835e+11 4.347199e+10 -8.477590e+07
1.582423e+11 -5.108261e+10 1.275241e+07
1.161774e+11 -1.112425e+10 4.061624e+08
-1.973274e+11 3.302627e+10 -2.868690e+08
6.670178e+10 -3.135455e+10 -1.401786e+08
2.655426e+11 -4.364016e+09 8.342236e+07
5.456437e+10 -3.731633e+10 2.130142e+08
2.447941e+10 -7.748515e+10 -1.012015e+08
1.391567e+10 -1.089761e+11 6.343605e+08
-2.441505e+11 5.091531e+10 2.024677e+08
-4.007879e+10 -2.045891e+11 -2.606912e+08
-3.659442e+10 -2.095195e+11 -5.915101e+07
-4.350455e+10 -2.139156e+11 -8.489729e+07
-1.129747e+11 -1.292333e+10 -1.569646e+08
-3.303092e+10 -1.973688e+11 -2.893588e+08
-1.275819e+10 1.129807e+11 -1.868293e+08
2.853232e+11 -3.557805e+09 2.720886e+08
-5.093056e+10 -2.441889e+11 2.038966e+08
4.210816e+10 2.032708e+11 9.939998e+06
3.656341e+10 2.094522e+11 -5.502068e+07
4.351765e+10 2.139781e+11 -1.574640e+07
1.114311e+11 1.276875e+10 3.156279e+08
3.296538e+10 1.973551e+11 -2.883650e+08
3.729648e+10 -6.058574e+10 7.617367e+07
4.445961e+10 -4.905003e+10 1.370684e+08
-6.202124e+10 -3.611349e+10 3.781039e+08
-7.733780e+10 -2.292490e+10 8.787173e+06
-1.362334e+10 2.226293e+10 7.849829e+08
2.976863e+11 -2.936700e+09 -2.259234e+08
-5.039981e+10 -4.348012e+10 -8.180375e+07
-3.337587e+10 6.474469e+10 -6.884358e+07
-2.065472e+10 8.187463e+10 -1.761044e+08
-4.631118e+10 4.744154e+10 9.720182e+07
6.442114e+10 3.480376e+10 -1.269837e+08
7.723022e+10 2.303009e+10 -9.946881e+06
5.233969e+10 4.146106e+10 -8.745861e+07
-2.251057e+10 -8.806993e+10 -2.330844e+08
-1.314363e+10 -1.212036e+11 1.150247e+08
-3.490674e+10 -7.082734e+10 7.382979e-07
3.010892e+11 -2.356452e+09 -1.297986e+08
-4.073990e+10 -5.773915e+10 1.582901e+08
-8.635928e+10 2.315073e+10 -9.179836e+07
-1.159578e+11 1.438169e+10 -6.279469e+08
-7.077691e+10 3.497467e+10 5.092366e-08
-5.837895e+10 4.098758e+10 5.426080e+07
2.570677e+10 8.074939e+10 -1.492632e+08
1.398333e+10 1.151975e+11 3.221968e+08
3.555896e+10 7.173705e+10 1.677985e+08
4.198715e+10 5.519488e+10 7.894743e+07
5.090658e+10 2.441658e+11 2.023734e+08
3.141188e+11 -4.150803e+09 2.476549e+08
1.191672e+11 -1.343587e+10 -1.933377e+08
8.444618e+10 -2.340715e+10 -4.108752e+08
6.860140e+10 -3.520458e+10 6.204979e+07
5.587458e+10 -4.093837e+10 -1.077448e+08
-6.006873e+11 -2.548578e+09 1.419995e+08
-6.483384e+11 6.006180e+09 1.119524e+09
-5.354133e+11 9.824797e+09 1.517559e+09
2.970053e+10 -7.701631e+10 8.432089e+07
1.486927e+10 -1.148217e+11 -6.289498e+07
-8.369061e+10 -2.485420e+10 1.769041e+08
3.369947e+11 -2.661033e+09 -2.331969e+08
-1.179037e+11 -1.518875e+10 2.976986e+08
-2.357007e+10 8.573450e+10 2.520648e+08
-1.281481e+10 1.230396e+11 2.102241e+08
7.889450e+10 2.748009e+10 -2.051995e+08
1.136672e+11 1.578268e+10 -1.195399e+08
3.941870e+10 -6.518302e+10 1.386337e-06
4.537894e+10 -5.514388e+10 -3.354199e+08
-6.520552e+10 -3.785977e+10 5.339440e+07
-5.220302e+10 -4.792104e+10 1.467124e+08
-3.589952e+10 6.849585e+10 -3.435898e-08
3.422414e+11 -3.360437e+09 -8.105426e+07
-4.501300e+10 5.429406e+10 -5.044941e+07
6.988194e+10 3.638530e+10 5.260834e+06
5.765536e+10 4.297912e+10 1.292817e+07
-2.375842e+10 -9.193322e+10 8.830944e+06
-1.395251e+10 -1.261925e+11 2.681408e+08
2.000440e+11 -5.282655e+10 -2.863481e+07
-6.285002e+11 1.441470e+10 -1.934558e+09
-5.433916e+11 1.916972e+10 8.214810e+08
-4.175226e+10 -6.969885e+10 -2.143909e+08
-4.602239e+10 -6.049002e+10 -9.685303e+07
3.563361e+11 -1.225779e+09 -1.978429e+08
-8.795196e+10 2.526575e+10 -3.425680e+06
-1.176703e+11 1.627598e+10 2.012929e+08
-9.744826e+09 -2.500448e+11 -1.226751e+08
-1.848246e+10 -2.015002e+11 2.056193e+08
-1.573179e+10 -2.068938e+11 1.542324e+08
-6.970124e+10 4.175195e+10 -2.247472e+08
-6.048121e+10 4.603216e+10 -9.693792e+07
2.489642e+10 9.138615e+10 1.690101e+08
1.455265e+10 1.286748e+11 2.966516e+08
1.937758e+11 -4.077396e+10 2.882990e+06
3.564100e+11 -3.526957e+09 1.685483e+07
-2.142125e+10 -1.679514e+11 -6.564682e+07
-2.643977e+10 -1.490507e+11 -1.344784e+08
-1.948266e+10 -1.716708e+11 2.317569e+08
3.953258e+10 7.167392e+10 3.719273e+07
4.819750e+10 5.725785e+10 6.947795e+07
-2.901959e+10 -1.491756e+11 2.649982e+07
8.216558e+10 -2.803535e+10 -1.337341e+08
-1.988282e+11 5.117241e+10 2.749413e+08
-2.501605e+11 9.673905e+09 -1.296133e+08
-2.015411e+11 1.846340e+10 1.942658e+08
3.780546e+11 -1.944514e+09 4.232447e+08
-2.070864e+11 1.571249e+10 1.377051e+08
7.173840e+10 -3.811576e+10 -9.194778e-07
5.826184e+10 -4.524632e+10 6.123188e+07
1.020866e+11 -2.170985e+10 1.497064e+08
-1.922547e+11 3.965828e+10 1.414036e+08
-5.121928e+10 -1.988598e+11 2.751000e+08
1.591568e+10 -1.225908e+11 3.461059e+08
9.232725e+09 2.530146e+11 -8.695534e+07
1.788056e+10 2.018010e+11 6.508750e+08
1.558486e+10 2.069048e+11 3.775232e+07
3.873933e+11 -1.446541e+09 -3.023881e+07
-8.231273e+10 -3.016572e+10 -1.703885e+07
-3.967874e+10 -1.922747e+11 1.417763e+08
5.302202e+10 1.977806e+11 4.624295e+07
-2.739897e+10 8.625427e+10 6.890999e+07
3.970132e+10 1.923028e+11 -5.862168e+07
3.812422e+10 -1.549946e+11 -2.949589e+08
3.984197e+10 -1.489557e+11 5.325544e+07
4.244103e+10 -1.532635e+11 -1.192633e+08
8.894879e+10 2.662264e+10 -5.268840e+08
4.564851e+10 -1.571865e+11 8.186100e+07
3.852660e+11 -1.049199e+09 9.981984e+07
4.253552e+10 -1.625360e+11 3.857887e+07
3.816821e+10 -1.600036e+11 -6.808631e+07
2.527511e+11 -1.453496e+11 3.239448e+08
2.664485e+11 -1.298345e+11 -7.920793e+07
2.940574e+11 -1.467796e+11 1.108336e+09
4.779725e+10 -5.836651e+10 5.252545e+07
4.208902e+10 -6.630514e+10 4.975854e+07
2.450224e+11 -1.255819e+11 4.332066e+08
-7.021492e+10 -3.956218e+10 -1.001112e+07
-5.800173e+10 -4.858976e+10 -5.301973e+07
-1.666521e+10 -1.706587e+10 -4.164598e+07
3.997186e+11 3.455566e+08 1.286342e+08
-3.952695e+10 7.025406e+10 6.391348e+07
-4.765703e+10 5.920211e+10 1.302739e+08
7.247700e+10 3.881980e+10 1.122424e+08
6.095946e+10 4.666792e+10 1.153217e-06
-2.533854e+10 -9.923248e+10 -4.519089e+07
-2.224193e+11 -3.885108e+10 3.473323e+07
-2.193827e+11 -3.185179e+10 -9.432103e+07
2.224461e+11 3.885429e+10 3.435673e+07
2.194183e+11 3.185815e+10 -9.373077e+07
-3.885541e+10 2.224085e+11 3.495168e+07
4.046982e+11 -1.147882e+09 -1.681467e+08
-3.185630e+10 2.193771e+11 -9.364529e+07
-9.461953e+10 2.632586e+10 8.800088e+07
3.834989e+10 -2.231521e+11 -2.720351e+08
3.238075e+10 -2.169726e+11 3.904475e+08
1.781107e+10 -1.943917e+11 2.166262e+08
1.149563e+10 -2.398226e+11 -1.351607e+07
5.274021e+10 -1.588688e+11 -9.190768e+07
5.601811e+10 -1.679495e+11 9.896811e+07
4.726585e+10 -1.639914e+11 -1.591597e+08
6.188129e+10 -1.643445e+11 3.723829e+08
4.037609e+11 -1.152109e+09 3.779519e+08
-1.957024e+11 -1.362891e+11 8.394333e-07
-1.909111e+11 -1.203670e+11 4.428712e+07
-1.766279e+11 -1.193578e+11 2.561785e+08
2.452032e+10 1.001036e+11 -9.649720e+07
-3.587826e+11 -4.551650e+10 -4.116941e+07
-3.046134e+11 -4.409426e+10 -2.053423e+08
-3.427874e+11 -5.453935e+10 1.446388e+08
-2.092117e+11 -1.303455e+11 1.556646e+08
3.569757e+11 4.365581e+10 -5.932549e+08
3.022094e+11 4.293064e+10 -5.066859e+08
4.169401e+11 -4.042013e+08 -2.630505e+08
3.291518e+11 5.197373e+10 -9.891335e+08
-1.363248e+11 1.954686e+11 -2.091952e-06
-1.204494e+11 1.909198e+11 7.793524e+07
-1.193909e+11 1.765895e+11 2.606878e+08
-2.039878e+11 -4.677009e+10 9.027586e+07
-2.045048e+11 -5.824451e+10 8.951439e+07
-2.148012e+11 -5.323902e+10 1.165731e+07
-2.161774e+11 -6.002262e+10 -4.284811e+08
8.645348e+10 -3.123183e+10 9.414116e+07
2.040166e+11 4.677087e+10 8.956139e+07
4.080093e+11 -1.083001e+08 2.829219e+08
2.045149e+11 5.823071e+10 8.999008e+07
2.148252e+11 5.324987e+10 1.246489e+07
2.161867e+11 6.003309e+10 -4.300152e+08
7.734311e+10 -3.978369e+10 1.343088e+08
-4.678085e+10 2.039849e+11 9.053308e+07
-5.824124e+10 2.044953e+11 8.812180e+07
-5.325321e+10 2.147894e+11 1.214318e+07
-6.003133e+10 2.161577e+11 -4.278078e+08
4.734092e+10 -1.980575e+11 -1.056734e+08
5.616355e+10 -2.008777e+11 4.518964e+07
4.132127e+11 2.616419e+08 -1.079514e+08
5.051271e+10 -2.090397e+11 8.104660e+07
6.102176e+10 -2.158203e+11 1.027053e+06
-3.392896e+10 -1.700450e+11 -2.470029e-06
-3.847499e+10 -1.677749e+11 -1.799141e+08
-5.034357e+10 -6.250176e+10 4.220634e-07
-1.712448e+11 3.244813e+10 5.958614e+07
-1.680497e+11 3.733795e+10 1.556450e+07
-8.443998e+10 -3.440383e+10 -2.447916e+08
3.273039e+10 1.704999e+11 -1.727874e+08
3.842588e+10 1.678748e+11 -1.981755e+08
4.038405e+11 2.901062e+08 2.590245e+08
-6.247862e+10 5.032884e+10 6.735343e-08
-1.535205e+11 -5.000263e+10 -2.092379e+07
-1.587786e+11 -4.701589e+10 -3.330734e+07
-1.552223e+11 -4.413351e+10 1.533419e+08
-1.608592e+11 -5.104737e+10 -1.831758e+08
-3.119628e+10 8.589666e+10 -5.969736e+07
1.560418e+11 4.963350e+10 5.877727e+04
1.597374e+11 4.630702e+10 7.085855e+07
1.575398e+11 4.385681e+10 -2.655377e-06
1.616472e+11 5.103287e+10 -3.502527e+07
4.077531e+11 4.409604e+08 -1.533779e+08
4.862895e+10 6.351183e+10 -2.693519e+08
-4.985559e+10 1.535327e+11 -2.479640e+07
-4.700877e+10 1.586735e+11 -5.890590e+07
-4.412096e+10 1.552010e+11 1.491626e+08
-5.217971e+10 1.608664e+11 9.745856e+07
8.484436e+10 3.215481e+10 2.447816e+08
6.627604e+10 -2.112219e+11 -2.644438e+07
7.191204e+10 -2.033307e+11 -4.374302e+08
7.653732e+10 -2.200713e+11 -1.292492e+08
6.400767e+10 -1.950362e+11 -2.190552e+08
4.017309e+11 1.580658e+07 2.117894e+08
6.169644e+10 -4.882166e+10 -3.319758e+07
-4.554531e+10 3.587772e+11 -3.995144e+07
-4.411465e+10 3.045933e+11 -2.049907e+08
-5.457384e+10 3.427633e+11 1.452502e+08
-1.266488e+11 2.103785e+11 -2.980159e+08
4.353160e+10 -3.498244e+11 -5.809130e+08
4.662035e+10 -3.088475e+11 -1.786898e+08
5.482233e+10 -3.436889e+11 9.339709e+07
-7.333200e+10 -4.161995e+10 7.791701e+07
5.475123e+10 -1.296159e+11 -4.942662e+07
3.977280e+11 3.080332e+09 1.377023e+07
4.866765e+10 -1.255255e+11 -1.101643e+08
5.742678e+10 -1.194190e+11 -7.974361e+07
4.577898e+10 -1.341219e+11 -4.939931e+07
-4.112868e+10 7.556666e+10 -5.682170e+07
-1.770941e+11 -4.646409e+10 3.461772e+07
-1.825671e+11 -4.025334e+10 -1.618704e+07
-1.757535e+11 -3.750904e+10 -1.026583e+08
-1.918580e+11 -4.829642e+10 1.115094e+08
7.576370e+10 4.211747e+10 6.851389e+07
-4.646766e+10 1.770656e+11 3.427915e+07
-1.445923e+12 1.591743e+12 -6.326012e+09
3.855465e+11 1.264046e+09 -2.969758e+08
-4.024700e+10 1.825468e+11 -1.628571e+07
-3.750964e+10 1.757280e+11 -1.038894e+08
-4.829511e+10 1.918509e+11 1.111880e+08
8.557386e+09 -2.782735e+11 -1.082401e+08
1.770676e+11 4.643842e+10 7.970239e+06
1.825846e+11 4.031629e+10 -1.021513e+08
1.751079e+11 3.786252e+10 -1.621300e+07
1.918740e+11 4.829191e+10 1.116687e+08
-3.533731e+10 -1.390961e+11 4.582191e+07
-3.447054e+10 -1.349702e+11 -9.020137e+07
3.743299e+11 1.500079e+09 8.574081e+07
-3.205817e+10 -1.474455e+11 3.188114e+08
-1.490872e+11 2.901793e+10 -3.727093e+06
-1.394062e+11 3.622515e+10 9.775393e+07
-1.349442e+11 3.448070e+10 -8.191909e+07
-1.480288e+11 3.264511e+10 2.343656e+08
2.900889e+10 1.491732e+11 6.158037e+05
3.533222e+10 1.391115e+11 4.021049e+07
3.513068e+10 1.341830e+11 -4.765396e+07
3.206713e+10 1.474475e+11 3.155725e+08
7.705953e+10 -4.869703e+10 -7.635180e+06
3.729690e+11 1.208235e+09 4.309859e+08
8.228883e+10 -4.707710e+10 -3.098323e+08
7.937711e+10 -5.477637e+10 -1.177257e+08
8.622327e+10 -4.855476e+10 -1.270055e+08
7.244007e+10 -5.529395e+10 1.263959e+07
7.560809e+10 -6.082749e+10 2.118970e-07
1.372495e+11 -1.249556e+11 -1.191663e+07
1.271671e+11 -1.132127e+11 9.011095e+07
1.392907e+11 -1.112273e+11 -4.400028e+07
1.690420e+11 -4.236863e+10 8.465052e+07
1.729003e+11 -4.693895e+10 1.187879e+07
3.473972e+11 4.261723e+09 -3.224242e+08
-1.649810e+11 2.202902e+10 -1.957598e+08
-1.490785e+11 2.651138e+10 -1.124566e+08
-1.725208e+11 1.897093e+10 -1.920843e+08
-1.241467e+12 5.301293e+10 1.262774e+09
6.709831e+10 -6.341098e+10 4.072134e+06
6.281893e+10 -6.050386e+10 1.687199e+08
6.647529e+10 -5.133537e+10 3.570655e+07
6.996935e+10 -6.795686e+10 2.262375e+07
6.072892e+10 -7.112181e+10 6.083586e+07
6.510414e+10 -7.704375e+10 -2.443778e+07
3.445948e+11 1.139792e+09 -2.098696e+07
-1.870429e+11 6.195884e+10 -1.706542e+08
-1.907730e+11 5.614093e+10 -1.025047e+08
-1.986357e+11 6.565654e+10 7.300973e+08
-1.807921e+11 5.348063e+10 -9.909293e+06
-6.063364e+10 -1.882548e+11 -5.343215e+07
-5.617088e+10 -1.908651e+11 -1.106336e+08
-6.491528e+10 -1.996603e+11 6.575291e+08
-5.358348e+10 -1.806356e+11 9.542920e+07
6.057429e+10 1.881969e+11 -6.947060e+07
5.606106e+10 1.908472e+11 -1.159238e+08
3.424639e+11 6.000582e+08 1.825886e+08
6.489225e+10 1.996903e+11 6.335414e+08
5.350518e+10 1.808826e+11 6.071435e+07
1.875117e+11 -6.361242e+10 -1.033348e+08
1.939023e+11 -5.729081e+10 3.842008e+08
1.996853e+11 -6.587393e+10 1.639317e+06
1.821722e+11 -5.368489e+10 -2.231426e+08
-6.251217e+10 -1.168674e+12 -2.148087e+09
1.295415e+11 -3.628576e+11 -5.382332e+08
1.114685e+11 -3.312564e+11 -1.444130e+07
1.173405e+11 -3.061824e+11 6.370388e+08
3.322691e+11 2.631683e+09 -1.389984e+08
9.468011e+10 -2.924617e+11 -2.069121e+08
2.157053e+10 1.679278e+11 -9.312638e+07
2.692609e+10 1.498436e+11 -2.801621e+08
1.999859e+10 1.732059e+11 3.434437e+08
5.865434e+10 1.241348e+12 3.676530e+08
1.158669e+12 -6.216377e+10 -1.749140e+09
1.956904e+11 1.363141e+11 5.409392e-07
1.909168e+11 1.203884e+11 4.603865e+07
1.766375e+11 1.193833e+11 2.560994e+08
-9.047068e+10 -5.131166e+10 -9.375578e+07
3.150213e+11 3.141367e+09 2.871616e+07
-9.246699e+10 -4.490525e+10 7.222960e+07
-8.466820e+10 -5.045604e+10 -4.583811e+07
3.157958e+11 -9.661751e+10 -3.923633e+07
3.171396e+11 -1.165623e+11 1.082888e+09
2.905161e+11 -1.056548e+11 -2.856961e+08
3.489726e+11 -1.109340e+11 2.792988e+08
1.891472e+11 -5.319859e+10 2.798973e+08
2.114817e+11 -6.455695e+10 1.596872e+07
2.091790e+11 1.303610e+11 1.606282e+08
-5.130654e+10 9.046258e+10 -9.337681e+07
2.976861e+11 3.294751e+09 -3.134798e+06
-4.490085e+10 9.246093e+10 7.181976e+07
-5.044409e+10 8.465899e+10 -4.652133e+07
6.041619e+10 -1.013322e+11 1.201387e+07
5.536749e+10 -1.079238e+11 2.500631e+07
5.406626e+10 -1.006211e+11 3.453221e+07
9.046503e+10 5.131964e+10 -9.350748e+07
9.246335e+10 4.491440e+10 7.187767e+07
8.464057e+10 5.043258e+10 -5.178033e+07
-1.267228e+11 -1.425618e+11 2.479042e+08
-1.166481e+11 -1.410107e+11 1.438063e+08
2.874858e+11 1.819068e+09 2.546693e+08
-1.288257e+11 -1.573066e+11 6.728901e+08
-1.174011e+11 -1.302219e+11 1.894562e+08
1.250054e+11 -1.015444e+11 -1.418433e+08
-2.065417e+11 6.081192e+10 -7.038311e+07
-2.593295e+09 6.011596e+11 4.168613e+07
4.306329e+09 6.698733e+11 -1.104056e+09
1.126470e+10 5.510555e+11 7.705697e+08
-6.085371e+10 -2.066309e+11 -7.961455e+07
-2.560848e+10 -6.476294e+11 3.301651e+08
-3.395831e+10 -5.597677e+11 -6.097517e+07
1.747371e+12 1.390808e+12 -8.009910e+09
2.733619e+11 3.946917e+09 6.000860e+06
6.084176e+10 2.066210e+11 -8.175334e+07
3.471074e+11 -1.348790e+11 -5.610428e+08
4.042662e+11 -1.446880e+11 -2.446346e+09
4.016688e+11 -1.747513e+11 7.827117e+08
4.584630e+11 -1.838094e+11 -7.120192e+08
-5.115254e+10 -7.256041e+10 1.234707e+07
-4.888414e+10 -8.123018e+10 2.139715e+08
-5.721966e+10 -7.797567e+10 1.055227e+07
-4.988371e+10 -8.905282e+10 3.245672e+07
-5.950142e+10 -6.935792e+10 -2.732309e+07
2.478089e+11 4.888138e+09 -1.246806e+08
-6.545712e+10 -7.242078e+10 -4.376683e-06
-7.501042e+10 5.268748e+10 9.222852e+06
-8.189246e+10 4.954464e+10 -2.506984e+08
-7.805058e+10 5.929283e+10 2.566722e+07
-8.798717e+10 5.176257e+10 -5.843553e+07
-6.994840e+10 6.050183e+10 1.700101e+08
-7.240116e+10 6.534057e+10 -1.447598e-06
5.190331e+10 7.275942e+10 2.486461e+08
4.879775e+10 8.134430e+10 2.111852e+08
5.557536e+10 7.693648e+10 -2.749814e+06
2.362353e+11 3.767472e+09 1.071252e+08
5.049335e+10 8.805678e+10 2.999775e+07
5.742458e+10 6.988548e+10 8.502676e+06
6.344725e+10 7.186157e+10 -2.368551e+07
2.413845e+11 -6.293019e+09 7.162371e+07
2.710085e+11 -4.934993e+09 -7.737480e+07
3.203451e+11 -2.912349e+09 9.611231e+07
1.267382e+11 1.413997e+11 -3.603764e+08
1.150258e+11 1.391511e+11 8.239014e+07
1.283865e+11 1.525757e+11 4.223769e+07
1.533408e+11 -2.629032e+11 4.036147e+08
2.282482e+11 1.995498e+09 4.439715e+08
1.583627e+11 -2.973232e+11 -3.302898e+08
1.379772e+11 -2.722449e+11 1.104770e+08
1.394339e+11 -3.017823e+11 -1.647903e+08
-6.989924e+10 -6.287563e+10 1.448606e+08
-7.260776e+10 -5.425050e+10 -6.798755e+07
-6.286436e+10 -6.081625e+10 1.232965e+07
-6.597049e+10 -5.260228e+10 1.375939e+08
-6.286416e+10 6.990037e+10 1.452248e+08
-5.425748e+10 7.258257e+10 -6.880020e+07
-6.009454e+10 6.391491e+10 4.382419e+07
2.171652e+11 3.294828e+09 -2.413951e+07
-5.352804e+10 6.533842e+10 -8.203399e+07
6.989072e+10 6.286068e+10 2.604086e+08