# vtk DataFile Version 2.0
Electric current density generated by TTH
ASCII
DATASET UNSTRUCTURED_GRID
POINTS 1913 double
-2.239563e-06 -1.685184e-05 -4.898587e-22
6.667840e-06 1.133545e-05 7.627043e-07
3.446403e-06 -1.640534e-05 9.435538e-07
-1.222004e-05 1.159077e-05 7.775507e-07
-1.413155e-05 -6.887314e-07 -1.809597e-06
1.384909e-05 8.530429e-07 -1.653820e-06
7.677101e-06 1.060873e-05 6.095616e-07
-1.479534e-05 -7.968204e-06 -8.622370e-07
9.694367e-06 8.859678e-06 7.170522e-07
-1.297132e-05 2.104815e-06 7.375892e-07
1.083047e-05 1.015489e-05 1.994107e-06
-1.246709e-06 -1.695422e-05 -4.898587e-22
-1.261386e-05 -9.541120e-06 -1.826011e-06
1.559341e-05 6.354866e-06 7.870907e-07
-1.346594e-05 -1.198840e-06 -1.344332e-06
-1.656557e-05 -3.019208e-06 7.874363e-07
2.196122e-06 1.401528e-05 1.826989e-06
5.602267e-06 -1.480419e-05 -1.820211e-06
-3.681785e-06 -1.644867e-05 7.459228e-07
-1.041955e-05 -1.205868e-05 1.767079e-06
1.273010e-05 5.104949e-06 1.533020e-06
1.270936e-05 -2.745419e-06 -1.001732e-07
-2.495568e-07 -1.699817e-05 -4.898587e-22
3.839514e-06 -1.253953e-05 6.660985e-07
8.226490e-06 1.044182e-05 -1.042360e-06
1.343629e-06 1.678183e-05 7.942412e-07
1.333247e-06 -1.353263e-05 -1.426470e-06
7.379442e-06 -1.402857e-05 -1.809877e-06
-5.128289e-06 -1.294119e-05 1.683502e-06
-2.431991e-06 -1.406635e-05 1.863983e-06
-8.207286e-06 1.034026e-05 8.749460e-07
1.157740e-05 -9.078644e-06 -1.979230e-06
1.571705e-05 -2.877037e-06 1.744452e-06
7.484553e-07 -1.698352e-05 -4.898587e-22
1.258474e-05 8.304414e-06 -1.998487e-06
-6.766870e-06 -1.172656e-05 1.365759e-06
1.714345e-06 1.296592e-05 5.557358e-07
8.024076e-06 1.176048e-05 -1.848776e-06
-3.226736e-06 -1.546987e-05 -1.831801e-06
1.417364e-05 -3.325425e-06 1.950666e-06
-1.930219e-06 1.290787e-05 -4.504821e-07
5.887046e-06 1.200924e-05 -1.165330e-06
-1.673182e-05 1.544890e-06 -8.655693e-07
1.678962e-05 8.741475e-07 8.457789e-07
1.743887e-06 -1.691032e-05 -4.898587e-22
5.449217e-06 -1.284683e-05 1.705122e-06
-1.117678e-05 1.135393e-05 1.769513e-06
1.490659e-05 7.395178e-07 1.998590e-06
-9.950564e-06 1.361155e-05 -7.329755e-07
-1.007284e-06 1.558149e-05 -1.903414e-06
1.480369e-05 8.070608e-06 -7.332853e-07
6.788806e-06 1.231594e-05 -1.766972e-06
-1.338729e-05 8.844005e-06 -1.705397e-06
-1.091252e-05 7.252583e-06 6.329232e-07
-1.423944e-06 -1.319373e-05 1.004138e-06
2.733308e-06 -1.677883e-05 -4.898587e-22
-8.778644e-06 -1.040957e-05 1.444787e-06
-8.549954e-06 1.355090e-05 1.718714e-06
1.380860e-05 -7.440289e-06 1.878849e-06
1.031403e-05 8.944097e-06 1.477425e-06
-1.426169e-05 1.126814e-06 1.875780e-06
-1.112525e-05 -1.154114e-05 1.714226e-06
1.597509e-05 2.064156e-06 -1.665103e-06
-4.898237e-06 -1.505107e-05 -1.820527e-06
-1.127741e-05 9.985030e-06 -1.999021e-06
1.152281e-05 -1.226225e-05 -8.143439e-07
3.713306e-06 -1.658950e-05 -4.898587e-22
-1.216496e-05 -6.917984e-06 -1.728836e-06
1.163555e-05 1.214730e-05 8.272228e-07
6.693575e-06 -1.544321e-05 -8.036784e-07
-8.663146e-06 -1.225440e-05 -1.999987e-06
1.679577e-05 8.613453e-07 -8.339364e-07
-1.225617e-05 -1.154726e-05 -7.861132e-07
7.856171e-06 -1.373622e-05 1.822310e-06
1.536702e-05 -6.814394e-06 -8.504909e-07
1.207980e-05 5.018250e-06 -5.623471e-07
1.679780e-05 -1.519364e-06 -7.187764e-07
4.680504e-06 -1.634298e-05 -4.898587e-22
1.179521e-05 -1.204089e-05 7.462388e-07
6.632479e-06 -1.247389e-05 -1.799674e-06
1.041120e-05 -9.887514e-06 -1.894203e-06
-1.390168e-05 9.487070e-06 -8.060708e-07
1.037403e-05 -1.329056e-05 7.351191e-07
1.403904e-05 -9.245317e-06 8.511787e-07
1.209812e-05 -1.082422e-05 1.574277e-06
-8.295155e-06 1.465097e-05 7.925090e-07
1.306079e-05 -3.392441e-06 1.316247e-06
5.882975e-06 1.579848e-05 -7.394760e-07
5.631567e-06 -1.604012e-05 -4.898587e-22
-1.315625e-05 -6.953666e-07 8.173025e-07
-6.659665e-06 1.476845e-05 -1.599580e-06
-1.396649e-05 -9.422535e-06 -7.653737e-07
8.963304e-06 -1.194109e-05 -1.998804e-06
1.208812e-05 1.059036e-05 -1.689047e-06
-6.109309e-06 -1.486054e-05 -1.691389e-06
-8.667817e-06 -1.215789e-05 1.998822e-06
-3.273232e-06 1.325921e-05 1.482239e-06
1.634300e-05 -4.164125e-06 7.219282e-07
-1.684345e-05 -9.562977e-07 -7.077803e-07
6.563217e-06 -1.568197e-05 -4.898587e-22
4.422628e-06 1.237773e-05 -7.454638e-07
-9.526457e-06 -1.099892e-05 -1.948933e-06
-1.925844e-06 1.459395e-05 1.980369e-06
-1.030341e-05 -1.041991e-05 1.969814e-06
3.071311e-06 1.572159e-05 -1.721069e-06
-6.488272e-06 1.126946e-05 1.229475e-07
-9.742200e-06 1.238525e-05 -1.850919e-06
-1.173402e-05 5.801787e-06 5.932002e-07
8.188662e-06 1.372798e-05 1.740778e-06
9.940057e-06 8.561131e-06 -6.784823e-07
7.472242e-06 -1.526976e-05 -4.898587e-22
1.647149e-05 -3.610330e-06 7.287294e-07
-1.543309e-05 1.149069e-06 1.942578e-06
-2.939423e-06 1.580135e-05 1.688165e-06
1.846065e-06 -1.672563e-05 -8.132215e-07
1.485119e-05 5.533748e-06 1.811015e-06
-1.190130e-05 -5.252231e-06 1.865735e-07
1.186267e-05 -7.816169e-06 -1.835715e-06
9.295610e-06 -1.329137e-05 1.585264e-06
-4.271872e-06 1.293234e-05 1.447269e-06
-1.150255e-05 1.233978e-05 -7.107062e-07
8.355508e-06 -1.480491e-05 -4.898587e-22
-9.607681e-06 -1.091110e-05 1.945958e-06
-1.077202e-05 -7.423494e-06 -5.675716e-07
-1.496424e-05 -5.281952e-06 1.801308e-06
1.529328e-06 1.601702e-05 -1.676962e-06
5.145431e-07 1.620418e-05 -1.590664e-06
9.101489e-06 1.211831e-05 1.993942e-06
-5.613178e-06 1.254158e-05 -1.553526e-06
-6.457061e-06 -1.322951e-05 1.980472e-06
-1.591702e-05 -1.295541e-06 -1.749216e-06
-1.271167e-05 6.118472e-06 1.789831e-06
9.209972e-06 -1.428903e-05 -4.898587e-22
-1.342514e-05 1.020202e-05 -7.309061e-07
-1.655011e-05 3.164296e-06 -7.601958e-07
7.406267e-07 -1.606921e-05 -1.679290e-06
-1.624486e-06 -1.436287e-05 1.924155e-06
1.359149e-05 6.291212e-06 1.999867e-06
-1.045431e-05 9.776356e-06 1.878406e-06
-5.541357e-06 1.205099e-05 9.930788e-07
1.302158e-05 3.888657e-06 -1.418232e-06
-1.169557e-05 1.046297e-05 1.876220e-06
5.122292e-06 1.608558e-05 6.782974e-07
1.003269e-05 -1.372389e-05 -4.898587e-22
1.440530e-05 -4.997749e-06 1.984611e-06
-1.273150e-05 6.186431e-06 -1.812711e-06
1.579360e-05 -5.790091e-06 8.259080e-07
1.245604e-05 -3.725463e-06 7.025636e-08
8.291259e-06 -1.225610e-05 1.989691e-06
1.243494e-05 6.611833e-06 1.777628e-06
1.515297e-05 -5.700030e-06 -1.607753e-06
1.202534e-05 1.178978e-05 -7.822966e-07
-1.560999e-05 -4.109959e-07 -1.902966e-06
1.379912e-05 -9.705617e-06 -7.079028e-07
1.082082e-05 -1.311144e-05 -4.898587e-22
-1.267525e-05 3.082750e-06 4.206696e-07
-1.009645e-05 -8.726895e-06 -1.123373e-06
5.834425e-06 1.501583e-05 1.664040e-06
1.441184e-05 5.815500e-06 -1.925454e-06
1.603262e-05 5.171036e-06 7.698164e-07
-1.256127e-05 3.879616e-06 -7.519545e-07
-1.985188e-06 1.613349e-05 1.557101e-06
4.552808e-06 -1.432801e-05 -1.999712e-06
3.537717e-06 1.412270e-05 -1.950787e-06
1.429223e-05 -6.157339e-06 -1.919371e-06
1.157165e-05 -1.245380e-05 -4.898587e-22
-1.309037e-05 -6.850542e-07 -6.491695e-07
1.344447e-05 -1.011228e-05 8.226811e-07
1.525636e-05 2.653095e-06 1.940220e-06
1.296249e-05 -6.762629e-06 -1.963666e-06
2.280099e-06 -1.592820e-05 -1.676502e-06
1.979363e-06 -1.312280e-05 1.005669e-06
1.519919e-05 -7.307981e-06 7.228170e-07
1.377787e-05 -2.128912e-06 -1.696856e-06
1.369007e-05 -1.872469e-06 1.613000e-06
7.268276e-06 1.093844e-05 -7.173140e-07
1.228258e-05 -1.175322e-05 -4.898587e-22
-5.540199e-06 -1.593751e-05 -7.013316e-07
-5.755853e-06 -1.168112e-05 -2.973616e-07
1.514212e-06 -1.472303e-05 1.990044e-06
-6.906260e-06 -1.108194e-05 4.773116e-07
1.199076e-05 7.689219e-06 -1.851769e-06
-1.354339e-05 6.937247e-06 -1.988223e-06
1.460102e-05 6.894684e-06 -1.638395e-06
1.375465e-05 3.068044e-06 1.782343e-06
-1.286572e-05 -2.739325e-06 7.698758e-07
-7.231931e-06 1.253206e-05 -1.928236e-06
1.295118e-05 -1.101212e-05 -4.898587e-22
1.013735e-05 -1.262862e-05 -1.604427e-06
5.520563e-06 -1.215334e-05 -1.127953e-06
9.066981e-06 9.411996e-06 5.203856e-07
1.346624e-05 -4.672270e-06 1.855568e-06
1.091786e-05 -1.147514e-05 -1.815443e-06
9.398516e-06 9.258789e-06 -8.573380e-07
-1.554412e-05 6.404699e-06 -8.467845e-07
1.639322e-05 3.810041e-06 8.065554e-07
-1.479069e-05 1.973986e-06 -1.998472e-06
-1.049181e-05 9.420577e-06 -1.786332e-06
1.357513e-05 -1.023307e-05 -4.898587e-22
8.524557e-06 1.108791e-05 -1.723927e-06
9.343627e-06 -1.116134e-05 1.950107e-06
-5.205278e-06 -1.360738e-05 -1.953006e-06
1.359872e-05 -8.629143e-06 1.666689e-06
-8.496468e-07 1.684679e-05 7.140211e-07
4.260953e-06 -1.551314e-05 1.678384e-06
1.038009e-05 -8.060100e-06 7.400932e-07
-1.548398e-05 3.952024e-06 -1.743241e-06
-1.168556e-05 -9.390985e-06 1.999982e-06
-5.955361e-06 1.330852e-05 -1.955452e-06
1.415229e-05 -9.418740e-06 -4.898587e-22
-1.333719e-05 -1.029931e-05 -7.574691e-07
7.773999e-06 -1.140893e-05 1.604299e-06
-1.050865e-05 7.820575e-06 -6.225367e-07
1.099213e-05 -1.132721e-05 1.839956e-06
1.672124e-05 -1.930763e-06 8.015688e-07
1.107842e-05 1.181635e-05 -1.601905e-06
-4.547438e-06 1.547316e-05 1.651857e-06
6.496393e-08 -1.531470e-05 1.975064e-06
5.110831e-06 -1.609793e-05 6.548468e-07
4.119942e-06 -1.636404e-05 -6.967717e-07
1.468066e-05 -8.571941e-06 -4.898587e-22
-5.896955e-06 -1.242600e-05 -1.564646e-06
7.243258e-06 1.331831e-05 -1.993546e-06
-6.156110e-06 1.155409e-05 -5.989050e-07
-7.372837e-06 1.071119e-05 -1.165593e-07
1.090868e-05 7.865989e-06 1.262576e-06
2.432331e-06 -1.278228e-05 -2.155022e-07
-1.676338e-05 1.501869e-06 8.057177e-07
1.251097e-05 3.692050e-06 -4.189524e-07
-1.550518e-05 -3.834163e-06 -1.747802e-06
-1.433362e-05 -1.593426e-06 1.914632e-06
1.515842e-05 -7.695594e-06 -4.898587e-22
1.373847e-05 9.799575e-06 6.950325e-07
3.457185e-06 -1.649761e-05 -7.452703e-07
-1.189110e-05 8.432821e-06 -1.954918e-06
-1.560711e-05 -6.268322e-06 -8.317247e-07
-1.342154e-05 2.368467e-06 -1.456066e-06
-7.319738e-06 1.127598e-05 -1.255850e-06
-7.550023e-06 1.416672e-05 -1.700352e-06
1.178708e-05 -6.452392e-06 -1.248534e-06
-1.088754e-05 -1.193472e-05 -1.632955e-06
-9.970627e-06 1.363900e-05 6.399807e-07
1.558393e-05 -6.792718e-06 -4.898587e-22
[...]
POINT_DATA 1913
VECTORS 10.000GHz_fone_imag double
-2.805927e+10 3.233930e+09 1.344000e+08
6.655813e+10 -4.158493e+10 3.241141e+09
-3.041341e+10 -5.447596e+09 -1.465659e+09
2.223644e+10 2.272156e+10 -7.872164e+08
-6.686867e+09 5.804254e+10 -2.095926e+09
3.535961e+09 -5.942145e+10 2.482027e+09
5.150087e+10 -3.286372e+10 -1.332144e+09
-1.526805e+10 2.819405e+10 1.616138e+08
4.298331e+10 -5.081633e+10 7.850170e+08
1.445915e+10 8.132889e+10 3.839497e+09
3.493773e+10 -3.348090e+10 3.781902e+08
-3.136240e+10 2.752062e+09 -2.878723e+09
-2.152038e+10 3.192020e+10 -1.042546e+09
1.119808e+10 -2.697592e+10 -8.784656e+08
-7.849053e+09 8.747676e+10 7.879083e+08
-5.706778e+09 3.490211e+10 1.034028e+09
6.050661e+10 -9.299842e+09 1.125463e+08
-3.492434e+10 -1.451402e+10 8.870086e+07
-2.847968e+10 5.335431e+09 -2.921342e+09
-2.555569e+10 2.031485e+10 5.209741e+08
3.183307e+10 -6.575142e+10 4.203109e+09
-1.833427e+10 -7.061881e+10 -9.494099e+08
-3.124127e+10 8.953546e+08 3.442935e+08
-6.990382e+10 -1.685567e+10 3.109212e+09
5.518982e+10 -4.157109e+10 1.008319e+08
3.175379e+10 -2.274669e+09 -7.841563e+08
-6.250131e+10 -5.808491e+09 2.297702e+08
-2.995175e+10 -1.700082e+10 -1.543090e+09
-6.355721e+10 2.863749e+10 -7.615579e+08
-6.149326e+10 9.179259e+09 3.758419e+09
5.830797e+10 4.746947e+10 -2.074057e+08
-2.497771e+10 -3.505843e+10 1.231771e+09
-3.678603e+09 -3.945606e+10 -1.649375e+09
-3.169762e+10 -1.207447e+09 -9.523012e+07
2.614443e+10 -3.966120e+10 -6.086580e+07
-5.001005e+10 3.241967e+10 -1.144688e+09
6.479117e+10 -1.049983e+10 1.262584e+09
4.262798e+10 -3.022343e+10 -4.167756e+08
-4.151260e+10 1.676034e+10 -3.311928e+09
-1.214625e+10 -5.382126e+10 -8.928877e+07
8.008251e+10 1.006420e+10 1.368029e+09
6.040171e+10 -3.101112e+10 5.713850e+09
5.471686e+09 3.723145e+10 -1.725514e+09
1.190587e+09 -4.258235e+10 1.541132e+09
-3.896272e+10 -3.626384e+09 3.063754e+08
-5.375716e+10 -2.844524e+10 3.313417e+09
3.387361e+10 3.482012e+10 -1.085929e+09
5.841701e+09 -4.282424e+10 -9.224858e+07
2.693150e+10 2.147995e+10 -1.073980e+09
5.132035e+10 5.300327e+09 2.019362e+08
1.376768e+10 -2.440898e+10 2.043260e+08
6.169009e+10 -3.228214e+10 2.049359e+09
1.592470e+10 2.641644e+10 1.076554e+09
4.046101e+10 5.744445e+10 -1.484026e+09
-6.026048e+10 5.938526e+09 -7.118433e+08
-3.582185e+10 -6.434455e+09 3.293393e+09
-5.491913e+10 4.208314e+10 3.062921e+09
3.814490e+10 2.628828e+10 -7.433701e+08
-1.781589e+10 -2.952242e+10 1.149485e+09
5.034319e+10 -6.280025e+10 -4.696801e+09
-7.902125e+08 5.815073e+10 1.467238e+08
-2.674772e+10 3.030040e+10 2.575790e+09
7.712271e+09 -4.140756e+10 -6.098788e+08
-3.449441e+10 9.917245e+09 1.719465e+08
2.710037e+10 3.073541e+10 -4.204423e+08
-2.282307e+10 -2.183824e+10 -5.714040e+08
-3.069169e+10 -6.269672e+09 -2.299529e+08
-2.848651e+10 4.941741e+10 -1.207672e+09
2.021696e+10 -1.910636e+10 -1.827462e+09
-3.427723e+10 -1.693787e+10 4.896225e+08
-3.722418e+10 2.492097e+10 -4.757667e+08
4.053679e+08 -3.199503e+10 1.045890e+09
-2.606626e+10 2.715671e+10 5.492647e+08
-4.426008e+10 -2.691379e+10 2.080285e+08
-1.195130e+10 -2.647543e+10 1.067583e+09
2.341571e+10 -5.664892e+10 1.526037e+09
-2.975531e+09 -3.451067e+10 2.174759e+09
-3.770573e+10 -1.066791e+10 2.063324e+08
-2.349754e+10 -2.252901e+10 -1.395327e+09
-5.852016e+10 -2.653357e+10 1.423502e+09
-5.028558e+10 -5.161233e+10 -4.028988e+07
1.525081e+10 2.274451e+10 -2.247782e+09
-2.101144e+10 -1.778419e+10 4.006438e+08
-1.873013e+10 -3.095015e+10 1.410336e+09
-2.543340e+10 -2.740856e+10 1.033603e+09
3.294321e+10 1.971412e+10 -1.510288e+09
-2.138542e+10 -7.108409e+10 -4.464096e+09
3.395283e+10 -1.415441e+10 -9.980385e+08
-2.935737e+10 -1.082991e+10 1.572254e+09
-2.321878e+09 6.651504e+10 -5.573218e+09
3.809069e+10 1.852916e+10 9.124027e+08
-1.946031e+10 2.805766e+10 3.093800e+09
-4.409642e+10 -2.979790e+10 -2.200268e+08
2.139610e+10 -2.398919e+10 9.528992e+08
-4.036009e+10 1.179057e+10 5.206489e+08
-4.340511e+10 2.176518e+10 -1.402523e+09
6.881205e+10 1.905944e+10 -1.886089e+08
-8.581317e+09 -3.728368e+10 -5.389682e+09
-2.410079e+09 3.302596e+10 8.285077e+07
-2.663417e+10 -1.114114e+10 -9.883540e+08
7.583660e+10 -2.794969e+10 4.069236e+09
-4.418726e+10 3.285599e+10 -4.231514e+08
5.739917e+10 4.757623e+09 -9.933311e+08
-3.662371e+10 3.342954e+10 -8.939917e+08
2.767214e+10 -6.492190e+09 -1.595503e+08
5.140354e+10 2.938669e+10 -1.415927e+09
2.744152e+10 2.136523e+10 7.040729e+08
3.115458e+10 6.008087e+10 -2.700848e+09
3.554346e+10 -1.726777e+10 2.326522e+08
5.198790e+10 -6.305268e+10 -2.480896e+09
-2.832617e+10 -1.375138e+10 7.153163e+07
-6.978111e+09 -3.820942e+10 -9.335349e+08
5.431358e+09 4.587861e+10 3.555545e+08
4.430642e+10 9.444693e+09 2.191273e+08
-2.912669e+10 -3.187304e+09 3.626569e+08
1.494025e+10 -3.871994e+10 -2.599090e+09
-3.385444e+10 7.460526e+10 -4.024090e+09
-3.586888e+10 -4.417346e+10 4.421278e+08
-3.558030e+10 -2.396315e+10 3.065601e+08
6.829815e+10 2.245453e+10 -2.014678e+09
2.974997e+10 2.546496e+10 -3.209863e+09
-3.252912e+10 -1.764211e+10 3.324534e+09
-4.676358e+10 4.284836e+10 4.449458e+08
-3.959306e+10 5.837862e+10 4.458386e+09
-1.212575e+10 3.247012e+10 -5.506606e+08
4.303370e+10 -2.424617e+09 1.700061e+09
3.990215e+10 -3.950917e+09 -2.178797e+09
4.158364e+10 -3.045598e+10 -2.437547e+09
5.460028e+10 2.624425e+10 1.461096e+09
-5.401735e+10 2.219009e+10 -2.351176e+09
-2.629635e+09 4.593167e+10 -1.016740e+09
2.889146e+10 6.848332e+10 1.392242e+09
-2.597834e+10 -1.800130e+10 -5.527465e+08
2.139479e+10 2.402055e+10 -3.267412e+09
4.137150e+09 3.249256e+10 4.964157e+09
-4.220788e+10 -2.790385e+09 -9.833710e+08
-4.605594e+10 4.857592e+09 3.349727e+06
1.966666e+10 -4.643919e+10 1.460232e+09
4.399284e+10 5.911801e+10 1.947866e+09
7.531203e+10 3.363942e+10 5.617880e+09
2.542833e+10 -8.182459e+10 2.024248e+09
2.805839e+10 3.193982e+10 -1.583002e+08
3.296850e+10 -1.019510e+10 -1.832603e+09
-2.041601e+10 -1.611336e+10 -3.296187e+07
-1.443005e+10 -4.359974e+10 5.810449e+08
2.745563e+10 5.443924e+10 -1.627787e+09
-9.188095e+09 -2.482329e+10 1.331724e+09
-2.623058e+10 -8.658482e+10 -2.730614e+08
-3.840223e+10 -2.382054e+10 3.122597e+09
2.755231e+10 -5.006462e+10 -2.224575e+09
-1.768492e+10 -4.407877e+10 -1.142601e+09
2.466774e+10 -2.498106e+10 -6.007665e+08
2.936664e+09 4.803893e+10 -4.882181e+08
-2.018568e+10 -2.950940e+10 -1.153262e+09
-2.012160e+10 -1.593330e+10 -8.331754e+08
1.448440e+10 6.322936e+10 8.924587e+07
-3.825801e+10 4.863304e+10 -5.199027e+08
3.629790e+10 -1.642257e+10 -5.289598e+08
1.803211e+10 -4.765014e+10 1.477239e+09
1.093877e+10 -3.080206e+10 -2.146670e+09
2.283462e+10 6.584574e+10 -1.149855e+09
3.560038e+10 6.339460e+09 -1.346376e+09
-4.315519e+10 -1.428675e+10 -1.056587e+09
6.178222e+10 -1.646328e+10 -2.907437e+07
-2.229389e+10 -4.967941e+10 -1.408205e+08
-2.324436e+10 -2.159871e+10 -4.274208e+09
-3.597575e+09 7.825655e+10 7.270338e+09
-2.505802e+10 -3.198380e+10 6.487356e+08
9.239455e+09 -3.957392e+10 -1.358365e+09
-2.752694e+10 -5.398359e+10 5.422134e+07
-5.003674e+10 -9.634974e+09 2.347889e+09
-7.736852e+10 -1.209235e+10 6.147369e+09
-1.349676e+10 -2.941632e+10 3.133188e+07
-9.627401e+09 -6.518490e+10 3.753856e+09
-8.936551e+09 -5.218140e+10 -2.029466e+08
6.069540e+10 -4.317289e+10 2.631075e+09
-2.209680e+10 -2.237158e+10 5.318044e+07
-3.633686e+10 1.144054e+10 1.561370e+09
-7.698298e+10 3.831055e+10 2.727865e+09
-4.715656e+10 -6.759512e+09 -2.811654e+09
-5.940003e+10 3.682208e+10 4.159373e+09
3.719370e+10 -6.087078e+10 1.879322e+09
1.926182e+10 4.295494e+10 -2.938169e+08
1.715518e+10 -3.416343e+10 -4.194981e+08
1.440725e+10 -7.036853e+10 -9.720036e+08
-1.793314e+10 7.101619e+10 -5.681728e+09
4.533297e+10 2.570452e+10 2.790296e+08
-2.085250e+10 -2.451760e+10 1.379839e+09
-3.630690e+10 -3.050512e+10 -5.441474e+08
-6.227576e+10 -3.057243e+10 -4.444472e+09
4.843339e+10 -4.613245e+10 8.824943e+08
-1.885657e+10 -4.379391e+10 -9.878234e+08
-2.878534e+10 -2.477862e+10 -7.846961e+08
4.902368e+10 -4.609150e+10 2.518569e+09
1.146307e+10 3.191457e+10 3.595248e+09
8.722398e+09 -3.524452e+10 -1.464668e+09
6.449445e+09 4.504324e+10 8.226579e+08
4.752236e+10 4.778478e+10 3.448528e+09
-2.243650e+10 -2.918271e+10 1.338027e+09
4.564320e+10 -3.313900e+10 -3.245642e+08
-4.377203e+10 -3.546499e+10 -8.519561e+08
-4.082228e+10 1.447603e+10 -1.131030e+09
-1.795212e+10 -2.967580e+10 -8.912389e+07
3.031958e+10 7.912157e+08 -2.518174e+09
-4.310810e+10 -1.272379e+10 -9.073420e+08
-3.753758e+10 -5.055551e+10 2.572291e+09
1.055551e+10 4.384918e+10 -1.589259e+09
-2.917414e+10 3.339966e+10 -1.585674e+09
4.331487e+10 1.696872e+10 1.145334e+09
-1.817863e+10 -2.955352e+10 -1.102322e+09
-2.006854e+10 2.623524e+10 -2.271371e+09
-5.335668e+10 -3.776372e+10 2.952893e+09
4.794401e+10 6.605688e+10 1.792495e+09
-2.786932e+10 -2.703363e+10 5.375023e+07
-3.441519e+09 -2.733963e+10 -3.215608e+08
3.297026e+10 -2.763605e+10 2.351238e+09
3.200270e+10 8.491173e+09 -9.539147e+08
-5.873114e+10 2.766884e+08 -8.260614e+08
-2.732696e+10 -1.040600e+10 -1.323474e+09
-3.842023e+10 -9.321139e+09 -1.446120e+09
-1.569215e+10 -2.843436e+10 5.223987e+08
-5.052272e+10 2.176580e+10 -2.938690e+09
3.664821e+10 -2.090245e+10 2.081892e+08
7.877833e+10 4.178635e+10 5.395595e+09
4.408889e+10 3.173634e+10 -8.780574e+08
3.940788e+10 -5.280178e+10 -1.326135e+09
-7.974964e+10 -1.529349e+10 2.877643e+08
2.891912e+09 3.006816e+10 -6.775990e+08
1.875934e+10 -7.267450e+10 3.942255e+09
-1.060810e+10 3.631659e+10 -1.383251e+08
-2.313467e+09 5.735357e+10 4.138016e+08
-1.534775e+10 -2.815295e+10 -1.733797e+09
1.557920e+10 -2.342766e+10 3.167011e+09
-3.705722e+10 -7.040713e+09 1.056658e+09
3.019225e+10 3.964533e+10 1.059694e+09
-1.494826e+10 3.724125e+10 8.028656e+08
1.293855e+10 6.924791e+10 1.602491e+09
6.785022e+10 3.653663e+10 9.888231e+08
3.141715e+10 1.769082e+10 2.694258e+08
-2.952781e+10 -5.495151e+10 3.582957e+09
-2.606453e+10 2.830354e+10 -3.215752e+08
2.249132e+10 1.498872e+10 1.854197e+07
-1.408993e+10 -3.192148e+10 2.397785e+09
-2.798724e+10 -1.421102e+10 -1.824244e+09
-8.857755e+09 -2.843759e+10 -8.472090e+08
9.666216e+09 -6.934771e+10 -7.095544e+08
4.410781e+10 -3.979870e+09 -1.022901e+09
5.818024e+10 6.496366e+09 5.740916e+09
-3.856794e+09 -3.279220e+10 -2.496908e+09
-2.658265e+10 -4.766210e+10 2.126451e+09
-4.036028e+10 -4.844462e+10 -2.740749e+09
-1.225226e+10 3.617319e+10 1.857647e+09
2.794161e+10 4.755773e+10 -2.327089e+08
-1.316800e+10 -3.556778e+10 5.412220e+08
-2.282349e+10 -2.901640e+10 -2.456011e+07
-3.629475e+09 -5.814252e+10 -2.649662e+08
2.572309e+10 2.484251e+10 2.158009e+09
1.810019e+10 -3.916847e+10 -2.867726e+09
-2.958783e+10 5.747222e+10 2.780429e+07
4.460933e+09 4.660337e+10 2.650808e+09
6.977451e+10 -1.843203e+09 1.695522e+09
-2.024898e+10 2.464697e+10 -2.045113e+09
1.710590e+10 -4.089408e+10 8.068653e+08
7.586986e+10 2.068204e+10 2.402123e+09
-1.020982e+10 -3.556886e+10 -1.275618e+09
-3.051597e+10 -2.480921e+10 -2.970872e+09
6.790302e+10 -1.379884e+10 1.869919e+09
2.819945e+10 1.060039e+10 2.003713e+09
1.844664e+10 3.247190e+10 9.465309e+08
1.945627e+10 -5.841516e+10 -5.371054e+08
4.094479e+10 1.172289e+10 1.974487e+09
3.624688e+10 -1.251233e+10 -4.186180e+09
9.767493e+09 5.333745e+10 8.850342e+08
-3.970994e+10 -1.859451e+10 -4.064198e+08
-1.921743e+10 3.404437e+10 1.625136e+09
-7.252916e+09 -2.987671e+10 -6.689742e+07
2.496582e+10 -3.153776e+10 1.323334e+08
3.951127e+10 2.185055e+09 3.299524e+08
-6.017571e+09 3.645707e+10 5.129237e+09
-3.575295e+10 -3.573554e+10 1.067479e+09
2.701678e+10 3.070223e+10 -1.634832e+09
-4.462454e+10 -1.329597e+10 -8.746746e+08
4.017366e+10 1.956969e+10 -5.713353e+08
-6.453364e+10 -2.244857e+10 -1.314313e+09
-1.817920e+10 -5.650023e+10 -1.944266e+09
1.350644e+10 -3.759612e+10 7.804729e+08
-5.162939e+09 -2.928841e+10 1.384739e+09
7.534834e+09 5.111912e+10 -5.635886e+08
3.748241e+10 -3.226417e+10 1.074237e+09
-1.723267e+10 4.507197e+10 -2.312798e+08
-7.135825e+09 -5.641699e+10 3.813815e+09
-3.889248e+10 6.880880e+09 -9.470829e+08
-2.244565e+10 3.312921e+10 -1.595552e+09
1.197484e+10 2.209896e+10 2.797315e+08
2.352053e+10 -2.272539e+10 2.900218e+09
-5.329302e+10 7.947872e+08 3.985746e+08
4.588846e+10 3.481328e+10 1.412219e+09
-4.751888e+09 -3.274822e+10 2.582640e+09
-8.775574e+10 -2.193112e+09 -5.057072e+09
1.869474e+10 4.647327e+10 2.718899e+08
2.684105e+09 -7.318654e+10 -2.436942e+09
4.991988e+10 3.183924e+10 2.092426e+09
-7.581382e+10 -2.171577e+10 2.981167e+09
-2.834318e+10 2.378611e+10 -7.896838e+08
4.459312e+10 -5.522889e+10 -6.402090e+08
3.476409e+10 -6.084483e+10 -2.614036e+09
4.472889e+10 -1.031665e+10 1.470660e+09
-3.104525e+10 1.940824e+10 -7.549794e+08
-2.499486e+09 -3.269911e+10 -2.791958e+09
2.274040e+10 4.303556e+10 -1.904918e+09
6.177714e+10 -3.965257e+10 8.710768e+08
-5.153453e+10 4.864377e+09 2.076639e+09
-5.968266e+10 2.266782e+10 -2.307789e+08
6.886949e+10 -6.736272e+09 3.958358e+09
-3.040943e+10 5.752537e+10 -8.846963e+08
-9.055730e+10 -4.204401e+10 -3.024084e+09
-1.910253e+10 2.053222e+10 -7.585102e+08
-4.091913e+10 -2.818454e+09 -5.804239e+08
-2.030501e+10 3.122166e+10 -2.891927e+09
2.502729e+08 -3.582036e+10 3.587058e+08
-3.538637e+10 -4.244040e+09 -1.540782e+09
1.432192e+10 4.342066e+10 2.348818e+09
3.542777e+10 -2.971461e+10 -2.246572e+09
4.505820e+10 -5.204590e+10 -1.172479e+08
-1.263695e+10 -6.431695e+10 -4.640006e+08
2.657034e+10 2.907224e+10 6.316933e+07
3.094897e+10 -7.834924e+09 1.361890e+09
-7.690320e+09 4.962251e+10 -4.919492e+08
7.093978e+10 -1.748725e+10 3.010364e+09
2.086315e+10 -2.529157e+10 1.341588e+09
4.159714e+09 -4.082751e+10 -7.962777e+08
-5.818745e+10 1.575490e+10 5.060495e+08
4.885969e+10 1.198561e+10 -4.812009e+08
3.259548e+10 1.452345e+10 7.692522e+08
2.352063e+10 -1.903133e+10 8.849156e+08
-3.227377e+10 6.873547e+09 1.183571e+09
2.054060e+10 -2.566209e+10 5.617289e+08
-5.640451e+10 -3.389778e+10 -1.580924e+09
7.215334e+10 2.310603e+10 1.965928e+09
7.283524e+09 -3.287589e+10 -4.376109e+09
5.478191e+09 -3.819567e+10 -1.746389e+09
-2.147074e+09 -4.463098e+10 1.639641e+09
-3.639521e+10 -1.407560e+10 1.478649e+09
-5.339819e+10 -1.018885e+10 5.338317e+08
-3.918826e+10 -7.870536e+09 -6.148753e+08
3.828555e+10 6.583749e+10 7.491758e+09
-4.876271e+10 2.021911e+10 2.733977e+09
5.232064e+10 1.637235e+10 -2.135220e+08
-1.074800e+10 3.820765e+10 2.364957e+08
4.590864e+10 -6.781042e+10 3.453334e+09
-3.847962e+10 -4.318915e+09 8.726299e+06
6.947609e+08 2.751614e+10 -9.019667e+08
1.059878e+09 -5.464556e+10 -9.896680e+08
-2.086272e+08 -4.014967e+10 1.995810e+09
4.857306e+10 4.832830e+10 -1.464520e+09
4.647475e+10 6.685887e+10 -1.078281e+09
-3.590685e+10 1.806450e+10 1.206341e+09
5.651466e+10 1.774553e+10 1.021589e+08
6.834291e+10 6.444181e+10 -2.925587e+09
3.745925e+10 6.490171e+10 1.251959e+10
-1.346895e+10 -4.171996e+10 3.711345e+09
-5.756195e+10 1.316762e+10 -5.112853e+08
-6.457118e+10 2.016534e+10 -1.067734e+09
-2.037888e+09 -7.626436e+10 2.516737e+08
2.983711e+10 -2.035982e+10 3.058313e+09
-4.885517e+10 5.839897e+10 -5.230184e+09
-2.550439e+10 -6.062994e+10 -3.237227e+07
5.382962e+08 5.507987e+10 -1.550418e+08
4.626435e+10 -1.785919e+10 1.395628e+08
-1.611070e+10 -2.856691e+10 -6.694112e+08
-1.213555e+09 -3.654190e+10 4.516273e+08
-7.922356e+10 -1.248109e+10 -2.030931e+07
-5.413266e+10 3.325250e+10 3.877379e+07
3.999378e+10 8.369431e+09 3.869298e+08
-5.206419e+07 -8.268938e+10 -3.059327e+09
-5.681568e+08 -3.525416e+10 1.925108e+09
-5.714826e+10 -1.240133e+10 -4.007191e+08
1.992178e+10 3.170016e+10 1.632965e+09
-4.775842e+09 3.275079e+10 9.528178e+08
-4.731145e+10 -6.726917e+10 -2.066012e+09
-2.527061e+10 2.275983e+10 -9.485489e+08
-5.472257e+08 3.002527e+10 2.024195e+09
4.162263e+10 -5.144729e+10 -1.888032e+08
6.638725e+09 3.397057e+10 -2.939742e+09
-3.107837e+10 -4.689775e+10 -4.363405e+09
6.297913e+07 -7.129835e+10 3.585382e+09
-2.106354e+10 2.862158e+10 -1.387581e+09
-2.258402e+10 6.278564e+10 9.361485e+07
4.226133e+09 -3.508617e+10 3.190068e+09
-5.214939e+10 -4.739772e+09 2.143276e+09
-5.986643e+10 -3.155962e+10 1.208546e+09
-8.209615e+09 3.245310e+10 1.675609e+09
3.698466e+10 5.140030e+10 6.581609e+07
4.124455e+09 -2.941850e+10 -6.621354e+08
-1.308098e+08 5.126999e+10 -2.326747e+08
6.203894e+09 2.721680e+10 -3.989353e+08
5.518305e+09 -6.526358e+10 -4.331990e+09
-1.947583e+09 4.635094e+10 3.355025e+09
-7.856245e+10 -5.346034e+08 7.565564e+08
6.466817e+10 -2.729275e+10 5.666967e+09
3.419018e+10 -4.296252e+10 -1.137369e+08
1.494970e+10 4.952468e+10 -6.660105e+08
2.245919e+10 -5.581737e+10 5.821739e+08
4.212165e+10 -6.110168e+09 -3.162618e+08
-2.997742e+10 1.739531e+10 -1.453155e+09
-5.832160e+10 4.584237e+10 -4.377844e+09
4.290999e+10 2.047820e+10 1.400375e+09
3.163619e+09 -6.049033e+10 -2.750497e+09
-1.387751e+09 -3.682963e+10 -5.078322e+08
6.470849e+10 -3.254810e+10 -7.220039e+09
3.764966e+10 2.331177e+10 1.579474e+09
-2.069336e+10 5.787900e+10 2.917739e+08
1.851787e+10 -1.879481e+10 -1.418393e+08
2.114911e+10 3.229989e+10 1.847128e+08
-3.644869e+10 1.817484e+10 1.654785e+09
-4.617975e+10 5.526748e+10 3.458451e+09
8.697516e+10 -1.688000e+10 1.733552e+09
1.833722e+10 4.047197e+10 -1.715860e+09
-5.479788e+09 -4.818152e+10 -2.401629e+09
4.113049e+10 -2.497601e+10 1.209462e+09
1.359651e+10 -3.249936e+10 -3.618453e+09
-3.573487e+10 1.614194e+10 2.400534e+09
-1.785291e+10 8.444455e+10 -3.803093e+09
6.258977e+10 6.010997e+10 2.741340e+09
-4.430654e+10 -3.315502e+09 -4.378644e+08
3.575402e+10 -3.036182e+10 1.120006e+08
-5.473307e+10 -5.452677e+10 9.130064e+07
-4.963949e+10 -3.454658e+10 2.285448e+09
-3.430221e+10 -9.816240e+09 -2.587582e+08
-3.360594e+08 -3.462974e+10 -7.184899e+08
3.198088e+10 -3.160852e+10 3.330325e+08
-4.763654e+10 4.722776e+10 -7.483704e+09
2.635075e+10 -3.050487e+10 -1.311142e+09
-2.555777e+10 -7.960814e+10 8.909035e+08
2.271275e+10 -2.208864e+10 -5.154261e+09
-3.454472e+10 2.730334e+10 -4.270280e+08
2.752463e+10 2.358603e+10 -7.776507e+08
-4.976080e+10 4.319050e+10 4.379338e+09
1.919092e+10 -3.696647e+10 1.365121e+09
1.220426e+10 3.847670e+10 1.722786e+09
1.997143e+09 -3.617339e+10 1.064754e+09
2.829610e+10 -1.340633e+10 -1.399923e+09
-5.562165e+10 -2.270556e+10 2.177214e+09
3.480498e+10 -5.294711e+10 -4.247661e+08
-4.253785e+10 -7.744637e+10 6.560092e+09
-4.092781e+10 -2.962029e+10 5.553261e+08
-1.558850e+10 5.391295e+10 1.160790e+09
-1.666011e+09 -3.780347e+10 -1.111440e+09
6.911245e+10 1.265317e+08 -3.812780e+09
4.846760e+10 -5.106258e+10 -1.147343e+09
-1.226298e+10 -5.177894e+10 5.136263e+08
7.496474e+10 7.846431e+08 -1.951710e+08
-4.743824e+10 3.290070e+10 2.050529e+09
4.359684e+10 -1.035395e+10 -4.394357e+08
5.249003e+10 -4.029724e+10 1.598157e+09
-4.452796e+10 -7.181400e+09 2.738037e+09
3.764310e+10 -9.224473e+09 -6.886688e+08
-5.521723e+09 -7.398839e+10 -2.899568e+09
2.125201e+10 7.033239e+10 -1.721754e+09
-5.249528e+10 -3.158745e+10 -1.777899e+09
1.407730e+10 5.258646e+10 2.670808e+09
3.558226e+10 -3.829099e+10 3.262688e+08
2.191120e+06 8.101761e+10 -4.071946e+08
-1.475631e+10 -5.536716e+10 -1.500266e+09
-4.435976e+10 -5.952346e+10 1.736431e+09
-3.477499e+10 3.795912e+10 8.812661e+07
4.634786e+10 -5.783825e+10 -1.195197e+08
3.682475e+10 -2.458928e+10 -1.253450e+09
-2.084522e+10 4.342944e+10 -2.336780e+09
-4.686903e+10 -3.908047e+10 -2.535428e+09
-2.781711e+10 -1.402436e+08 2.195623e+08
-5.080197e+08 -4.987001e+10 8.757819e+08
5.036319e+10 -1.525333e+10 -2.405765e+08
-5.367895e+10 -2.525104e+10 3.258067e+09
-6.603666e+10 1.358728e+10 -1.907670e+08
-3.887681e+10 -9.480265e+09 -1.890817e+09
-4.258988e+10 3.488876e+09 1.300307e+09
-8.072865e+09 -7.692183e+10 -2.687813e+09
6.053845e+10 3.283591e+10 -1.161573e+09
-6.760141e+10 -1.862746e+10 1.908583e+09
1.957034e+10 -4.538595e+10 -1.411592e+09
-6.145875e+10 -6.429376e+10 4.191818e+09
-4.247275e+10 -1.461131e+10 4.867937e+08
-6.283475e+10 2.693230e+10 1.466082e+09
3.300146e+10 -3.700553e+10 5.995853e+08
-3.036067e+10 -4.165637e+10 -2.731084e+09
2.932846e+10 -2.225306e+09 1.174505e+09
3.054647e+10 -1.277788e+10 -2.157992e+09
2.375902e+10 3.111901e+10 -1.641568e+09
-3.319921e+10 -1.444080e+10 6.507402e+08
-6.228176e+10 4.849836e+10 -1.006730e+10