# vtk DataFile Version 2.0
Electric current density generated by TTH
ASCII
DATASET UNSTRUCTURED_GRID
POINTS 10293 double
1.214766e-05 9.136433e-06 -4.898587e-23
1.329817e-05 6.502198e-06 3.273297e-08
-8.389765e-06 -1.243248e-05 -1.137082e-08
1.218267e-05 -8.754889e-06 1.243527e-08
-3.566332e-06 -1.456201e-05 -4.753967e-09
-1.196389e-05 -9.062961e-06 -1.037339e-08
1.403208e-05 -5.316118e-06 -2.618528e-09
1.123481e-05 -9.924643e-06 -8.115650e-09
1.335456e-05 6.822721e-06 -3.756693e-09
-2.188304e-06 1.481912e-05 -7.402782e-09
5.163995e-06 1.407254e-05 -7.128823e-09
-5.323020e-07 -1.499267e-05 -5.105010e-09
1.478650e-05 -7.966908e-07 -5.581982e-08
-1.419882e-05 -4.860515e-06 4.695013e-09
-4.092086e-06 1.444196e-05 1.363110e-08
-8.858677e-06 1.207852e-05 1.349442e-08
-1.416464e-05 4.903565e-06 -3.511091e-11
-1.313246e-05 -7.237354e-06 6.482818e-09
1.429843e-05 4.554578e-06 5.761069e-09
-1.452695e-05 3.744654e-06 -2.142664e-09
1.046440e-06 1.496675e-05 -1.584134e-08
1.274080e-05 -7.919775e-06 8.314831e-09
-1.162266e-05 -9.496541e-06 -9.009284e-09
1.478650e-05 7.966908e-07 -5.581982e-08
-1.305128e-05 7.383176e-06 1.218343e-08
1.870197e-09 1.499644e-05 1.442199e-09
-5.995345e-06 -1.374758e-05 -3.034519e-09
-4.507519e-06 1.430965e-05 -6.114827e-09
1.476648e-05 2.568811e-06 6.543007e-09
1.476648e-05 -2.568811e-06 6.543007e-09
4.379323e-06 1.434400e-05 -9.156939e-09
1.413729e-05 5.044814e-06 9.017611e-09
-4.688727e-07 1.499490e-05 -1.509245e-08
4.059199e-06 -1.444597e-05 2.008774e-08
1.439409e-05 3.694916e-06 -1.435717e-07
-1.068444e-05 -1.052972e-05 4.366671e-09
2.011545e-06 1.486790e-05 -6.497023e-09
1.323902e-05 7.034910e-06 8.860227e-09
-1.268695e-05 -7.985640e-06 -1.448428e-08
-1.358025e-06 1.493577e-05 3.802211e-09
1.287263e-05 -7.705726e-06 1.483571e-09
-1.474244e-05 2.860664e-06 -6.071769e-09
-1.438019e-05 -4.313803e-06 1.272995e-08
-1.030183e-05 1.089664e-05 8.036462e-09
7.467892e-06 1.301142e-05 -6.587715e-09
1.439409e-05 -3.694916e-06 -1.435717e-07
-1.011079e-05 -1.107129e-05 -2.506477e-09
1.478446e-06 -1.494431e-05 -1.149395e-08
6.949915e-06 1.330942e-05 1.128101e-09
1.360036e-05 -6.333204e-06 6.097802e-09
1.363480e-05 6.237100e-06 1.228897e-09
-1.002780e-05 1.112640e-05 3.079231e-09
-1.358995e-05 -6.310658e-06 1.210867e-08
9.818584e-06 -1.132711e-05 -1.741309e-08
9.818585e-06 1.132711e-05 -1.740869e-08
-2.095446e-06 -1.484132e-05 1.228120e-08
1.894752e-06 -1.472064e-05 1.227298e-07
-1.081061e-05 1.040458e-05 8.164076e-09
1.497509e-05 -8.246690e-07 1.706254e-09
1.497509e-05 8.246715e-07 1.704679e-09
2.574901e-06 1.478316e-05 4.419523e-09
1.153008e-05 -9.605298e-06 -6.559545e-09
-5.962450e-06 1.375395e-05 -3.072889e-09
1.340230e-05 -6.729348e-06 -9.905830e-09
1.185133e-05 9.184785e-06 -1.710706e-08
1.287303e-05 7.679448e-06 4.474574e-09
-1.439883e-05 4.152671e-06 -1.082846e-09
1.098280e-05 -1.006501e-05 -1.715523e-07
1.201746e-05 -8.981019e-06 -9.951492e-10
-9.379110e-06 -1.169324e-05 -8.929568e-10
8.614402e-07 -1.497239e-05 -1.320581e-08
2.849675e-06 1.472513e-05 -1.139070e-08
-1.530139e-06 -1.490349e-05 -1.537734e-08
1.184905e-05 -9.193201e-06 1.984994e-09
-6.600850e-06 -1.347206e-05 -1.036679e-08
-3.816931e-06 -1.449874e-05 -7.839736e-09
-1.388325e-05 -5.691765e-06 2.316887e-08
3.305969e-06 1.462409e-05 -7.745153e-09
1.098280e-05 1.006501e-05 -1.715523e-07
-1.496884e-05 1.015246e-06 1.617435e-09
-7.329512e-06 -1.308358e-05 4.111347e-09
-1.383617e-05 5.780013e-06 -3.792299e-10
1.168884e-05 -9.404497e-06 -1.354281e-09
4.351108e-06 -1.435386e-05 -4.536155e-09
-1.139738e-05 9.737828e-06 -3.124602e-09
1.444065e-05 4.081203e-06 1.412615e-08
5.972855e-06 -1.378579e-05 -2.456818e-09
1.443708e-05 -4.060280e-06 1.025657e-08
1.150106e-05 9.612113e-06 8.535881e-09
1.226301e-05 -8.378468e-06 -1.344526e-07
-1.446621e-05 3.958583e-06 -1.786970e-09
-1.393715e-05 5.545832e-06 1.028113e-08
-4.206240e-06 -1.438138e-05 9.648802e-09
-1.370909e-05 -6.088958e-06 1.706459e-08
4.777702e-06 1.422447e-05 3.269462e-09
-1.147606e-05 -9.659159e-06 -7.799926e-09
-1.289310e-05 7.671508e-06 1.898440e-10
-7.765995e-06 1.284893e-05 -3.648736e-10
6.192000e-06 -1.366210e-05 1.283603e-08
1.245129e-05 -8.355365e-06 8.209439e-09
-1.488097e-05 -2.120922e-07 1.618336e-07
-6.887832e-06 1.331851e-05 4.378124e-09
-8.452259e-06 1.238312e-05 1.009578e-08
-7.940426e-06 1.272141e-05 -1.071323e-08
-5.205535e-06 1.406535e-05 -4.656160e-09
-1.030474e-05 -1.087995e-05 -2.901547e-09
-1.117487e-05 -9.992287e-06 3.633392e-09
-6.786478e-06 -1.336948e-05 -4.001836e-09
-1.267173e-05 8.006812e-06 2.474014e-09
1.454100e-05 -3.687749e-06 -1.967556e-08
1.454099e-05 3.687846e-06 -1.966375e-08
1.207171e-05 9.236549e-06 -4.898587e-23
4.775334e-06 -1.409496e-05 1.614230e-07
-1.117948e-05 9.982033e-06 1.579064e-08
-4.537393e-06 -1.428141e-05 1.711920e-08
4.873806e-06 -1.417831e-05 -5.851496e-09
5.731946e-06 -1.387272e-05 6.663998e-09
3.190867e-06 -1.466680e-05 -5.771626e-09
-5.623546e-06 1.389999e-05 -2.298003e-09
-6.411787e-06 -1.355561e-05 4.105569e-09
-7.700504e-06 -1.287632e-05 -1.956108e-08
-2.497261e-06 -1.478758e-05 -1.789727e-08
1.319698e-05 -7.111698e-06 1.729857e-09
1.272475e-05 7.716423e-06 -1.611991e-07
1.433217e-05 -4.400623e-06 1.277592e-08
1.137916e-05 -9.772922e-06 -1.053341e-08
-1.484758e-05 -2.065459e-06 -1.123305e-08
-1.484754e-05 2.065860e-06 -1.114056e-08
8.291071e-06 -1.250080e-05 -1.350262e-08
-3.247887e-06 1.464034e-05 4.003119e-09
-1.348957e-05 -6.528870e-06 1.227646e-08
5.289400e-06 -1.403936e-05 -1.221211e-08
-9.567595e-07 -1.496927e-05 2.547269e-09
4.624667e-06 -1.427878e-05 -5.699594e-10
1.272475e-05 -7.716423e-06 -1.611991e-07
-1.496507e-05 8.016851e-07 1.155090e-09
-4.942919e-06 -1.416049e-05 1.806364e-08
1.272244e-05 7.959931e-06 -8.505588e-09
-1.412931e-05 -5.101035e-06 -1.428624e-08
6.377296e-06 -1.356381e-05 -1.491196e-08
-9.727797e-06 -1.141320e-05 -6.591751e-10
6.120277e-06 1.367908e-05 -8.811370e-09
1.483970e-05 2.145885e-06 -1.819930e-09
1.483970e-05 -2.145885e-06 -1.819930e-09
2.808969e-06 -1.473591e-05 -5.331327e-09
-1.402693e-05 -4.988905e-06 1.655058e-07
9.639305e-06 1.148456e-05 1.152698e-08
9.639316e-06 -1.148456e-05 1.152936e-08
-4.298875e-06 1.435876e-05 2.466886e-08
5.504678e-06 -1.394812e-05 -3.129829e-11
-6.537485e-06 1.349724e-05 -2.557079e-09
1.421971e-05 4.785225e-06 7.446179e-09
1.114325e-05 1.001701e-05 -1.508005e-08
1.402711e-05 5.292584e-06 1.327840e-08
-8.659661e-06 1.224672e-05 -6.844838e-09
3.825966e-06 1.450217e-05 -3.856933e-09
1.372848e-05 5.819954e-06 -1.791915e-07
1.419036e-05 -4.912824e-06 1.075762e-08
-1.463139e-05 3.398774e-06 1.426576e-08
-6.214553e-06 -1.364203e-05 -8.050458e-09
-2.919533e-07 -1.499785e-05 8.078189e-09
-1.463532e-05 -3.309280e-06 1.675721e-08
-7.333681e-07 1.499003e-05 1.005524e-08
8.418401e-06 1.242206e-05 2.106546e-09
-7.405481e-06 1.305513e-05 1.419017e-08
1.259306e-05 -8.140517e-06 -1.194445e-09
8.042239e-06 1.268769e-05 1.054898e-08
1.385827e-05 5.379810e-06 -1.483557e-07
1.492536e-05 -1.472863e-06 -5.405806e-09
1.492536e-05 1.472863e-06 -5.405912e-09
7.842175e-06 1.281219e-05 -4.627358e-09
-1.476923e-05 -2.675998e-06 -7.551800e-09
4.172777e-06 1.440966e-05 -9.399340e-09
8.872252e-06 -1.206940e-05 2.627913e-09
8.871255e-06 1.207021e-05 3.545457e-09
1.219645e-05 8.724686e-06 -3.038919e-09
-2.245554e-07 1.499572e-05 -8.849637e-10
8.587681e-06 1.227780e-05 -2.127487e-08
1.361924e-05 5.950382e-06 1.451352e-07
8.620427e-06 -1.227202e-05 -1.283106e-08
1.030494e-05 1.092513e-05 -1.823082e-08
1.030494e-05 -1.092513e-05 -1.823146e-08
4.533304e-07 -1.498092e-05 1.426668e-08
1.393962e-05 -5.529647e-06 5.196301e-09
1.488074e-05 -1.902769e-06 -2.782540e-09
1.488074e-05 1.902769e-06 -2.782540e-09
1.065849e-06 -1.497113e-05 -7.618730e-09
1.898645e-06 -1.487701e-05 -1.524424e-08
1.428971e-05 -4.583431e-06 1.345955e-08
-1.490787e-05 2.182408e-07 1.783350e-07
-3.046956e-06 -1.467352e-05 1.900221e-09
-1.423370e-05 4.692998e-06 1.628580e-09
-1.498173e-05 -5.622878e-07 1.041055e-09
-8.787542e-06 -1.215068e-05 -2.779716e-09
1.350790e-05 -6.518983e-06 1.351908e-08
-1.632501e-06 1.492643e-05 5.501199e-09
-1.345574e-05 6.635979e-06 1.269002e-08
-1.295234e-05 -7.611829e-06 8.408182e-09
7.875800e-06 -1.277362e-05 9.997003e-09
-1.173856e-05 -9.332930e-06 6.180245e-09
2.473958e-06 1.467806e-05 1.636944e-07
-3.857018e-06 1.448806e-05 -6.027020e-09
1.201680e-05 8.976183e-06 1.107026e-08
-1.205996e-05 8.902504e-06 2.696722e-09
-1.402231e-05 -5.310372e-06 1.405991e-08
1.462327e-05 3.217580e-06 -1.841828e-08
1.462327e-05 -3.217580e-06 -1.841833e-08
-1.479214e-05 2.513122e-06 -1.214259e-08
-1.497403e-05 -1.033489e-06 1.613556e-08
-1.469153e-05 3.049838e-06 5.689345e-10
1.373806e-05 6.054662e-06 1.865301e-08
1.779142e-06 1.477029e-05 1.577461e-07
-1.499306e-05 3.216964e-07 1.157405e-09
-1.496732e-05 5.576886e-07 1.690708e-09
-5.142965e-06 -1.408584e-05 -1.142585e-08
-1.256889e-05 -8.171629e-06 2.362894e-08
-1.046756e-05 1.072306e-05 -2.586114e-08
-1.471786e-05 -2.882971e-06 1.597802e-08
2.158615e-07 -1.500291e-05 -1.400591e-08
-9.556477e-06 -1.154642e-05 -8.633315e-09
1.409033e-05 -5.119491e-06 -1.232413e-08
3.580236e-06 -1.456587e-05 7.931561e-09
1.199494e-05 9.336033e-06 -4.898587e-23
1.066218e-05 1.040097e-05 1.702466e-07
-7.470346e-07 -1.499138e-05 3.039263e-09
1.237373e-05 8.514647e-06 -3.597775e-09
5.954678e-07 1.498278e-05 4.151371e-09
-1.379414e-05 -5.909435e-06 8.524140e-09
1.389832e-05 5.632186e-06 1.095619e-08
-8.177119e-06 -1.255230e-05 7.257480e-09
1.109273e-05 -1.007554e-05 -9.617178e-09
-1.424394e-05 -4.650113e-06 8.728842e-10
-1.499685e-05 -1.169637e-07 9.400657e-10
-1.409776e-05 5.112784e-06 -1.018048e-08
1.066218e-05 -1.040097e-05 1.702466e-07
1.435472e-05 4.326417e-06 1.087145e-08
-1.493339e-05 -1.525435e-06 9.377324e-09
-1.492565e-05 1.538485e-06 3.821093e-09
7.478078e-06 -1.297709e-05 5.268518e-10
-9.728858e-06 1.140464e-05 -1.821884e-08
4.981223e-06 1.415115e-05 2.397347e-09
-8.106221e-06 1.261689e-05 -9.643527e-09
8.469484e-06 -1.237877e-05 -8.821896e-09
9.308852e-06 -1.173901e-05 -2.110988e-09
[...]
POINT_DATA 10293
VECTORS 10.000GHz_fone_imag double
5.519922e+11 -7.292604e+11 6.959859e+08
4.116594e+11 -8.408395e+11 -4.977559e+09
-7.571627e+11 5.068722e+11 -3.502691e+09
-5.310145e+11 -7.452694e+11 -1.015252e+09
-8.853245e+11 2.175859e+11 4.812075e+08
-5.504139e+11 7.294829e+11 -2.549764e+09
-3.255120e+11 -8.524577e+11 1.080782e+09
-6.072725e+11 -6.784222e+11 1.400009e+09
4.185266e+11 -8.108931e+11 -7.260399e+08
9.056756e+11 1.369887e+11 -6.345831e+09
8.549774e+11 -3.099160e+11 -3.264601e+09
-9.122443e+11 3.663941e+10 -7.893003e+08
-3.735423e+10 -9.302914e+11 6.499063e+09
-2.924079e+11 8.635924e+11 4.236667e+09
8.809294e+11 2.503007e+11 -7.113053e+09
7.377934e+11 5.442873e+11 -3.662344e+09
3.059312e+11 8.665386e+11 4.213997e+08
-4.385257e+11 7.991588e+11 1.028067e+09
2.817783e+11 -8.724780e+11 1.057571e+08
2.264723e+11 8.817007e+11 -2.707324e+09
9.172329e+11 -6.408246e+10 -2.463022e+09
-4.848373e+11 -7.767231e+11 -5.616250e+08
-5.762411e+11 7.092582e+11 4.842289e+09
3.736109e+10 -9.303064e+11 -6.524651e+09
4.530168e+11 7.965312e+11 -5.950010e+09
9.138661e+11 -6.465150e+08 2.527033e+09
-8.408076e+11 3.640519e+11 -1.301203e+09
8.676108e+11 2.685744e+11 4.713061e+09
1.563949e+11 -9.091825e+11 7.174793e+09
-1.563948e+11 -9.091826e+11 -7.174984e+09
8.694350e+11 -2.658609e+11 2.859815e+09
3.094520e+11 -8.614803e+11 -2.241032e+09
9.122561e+11 3.046389e+10 -3.234945e+09
-8.830728e+11 -2.488957e+11 1.635379e+09
2.280910e+11 -9.004606e+11 3.248789e+09
-6.407945e+11 6.480054e+11 2.713460e+09
9.016137e+11 -1.203000e+11 4.936244e+09
4.269917e+11 -8.045356e+11 -5.032087e+09
-4.882296e+11 7.699609e+11 -1.513889e+09
9.127526e+11 7.938144e+10 2.994302e+09
-4.655801e+11 -7.844628e+11 2.381856e+09
1.728831e+11 8.956519e+11 -2.210431e+09
-2.638510e+11 8.738899e+11 -1.074032e+09
6.639324e+11 6.295013e+11 8.673759e+08
7.870586e+11 -4.556080e+11 -3.864154e+08
-2.281718e+11 -9.005551e+11 -3.212876e+09
-6.770612e+11 6.137337e+11 -4.289606e+09
-9.115609e+11 -9.015498e+10 1.560845e+09
8.074068e+11 -4.255067e+11 2.908034e+09
-3.809626e+11 -8.258248e+11 -2.812150e+09
3.846777e+11 -8.292964e+11 3.020288e+08
6.778975e+11 6.125488e+11 5.796550e+09
-3.896552e+11 8.365627e+11 1.554801e+09
-6.945298e+11 -6.013624e+11 3.169527e+09
6.945319e+11 -6.013609e+11 -3.168521e+09
-9.050571e+11 1.261070e+11 -2.010572e+09
-9.267626e+11 -1.306414e+11 -8.567100e+09
6.341453e+11 6.520161e+11 -5.101020e+09
-5.252997e+10 -9.138762e+11 1.886400e+09
5.252455e+10 -9.138778e+11 -1.907594e+09
9.050501e+11 -1.547661e+11 7.598570e+09
-5.856370e+11 -7.020243e+11 -2.718816e+09
8.357508e+11 3.640427e+11 -5.424372e+09
-4.057370e+11 -8.165708e+11 -7.656534e+08
5.587532e+11 -7.240767e+11 3.233406e+09
4.631978e+11 -7.881642e+11 -1.769769e+09
2.580233e+11 8.830036e+11 -5.957922e+09
-6.146193e+11 -6.889749e+11 1.772742e+10
-5.497050e+11 -7.322803e+11 4.148755e+05
-7.140481e+11 5.725064e+11 -2.418199e+09
-9.164442e+11 -5.681718e+10 4.335960e+09
8.948210e+11 -1.752510e+11 -5.340185e+09
-9.109168e+11 9.363031e+10 9.877233e+08
-5.614710e+11 -7.226242e+11 1.002547e+09
-8.203235e+11 4.000694e+11 -2.491198e+09
-8.852320e+11 2.300335e+11 -1.632425e+09
-3.481975e+11 8.492621e+11 -3.193534e+09
8.895377e+11 -2.023440e+11 3.297239e+09
6.128368e+11 -6.867046e+11 -1.797657e+10
5.787773e+10 9.148388e+11 -2.868177e+09
-7.929757e+11 4.469484e+11 -1.460311e+09
3.555533e+11 8.492302e+11 -1.969095e+09
-5.714123e+11 -7.136415e+11 -2.606972e+09
-8.770252e+11 -2.671179e+11 1.500052e+09
5.906039e+11 6.944778e+11 -5.845734e+09
2.517283e+11 -8.788634e+11 3.567408e+08
-8.395624e+11 -3.653330e+11 -2.749436e+08
-2.482620e+11 -8.790798e+11 -5.842569e+08
5.850517e+11 -7.008773e+11 -1.831462e+09
-5.260897e+11 -7.540416e+11 1.220948e+10
2.458162e+11 8.819617e+11 2.712380e+09
3.361803e+11 8.452508e+11 6.055760e+08
-8.767867e+11 2.521314e+11 -7.685798e+09
-3.783425e+11 8.383458e+11 -1.155759e+09
8.659178e+11 -2.910301e+11 1.343602e+09
-5.867452e+11 6.937241e+11 -4.990105e+09
4.642645e+11 7.811729e+11 7.046763e+09
7.799605e+11 4.735002e+11 2.274384e+08
-8.261508e+11 -3.821026e+11 -8.271074e+08
-5.115663e+11 -7.611467e+11 1.184406e+09
-1.551427e+10 9.274220e+11 2.789697e+09
8.140185e+11 4.195325e+11 -2.056848e+08
7.528826e+11 5.145403e+11 1.573400e+08
7.737047e+11 4.826247e+11 1.922085e+09
8.549844e+11 3.171384e+11 8.871363e+08
-6.634978e+11 6.279406e+11 1.647234e+09
-6.088231e+11 6.803326e+11 -2.000012e+09
-8.119195e+11 4.132224e+11 4.462726e+08
4.873819e+11 7.720207e+11 1.992848e+09
-2.241796e+11 -8.913206e+11 8.507487e+08
2.241077e+11 -8.913328e+11 -8.649257e+08
5.313028e+11 -7.165022e+11 6.500408e+09
-8.767781e+11 -2.989072e+11 1.016259e+10
6.079628e+11 6.824563e+11 1.112926e+08
-8.721459e+11 2.759091e+11 1.075197e+08
-8.728948e+11 -2.986715e+11 3.067086e+09
-8.456487e+11 -3.462794e+11 -6.012349e+08
-8.891154e+11 -1.918447e+11 1.330036e+09
8.466743e+11 3.454849e+11 -7.128260e+08
-8.298854e+11 3.929976e+11 1.990516e+09
-7.795806e+11 4.650752e+11 -6.141403e+09
-8.955049e+11 1.517222e+11 -4.962873e+09
-4.289725e+11 -8.034894e+11 5.232417e+09
4.804714e+11 -7.818591e+11 -1.795380e+09
-2.666062e+11 -8.741485e+11 -6.300713e+07
-5.986953e+11 -6.947410e+11 7.549211e+08
-1.265426e+11 9.072916e+11 -2.136501e+09
1.266292e+11 9.073132e+11 2.305933e+09
-7.576964e+11 -5.008646e+11 2.913776e+09
8.925687e+11 2.004173e+11 2.374849e+08
-3.971507e+11 8.319034e+11 2.411526e+08
-8.590344e+11 -3.276718e+11 1.194439e+09
-9.111619e+11 6.164279e+10 4.109168e+09
-8.697097e+11 -2.819451e+11 1.163922e+09
-4.834652e+11 -7.814925e+11 2.752731e+09
4.860042e+10 9.145137e+11 2.018620e+09
-8.598702e+11 3.005758e+11 3.524909e+09
4.875375e+11 -7.747808e+11 5.517416e+08
-3.119945e+11 8.634389e+11 7.788759e+08
-8.237474e+11 -3.867307e+11 2.900181e+08
-6.980098e+11 5.925440e+11 -3.328876e+07
8.457633e+11 -3.767970e+11 -2.026026e+09
1.320890e+11 -9.013333e+11 -7.699090e+08
-1.320891e+11 -9.013333e+11 7.699648e+08
-8.965507e+11 -1.740675e+11 -1.511489e+09
-3.086816e+11 8.691626e+11 7.648938e+09
6.930702e+11 -5.880814e+11 2.534054e+09
-6.930678e+11 -5.880824e+11 -2.534363e+09
8.783218e+11 2.668309e+11 2.879729e+09
-8.514368e+11 -3.336903e+11 7.008710e+08
8.257642e+11 3.980293e+11 -2.846859e+09
2.886414e+11 -8.654583e+11 3.054277e+09
6.121517e+11 -6.828668e+11 5.510745e+08
3.219463e+11 -8.554290e+11 1.625449e+08
7.444845e+11 5.280294e+11 3.885000e+09
8.816037e+11 -2.388678e+11 2.072950e+09
3.556721e+11 -8.385884e+11 -1.979914e+09
-2.987742e+11 -8.588174e+11 -2.422805e+09
2.031753e+11 8.949396e+11 4.155279e+09
-8.295325e+11 3.790244e+11 -5.051867e+08
-9.180099e+11 1.527523e+10 -1.338573e+09
-1.969500e+11 8.972946e+11 5.984279e+09
9.127597e+11 4.690999e+10 -6.590710e+08
7.579771e+11 -5.143326e+11 2.826375e+09
7.939664e+11 4.456555e+11 -4.359803e+09
-4.965054e+11 -7.689718e+11 1.338079e+09
7.692480e+11 -4.879963e+11 2.552602e+08
3.156025e+11 -8.626369e+11 -1.406733e+09
-9.234618e+10 -9.070905e+11 -3.973055e+09
9.234640e+10 -9.070905e+11 3.972873e+09
7.819104e+11 -4.762038e+11 -3.970245e+08
-1.606551e+11 8.994297e+11 -6.379687e+09
8.778400e+11 -2.504441e+11 -6.535849e+09
-7.420469e+11 -5.395599e+11 1.258392e+09
7.418295e+11 -5.397342e+11 -1.243284e+09
5.384869e+11 -7.460544e+11 2.981313e+09
9.161929e+11 1.154645e+10 5.470170e+09
7.529875e+11 -5.260446e+11 -6.314710e+09
3.770856e+11 -8.534353e+11 -1.691784e+09
-7.524100e+11 -5.256905e+11 8.644546e+09
6.614959e+11 -6.294614e+11 -5.441261e+09
-6.614983e+11 -6.294624e+11 5.442051e+09
-9.242872e+11 -2.600138e+10 -1.638938e+09
-3.324070e+11 -8.447362e+11 -3.614190e+08
-1.123925e+11 -9.063969e+11 -8.534704e+08
1.123926e+11 -9.063969e+11 8.532421e+08
-9.109580e+11 -5.897863e+10 2.462054e+09
-9.114992e+11 -1.129114e+11 -3.536196e+08
-2.820933e+11 -8.711106e+11 8.676587e+08
9.709627e+09 9.307400e+11 -7.610044e+09
-9.056830e+11 1.860407e+11 -2.132917e+09
2.844562e+11 8.698644e+11 1.818553e+09
-3.159671e+10 9.105078e+11 4.010090e+09
-7.424912e+11 5.329737e+11 -1.722893e+09
-4.010961e+11 -8.243198e+11 8.130334e+08
9.083274e+11 9.782326e+10 -1.707255e+09
4.075177e+11 8.223780e+11 6.477850e+08
-4.604013e+11 7.862997e+11 1.267837e+09
-7.791790e+11 -4.766091e+11 -1.208168e+09
-5.687691e+11 7.171187e+11 3.241966e+09
9.221012e+11 -1.496710e+11 -2.218483e+10
8.868466e+11 2.340968e+11 -3.436014e+09
5.510752e+11 -7.313094e+11 -2.247910e+09
5.427151e+11 7.363139e+11 2.361859e+09
-3.265182e+11 8.560228e+11 -1.099145e+10
2.025456e+11 -8.989363e+11 6.131235e+09
-2.025471e+11 -8.989361e+11 -6.130954e+09
1.524219e+11 9.015919e+11 -1.405935e+09
-5.967070e+10 9.123455e+11 1.125408e+09
1.869403e+11 8.982654e+11 1.477658e+09
3.695007e+11 -8.400724e+11 4.307053e+09
9.300101e+11 -1.046942e+11 -2.231376e+09
1.981860e+10 9.226331e+11 -8.308696e+09
3.500168e+10 9.209556e+11 1.828410e+09
-8.576674e+11 3.133972e+11 -8.214188e+09
-5.029297e+11 7.729648e+11 -8.052366e+08
6.615371e+11 6.434711e+11 7.063788e+09
-1.797540e+11 8.974787e+11 1.362527e+09
-9.199558e+11 -1.487586e+10 -3.937705e+09
-7.042591e+11 5.870667e+11 -5.727005e+08
-3.122500e+11 -8.602057e+11 -1.228352e+08
-8.974702e+11 -2.219830e+11 2.268169e+09
5.656053e+11 -7.043116e+11 4.484617e+09
6.419116e+11 -6.590642e+11 -6.890162e+09
-9.134297e+11 3.798029e+10 -6.188910e+08
5.169391e+11 -7.551267e+11 -3.535500e+09
9.176744e+11 -3.570549e+10 -3.541989e+09
-3.626776e+11 8.438901e+11 -4.017701e+08
3.423553e+11 -8.478992e+11 -2.796360e+09
-7.735358e+11 5.050359e+11 8.802852e+08
-6.125480e+11 -6.802732e+11 1.006519e+09
-2.816027e+11 8.705984e+11 -2.672740e+09
-5.376117e+09 9.170800e+11 2.552618e+09
3.089889e+11 8.615614e+11 2.523930e+09
-6.418707e+11 -6.585556e+11 6.919010e+09
2.617188e+11 -8.772237e+11 -2.461769e+09
-9.432210e+10 9.091674e+11 -2.086034e+09
9.610986e+10 9.101486e+11 2.825469e+09
-8.018986e+11 -4.615192e+11 -4.848982e+09
6.995956e+11 5.993460e+11 -1.116868e+10
8.630910e+11 -3.045900e+11 -1.461026e+08
7.672035e+11 4.915457e+11 -2.991328e+09
-7.534154e+11 -5.229423e+11 -3.803150e+09
-7.186448e+11 -5.700438e+11 3.877861e+09
7.186449e+11 -5.700444e+11 -3.881719e+09
3.165870e+11 8.736732e+11 6.404246e+09
4.050392e+11 -8.246827e+11 -3.556460e+09
-6.435271e+11 -6.432536e+11 1.760910e+08
6.434009e+11 -6.435862e+11 -6.867967e+07
-8.010664e+11 4.327907e+11 2.938763e+09
-9.188444e+11 -3.831656e+10 -3.193058e+08
8.708112e+11 -2.795544e+11 1.562838e+09
-8.526340e+11 3.401000e+11 6.180664e+09
-4.549063e+11 7.970478e+11 7.935826e+08
8.147739e+11 4.113556e+11 -5.709116e+08
1.431094e+11 -9.031908e+11 -4.620898e+09
-3.953449e+11 8.631173e+11 5.217934e+09
-1.431093e+11 -9.031909e+11 4.620833e+09
-6.752805e+11 -6.211432e+11 -3.271787e+09
6.752797e+11 -6.211440e+11 3.272907e+09
-7.781915e+10 -9.186703e+11 -2.419487e+09
7.782038e+10 -9.186703e+11 2.418531e+09
-5.287394e+11 7.436268e+11 -2.884122e+09
3.949124e+11 8.321597e+11 2.405529e+09
8.295055e+11 -3.893735e+11 -2.877261e+09
9.106758e+11 -9.512399e+10 8.705563e+08
8.396743e+11 3.696407e+11 2.246643e+09
-3.905833e+11 8.364298e+11 1.030975e+10
5.918574e+11 7.003804e+11 2.866150e+09
9.150044e+11 -1.313269e+10 1.756126e+09
1.629433e+11 9.007834e+11 2.729503e+09
8.548399e+11 -3.313825e+11 1.020378e+09
5.666601e+11 7.205329e+11 -4.533134e+09
1.942613e+11 8.980181e+11 -1.437684e+09
1.701658e+11 -9.085455e+11 -3.277781e+09
-1.701658e+11 -9.085456e+11 3.277951e+09
7.193747e+11 5.626277e+11 -2.391224e+09
-9.134659e+11 -7.940287e+10 1.059232e+09
3.939622e+11 8.290963e+11 -9.558796e+09
8.471456e+11 -3.493304e+11 4.045659e+09
-8.805501e+11 2.463850e+11 2.559298e+09
7.414447e+11 -5.361968e+11 9.344022e+09
-7.389044e+11 -5.387388e+11 -1.158684e+10
8.032030e+11 4.425454e+11 -4.657406e+09
5.131406e+11 7.652240e+11 -2.493763e+07
4.381715e+11 7.995720e+11 -1.973013e+09
-1.497640e+11 9.022166e+11 7.623224e+08
-7.761286e+11 4.828208e+11 1.993244e+09
-8.981388e+11 1.677135e+11 -3.530296e+08
3.821479e+11 8.413586e+11 -4.560938e+09
-8.957930e+11 -2.102143e+11 -4.684029e+09
-9.062954e+11 -1.384683e+11 -8.065366e+08
-2.609888e+11 -8.804743e+11 4.989156e+09
-9.105312e+11 6.934328e+10 -4.497206e+09
-2.395892e+11 -8.824107e+11 6.266957e+09
2.393652e+11 -8.824543e+11 -6.184824e+09
2.227249e+11 8.826377e+11 -2.292982e+09
-3.815092e+11 -8.418673e+11 8.349825e+08
7.900807e+11 -4.568035e+11 -2.077681e+09
6.040576e+11 6.886510e+11 5.175916e+09
-3.589297e+11 -8.479388e+11 1.617638e+09
8.453851e+11 3.536414e+11 3.810734e+09
-8.746029e+11 2.682715e+11 5.851865e+09
8.924025e+11 2.095234e+11 5.067189e+09
-5.414581e+11 7.360478e+11 5.366737e+08
2.634351e+11 8.782921e+11 7.623099e+08
-8.643786e+11 -3.037135e+11 -4.502459e+09
9.034875e+11 1.434680e+11 -2.713055e+09
-4.372894e+11 8.096165e+11 -5.486509e+09
-2.859649e+11 -8.641551e+11 -1.351103e+09
9.003944e+11 1.251121e+11 -2.159039e+08
-3.275533e+11 -8.498551e+11 4.454502e+09
4.932262e+11 -7.659733e+11 1.088875e+09
-8.132036e+11 -4.124842e+11 5.527942e+08
8.047078e+11 -4.337885e+11 2.032896e+08
-5.590427e+11 7.224767e+11 -3.299582e+09
4.202453e+11 8.115477e+11 -2.594408e+09
6.166590e+11 6.777343e+11 1.991666e+09
-5.119560e+11 7.645185e+11 3.043833e+09
8.789853e+11 -2.207420e+11 4.409363e+09
4.589158e+11 7.905727e+11 -9.723397e+08
-2.110251e+11 8.926668e+11 1.096299e+09
-2.158398e+11 8.957207e+11 -2.057197e+10
8.872549e+11 -2.412504e+11 -1.320170e+09
7.097915e+10 9.204054e+11 7.950191e+08
-6.443938e+11 6.433874e+11 5.022193e+09
5.493364e+11 7.307059e+11 -4.750658e+09
9.104738e+11 1.198610e+11 -2.340258e+09
-4.099626e+11 8.219751e+11 -7.826503e+08
-8.112303e+11 -4.315532e+11 5.009607e+09
5.333063e+11 7.545110e+11 -9.504816e+08
6.718979e+11 6.187870e+11 -2.178763e+09
3.351071e+11 -8.526684e+11 -1.364911e+09
5.639432e+11 -7.017017e+11 4.490621e+08
-1.931606e+11 9.185999e+11 -1.893737e+09
-3.312061e+11 8.641149e+11 7.493859e+09
-6.462545e+11 -6.428962e+11 -3.613512e+09
6.461319e+11 -6.429350e+11 3.638707e+09
6.603605e+11 -6.396714e+11 6.018373e+09
-6.603654e+11 -6.396625e+11 -6.011504e+09
-8.932815e+11 -1.666397e+11 1.257398e+09
8.581649e+11 3.084575e+11 1.894590e+09
4.747816e+11 -7.765481e+11 -2.881755e+08
1.876547e+11 -8.850248e+11 2.241809e+09
-1.876550e+11 -8.850247e+11 -2.241212e+09
3.408086e+11 8.495154e+11 2.681213e+09
-7.384456e+11 -5.576569e+11 -2.271084e+09
7.384154e+11 -5.576880e+11 2.225062e+09
-2.777327e+11 8.765836e+11 2.733902e+09
-9.051472e+11 1.179020e+11 2.090755e+09
-9.095709e+11 1.500392e+11 1.821755e+10
2.050435e+11 9.093298e+11 -1.468473e+09
1.899743e+11 9.066698e+11 9.280166e+08
6.394064e+11 -6.717855e+11 -1.483112e+10
5.938730e+11 -6.768266e+11 2.898582e+09
5.990011e+11 -7.087168e+11 8.058377e+09
-6.307379e+11 -6.743486e+11 1.114091e+10
-5.981286e+11 -6.766474e+11 1.560087e+10
8.853110e+11 -2.236981e+11 -4.957043e+08
5.760722e+11 -6.966769e+11 3.002259e+08
8.911035e+11 -2.585281e+11 -5.632008e+09
-3.274930e+11 8.571794e+11 -7.496301e+09
-3.373348e+11 8.693777e+11 7.506077e+09
-8.604173e+11 -3.104709e+11 -4.576641e+09
-8.608870e+11 -3.331732e+11 1.326569e+10
-8.480241e+11 -3.555959e+11 1.557041e+10
-1.991731e+11 -8.964231e+11 -7.423962e+09
1.991675e+11 -8.964268e+11 7.425628e+09
-5.185189e+11 -7.607958e+11 -1.734249e+09
-9.086463e+11 -1.114801e+11 5.204301e+09
5.688655e+11 -7.007840e+11 -5.007572e+09
2.553070e+11 8.846553e+11 -1.206439e+10
2.779700e+11 8.701802e+11 1.123894e+10
-3.757371e+11 -8.382558e+11 2.864573e+09
5.520232e+11 -7.128724e+11 2.146230e+10
-5.839778e+11 -7.040832e+11 -7.997722e+09
-3.259139e+11 -8.629974e+11 4.572921e+09
3.643200e+11 8.524211e+11 -1.390594e+10
-8.914053e+11 -2.407140e+11 1.226573e+10
8.868219e+11 -2.359180e+11 -1.374016e+09
-6.710854e+11 -6.190469e+11 1.011495e+10
5.583346e+11 -6.980697e+11 -3.515561e+08
-6.836483e+11 -6.033638e+11 3.449129e+09
-6.982136e+11 -5.869103e+11 3.842995e+08
-7.163015e+11 -5.702563e+11 1.248404e+10
6.710879e+11 -6.190438e+11 -1.011586e+10
6.836491e+11 -6.033626e+11 -3.448539e+09
6.982129e+11 -5.868995e+11 -3.817623e+08
7.163057e+11 -5.702623e+11 -1.248708e+10
9.894441e+10 -9.139844e+11 -1.017276e+09
-9.894465e+10 -9.139842e+11 1.017264e+09
-1.596348e+11 -9.073450e+11 -1.403863e+10
5.808094e+11 -6.724062e+11 -9.633777e+07
1.596353e+11 -9.073452e+11 1.403850e+10
1.252029e+10 9.361378e+11 -9.915606e+08
-7.974576e+10 9.077554e+11 8.487643e+09
8.122206e+10 9.089021e+11 -5.706460e+09
3.922736e+10 9.172686e+11 4.607441e+09
-9.104528e+11 -1.384527e+11 -1.911462e+09
3.392622e+11 -8.652311e+11 -1.649846e+10
-1.181804e+11 9.050257e+11 -5.843309e+09
1.181622e+11 9.052107e+11 5.896447e+09
-8.984537e+11 -1.562856e+11 -7.668333e+09
5.732027e+11 -6.866878e+11 5.981173e+08
-5.055991e+11 -7.716856e+11 -1.822775e+10
4.787492e+11 -7.774015e+11 -4.172413e+09
-4.863945e+11 -7.856256e+11 -4.849720e+08
-5.494320e+11 -7.514419e+11 1.894083e+09
-5.713782e+11 -7.268545e+11 5.638123e+08
-9.213434e+11 -8.954714e+10 -1.462806e+10
-1.703625e+10 9.332666e+11 -4.172513e+09
-2.661746e+11 -8.789436e+11 -2.008866e+09
2.682230e+11 -8.813822e+11 1.239322e+09
-3.783709e+10 9.116432e+11 -3.479956e+09
5.976254e+11 -6.678579e+11 -4.470573e+09
3.816493e+11 -8.253842e+11 1.067744e+10
-2.183018e+11 -9.140087e+11 1.485030e+10
2.182943e+11 -9.139926e+11 -1.485537e+10
-1.298044e+11 -8.947196e+11 -7.501513e+09
1.298045e+11 -8.947189e+11 7.501575e+09
-8.165624e+11 -3.877058e+11 -1.904318e+10
-8.306366e+11 -4.035331e+11 -3.333224e+09
-8.159428e+11 -4.056213e+11 1.187191e+10
-8.012287e+11 -4.515462e+11 -6.378907e+09
-9.255178e+11 -1.888993e+10 -1.232817e+09
6.020870e+11 -6.681063e+11 1.439636e+09
9.106441e+11 -1.147919e+10 4.547989e+09
-2.492223e+11 -8.856444e+11 1.117650e+10
2.487073e+11 -8.857463e+11 -1.092376e+10
4.674702e+11 -7.991766e+11 -6.342378e+07
-4.673709e+11 -7.995912e+11 -1.571586e+08
-9.352190e+11 5.979322e+10 2.738714e+10
9.028715e+11 5.761928e+10 1.940327e+09
-9.086122e+11 1.302680e+11 -1.106549e+10
-9.066251e+11 1.424268e+11 3.967024e+09
8.958223e+11 2.029347e+11 5.534028e+09
6.012998e+11 -6.697655e+11 9.871795e+09
9.014496e+11 2.009145e+11 3.088832e+09
6.113898e+11 6.876470e+11 1.022988e+10
6.155096e+11 6.849423e+11 -1.181448e+09
4.868593e+11 7.780578e+11 1.233858e+10
4.782823e+11 7.848208e+11 -3.789438e+09
-7.931345e+11 4.337721e+11 1.077257e+10
-8.009572e+11 4.484207e+11 -9.154135e+08
7.716024e+11 4.834380e+11 -9.433895e+09
7.836508e+11 4.829500e+11 -1.061571e+09
-8.689234e+11 3.126469e+11 -1.187502e+10
6.056598e+11 -6.623727e+11 -8.143440e+09
-8.656349e+11 3.133568e+11 -2.678314e+09
8.481887e+11 3.128858e+11 9.671983e+09
8.650030e+11 3.124527e+11 1.390213e+09
8.490403e+11 3.469604e+11 6.212047e+09
8.560828e+11 3.459667e+11 1.531893e+09
8.760240e+11 2.771842e+11 1.004990e+10
8.702009e+11 2.657781e+11 -6.158750e+09
7.416247e+11 5.161633e+11 1.145308e+10
7.596761e+11 5.165107e+11 4.575368e+08
8.833207e+11 2.255984e+11 1.126851e+10
6.216861e+11 -6.566389e+11 2.985788e+09
8.891828e+11 2.169419e+11 -4.912257e+09
7.986829e+11 4.446838e+11 -9.977309e+09
7.993731e+11 4.421892e+11 -4.350186e+09
5.303595e+11 7.501596e+11 3.064144e+09
5.315705e+11 7.377283e+11 1.655510e+09
6.408373e+11 6.597446e+11 -1.281333e+10
6.410156e+11 6.480062e+11 5.944551e+09
-8.094836e+11 3.998660e+11 -1.212471e+10
-8.198642e+11 4.165723e+11 2.106901e+09
-8.784481e+11 2.778708e+11 9.421697e+09
6.096604e+11 -6.619184e+11 2.883491e+09
-8.753189e+11 2.812434e+11 -1.540541e+07
-6.625486e+11 6.354134e+11 1.299457e+10
-6.592653e+11 6.466152e+11 -4.898416e+09
7.131419e+11 5.781182e+11 1.142512e+10
7.201030e+11 5.707896e+11 2.726965e+09
-6.082911e+11 6.869720e+11 -1.306922e+10
-6.022207e+11 6.976009e+11 4.048329e+09
8.976346e+11 1.592696e+11 -1.077408e+10
9.120106e+11 1.658828e+11 8.175374e+09
-9.159976e+11 9.281533e+10 7.080133e+09
6.328708e+11 -6.388233e+11 -8.240014e+09
-9.169963e+11 9.539642e+10 5.677905e+09
9.130447e+11 8.584806e+10 -1.069821e+10
9.241194e+11 9.357441e+10 -9.704821e+07
6.731461e+11 6.274669e+11 -6.012166e+09
6.743499e+11 6.460597e+11 1.011809e+10
-8.316763e+11 3.932594e+11 -4.519043e+09
-8.471158e+11 3.787715e+11 -1.285873e+10
-5.402915e+11 7.372413e+11 -1.000558e+10
-5.742225e+11 7.291549e+11 -1.767839e+10
5.559956e+11 7.329442e+11 3.845299e+08
6.292884e+11 -6.338232e+11 2.891294e+07