# vtk DataFile Version 2.0
Electric current density generated by TTH
ASCII
DATASET UNSTRUCTURED_GRID
POINTS 1394 double
-4.194603e-06 -1.595792e-05 -3.673940e-22
-3.339335e-07 -1.407334e-05 1.182637e-06
4.447621e-06 -1.571622e-05 -6.869909e-07
1.245072e-05 -1.056452e-05 -6.959133e-07
-6.298917e-06 -1.510169e-05 -6.269754e-07
6.767938e-06 -1.485414e-05 -7.062867e-07
1.052645e-05 -1.138389e-05 -1.412502e-06
1.553248e-05 2.097849e-06 -1.340293e-06
1.525403e-05 -5.938933e-06 6.122348e-07
-9.248580e-06 -1.207359e-05 -1.485396e-06
-1.108200e-05 -8.126796e-06 8.176932e-07
-3.276743e-06 -1.617136e-05 -3.673940e-22
1.233597e-05 7.881913e-06 1.455914e-06
-1.195492e-05 1.111481e-05 7.058026e-07
3.668445e-06 -1.309956e-05 -5.475965e-07
-1.002145e-05 1.286549e-05 -7.342885e-07
1.161638e-05 -1.006648e-05 -1.453340e-06
-8.727250e-06 1.032368e-05 -2.332986e-07
-5.930835e-06 -1.389872e-05 1.495871e-06
-7.193841e-06 -1.176502e-05 8.866535e-07
1.177923e-05 1.134498e-05 6.451531e-07
-9.847588e-06 9.832403e-06 -1.036648e-06
-2.348195e-06 -1.633205e-05 -3.673940e-22
1.335092e-05 -5.928146e-06 -1.447839e-06
1.587468e-05 -3.691438e-06 -7.514108e-07
-7.912267e-06 -1.187178e-05 -1.308626e-06
1.458302e-05 4.756003e-06 -1.461197e-06
-1.324027e-05 7.155789e-06 -1.499158e-06
-1.604437e-05 3.001720e-06 7.073464e-07
-7.772973e-06 -1.110718e-05 -4.090928e-07
-6.664937e-06 -1.416672e-05 -1.348839e-06
-1.492873e-05 -3.197067e-06 -1.476005e-06
-1.365784e-05 -3.425472e-06 1.185402e-06
-1.411988e-06 -1.643947e-05 -3.673940e-22
9.348072e-07 -1.634791e-05 -6.003652e-07
1.866450e-06 -1.626688e-05 6.026730e-07
4.613003e-06 -1.571045e-05 6.024590e-07
-6.071423e-06 -1.290139e-05 -1.303973e-06
-1.344536e-05 -9.318730e-06 -6.349454e-07
-1.405818e-05 6.404203e-06 1.431481e-06
-1.475510e-05 -4.106886e-06 -1.466339e-06
6.786012e-06 1.270786e-05 -1.377477e-06
5.839208e-06 -1.281692e-05 1.188129e-06
-1.014612e-05 -9.574709e-06 1.071784e-06
-4.711748e-07 -1.649327e-05 -3.673940e-22
1.036637e-05 -1.267754e-05 5.966030e-07
7.948999e-07 -1.354245e-05 4.392632e-07
-6.363803e-06 1.221525e-05 8.635885e-07
-8.870210e-06 1.371623e-05 -6.849396e-07
1.355035e-05 -4.540783e-06 1.321827e-06
-1.529337e-05 -1.081210e-06 1.462902e-06
-1.093499e-05 1.201890e-05 8.307557e-07
-1.237127e-05 9.009253e-06 -1.468855e-06
1.476215e-05 3.525129e-06 1.489496e-06
1.117286e-05 -7.726104e-06 4.949707e-07
4.711748e-07 -1.649327e-05 -3.673940e-22
1.511931e-05 -3.455800e-06 1.410919e-06
1.353633e-05 9.198237e-06 -6.201247e-07
-1.584778e-05 -3.977930e-06 6.752846e-07
-1.584193e-05 -4.027895e-06 -6.620923e-07
1.055563e-06 1.358998e-05 -6.128655e-07
1.631072e-05 -8.559155e-07 -6.875140e-07
-1.267961e-05 6.008165e-06 1.145054e-06
1.257027e-06 1.547347e-05 1.405331e-06
-1.146698e-05 7.139208e-06 -1.524931e-07
1.070955e-05 8.438141e-06 -6.205796e-07
1.411988e-06 -1.643947e-05 -3.673940e-22
4.567222e-06 1.466315e-05 -1.456657e-06
-1.044255e-05 -9.251301e-06 -1.072301e-06
1.176513e-05 7.462485e-06 1.053504e-06
1.128035e-05 8.653542e-06 1.279570e-06
-4.792235e-06 -1.293449e-05 -8.915565e-07
9.836082e-06 -9.623305e-06 8.450470e-07
-1.174677e-05 -1.141599e-05 5.873747e-07
-1.482558e-05 -8.764059e-07 -1.492628e-06
-6.180761e-06 1.431728e-05 -1.377189e-06
1.342073e-05 1.507606e-06 -1.240726e-07
2.348195e-06 -1.633205e-05 -3.673940e-22
1.604953e-05 -2.986617e-06 7.030280e-07
-8.030496e-06 -1.420918e-05 7.097794e-07
-9.351647e-07 -1.635416e-05 5.858180e-07
8.174500e-06 -1.415640e-05 -6.598786e-07
-9.773075e-06 -1.065843e-05 1.399742e-06
-4.749086e-06 -1.508762e-05 1.257717e-06
1.426444e-05 -6.929252e-07 1.316593e-06
7.503730e-06 -1.160496e-05 9.255417e-07
7.174064e-06 -1.293673e-05 1.485617e-06
-1.006074e-05 -9.053258e-06 3.193919e-07
3.276743e-06 -1.617136e-05 -3.673940e-22
1.077250e-05 1.114216e-05 1.414846e-06
1.411160e-05 -2.487887e-06 1.341664e-06
-7.635571e-06 1.176891e-05 1.143202e-06
-8.281372e-06 -1.407358e-05 -6.949103e-07
1.082672e-05 -1.224019e-05 -6.713719e-07
-1.416505e-05 6.322887e-06 -1.409851e-06
2.803856e-06 1.608992e-05 -6.890052e-07
4.419005e-06 1.572987e-05 -6.764677e-07
-1.423742e-05 -2.196542e-06 -1.377317e-06
-1.336809e-05 -5.743617e-06 -1.430828e-06
4.194603e-06 -1.595792e-05 -3.673940e-22
7.737797e-07 1.633898e-05 -6.385616e-07
-9.710247e-06 1.209117e-05 1.411508e-06
1.500747e-05 3.184939e-06 -1.460560e-06
8.327945e-06 1.184377e-05 1.406459e-06
-1.446975e-05 7.610241e-06 -6.559148e-07
1.156392e-05 7.219460e-06 -6.163790e-07
1.730150e-06 -1.439583e-05 -1.414011e-06
-5.827705e-06 1.223340e-05 -3.862475e-07
1.374693e-05 7.328108e-07 8.534413e-07
-1.478328e-05 -6.961643e-06 6.732334e-07
5.098780e-06 -1.569243e-05 -3.673940e-22
1.315542e-05 -8.559161e-06 1.329420e-06
7.395427e-06 1.376211e-05 1.364358e-06
3.553304e-07 1.364521e-05 6.534899e-07
1.008508e-05 1.020221e-05 -1.349687e-06
-5.409050e-06 -1.480871e-05 -1.289876e-06
-1.478346e-05 6.966851e-06 6.684616e-07
-2.069884e-06 1.380746e-05 1.082603e-06
1.574488e-05 6.562327e-07 -1.294063e-06
1.144452e-05 -1.043667e-05 1.418142e-06
1.183469e-05 1.006347e-05 1.401384e-06
5.986327e-06 -1.537576e-05 -3.673940e-22
-9.348126e-06 1.168825e-05 -1.499631e-06
-1.126829e-06 1.630552e-05 6.652537e-07
-9.598874e-06 9.498979e-06 -1.148890e-07
1.180275e-06 1.359465e-05 6.450592e-07
-1.558707e-05 5.064547e-06 -5.657518e-07
4.841490e-06 -1.472351e-05 1.414534e-06
-1.347413e-05 1.328103e-06 -3.416442e-07
7.614832e-06 1.173190e-05 -1.105839e-06
-1.372381e-05 -7.263328e-06 1.404240e-06
1.558778e-05 5.064775e-06 -5.639315e-07
6.854348e-06 -1.500893e-05 -3.673940e-22
-3.861317e-06 1.302041e-05 -4.859446e-07
1.214881e-05 6.624714e-06 -9.481160e-07
1.341818e-05 -3.636336e-06 1.022143e-06
-3.899252e-06 -1.587463e-05 6.610217e-07
7.447350e-06 1.239321e-05 -1.398936e-06
-5.535952e-06 -1.262303e-05 -8.777029e-07
-1.389946e-05 3.570949e-06 -1.352253e-06
-4.130872e-06 1.398133e-05 -1.439651e-06
1.411284e-05 3.194464e-06 1.403195e-06
1.070957e-05 -8.573373e-06 7.796154e-07
7.700011e-06 -1.459314e-05 -3.673940e-22
6.118288e-06 -1.315965e-05 -1.418539e-06
1.144166e-05 -7.936127e-06 -1.045682e-06
-5.000362e-06 -1.257887e-05 3.280443e-07
-1.322505e-05 6.980362e-06 1.499300e-06
-1.353140e-05 -9.252537e-06 5.580573e-07
-1.979025e-06 1.379750e-05 -1.060028e-06
-5.840401e-06 1.302883e-05 -1.314795e-06
2.481395e-06 1.360338e-05 -9.359742e-07
1.280001e-05 -4.322445e-06 1.740792e-07
1.493213e-05 -4.640100e-06 -1.358277e-06
8.520558e-06 -1.412976e-05 -3.673940e-22
6.282317e-06 1.442495e-05 1.308358e-06
-1.509240e-05 -6.236801e-06 -6.930656e-07
-1.350921e-05 6.129413e-07 -2.622535e-07
-1.403623e-05 -6.495486e-06 -1.425673e-06
5.311381e-06 -1.548727e-05 -6.046624e-07
1.241369e-05 -7.316595e-06 -1.378860e-06
5.240917e-06 -1.265547e-05 7.443985e-07
-1.328985e-05 2.701354e-06 -4.254990e-07
9.456955e-06 -1.256876e-05 1.310827e-06
-5.959922e-06 1.519418e-05 -7.101059e-07
9.313313e-06 -1.362029e-05 -3.673940e-22
2.899632e-07 1.357179e-05 -4.680201e-07
5.293453e-06 1.546548e-05 -6.614139e-07
-7.986181e-06 1.246526e-05 -1.487155e-06
1.006771e-05 -1.059429e-05 1.449746e-06
-9.259376e-07 -1.357744e-05 -5.613013e-07
7.967629e-06 -1.170386e-05 -1.241730e-06
5.259423e-06 1.474961e-05 -1.347355e-06
7.108855e-06 1.472645e-05 6.486520e-07
8.011365e-06 -1.193033e-05 1.361572e-06
-1.520822e-05 6.049181e-06 6.172332e-07
1.007569e-05 -1.306639e-05 -3.673940e-22
-3.101848e-06 1.390441e-05 1.296834e-06
1.039647e-05 -9.780521e-06 -1.312567e-06
9.470774e-06 1.332872e-05 6.520725e-07
1.471332e-05 -5.997396e-06 -1.208397e-06
-1.287230e-05 -8.597053e-06 1.421397e-06
9.315927e-06 1.341849e-05 -6.833403e-07
1.238318e-05 -9.070000e-06 1.458707e-06
4.274640e-06 -1.286288e-05 -4.009119e-07
1.259931e-05 -6.116604e-06 1.122976e-06
1.633201e-05 5.436650e-07 6.719946e-07
1.080520e-05 -1.246987e-05 -3.673940e-22
1.155781e-05 1.155955e-05 -6.611295e-07
1.109107e-05 1.208452e-05 -5.315342e-07
-1.631619e-05 7.577450e-07 6.863153e-07
-8.115241e-06 -1.241805e-05 1.490852e-06
-1.474387e-05 1.208943e-06 1.485697e-06
-6.975553e-06 -1.201227e-05 -1.009737e-06
-3.626549e-06 1.306784e-05 4.258736e-07
-1.356407e-05 4.633237e-06 1.343820e-06
1.122210e-05 -1.092179e-05 -1.347224e-06
-3.760715e-06 1.512052e-05 -1.382833e-06
1.149947e-05 -1.183267e-05 -3.673940e-22
-1.361576e-05 -5.648067e-06 1.477426e-06
-6.337536e-06 1.390626e-05 1.473198e-06
-1.188373e-05 6.706817e-06 6.448369e-07
-1.114569e-05 1.199644e-05 -5.994642e-07
1.628033e-05 1.501466e-06 -6.550393e-07
1.364253e-05 -2.600605e-06 -1.006915e-06
-8.998285e-06 -1.267715e-05 1.397082e-06
1.108351e-05 1.110311e-05 -1.332750e-06
3.367005e-06 -1.365276e-05 -1.170389e-06
1.821021e-06 -1.568163e-05 -1.276954e-06
1.215623e-05 -1.115689e-05 -3.673940e-22
1.355548e-05 -9.215336e-06 -5.607141e-07
-1.244219e-05 -9.654269e-06 -1.299942e-06
-1.461494e-05 -7.298029e-06 -6.824125e-07
4.868024e-06 -1.350676e-05 -1.355306e-06
-1.389596e-05 2.455280e-06 -1.208320e-06
-8.144749e-06 1.132783e-05 -1.073114e-06
2.106730e-06 1.621195e-05 -6.574087e-07
5.741478e-06 -1.452457e-05 -1.366691e-06
-4.964599e-06 1.258169e-05 -2.767717e-07
1.622044e-05 -2.143133e-06 -6.297315e-07
1.277334e-05 -1.044471e-05 -3.673940e-22
-1.286840e-05 -8.571796e-06 -1.427100e-06
-1.622372e-05 2.338997e-06 -5.602015e-07
-1.452707e-05 -5.489652e-07 1.426897e-06
-1.496091e-05 -3.770008e-06 1.437462e-06
1.499127e-05 -5.117461e-07 -1.500000e-06
1.315594e-06 -1.390077e-05 1.083699e-06
7.975040e-06 1.094799e-05 -3.635746e-07
7.305038e-06 -1.136981e-05 -2.065952e-07
3.437618e-06 -1.419124e-05 1.446141e-06
1.502122e-05 -2.534418e-06 1.481710e-06
1.334878e-05 -9.698457e-06 -3.673940e-22
1.051612e-05 9.783518e-06 -1.358191e-06
-1.369949e-05 -4.153119e-06 1.334550e-06
1.159610e-06 -1.380748e-05 -9.702893e-07
-1.622177e-05 -1.917659e-06 6.844701e-07
-1.164717e-05 -9.278066e-06 1.496028e-06
6.292048e-06 -1.423131e-05 1.391464e-06
-3.039219e-06 1.378833e-05 -1.214245e-06
-9.654657e-06 -1.006408e-05 1.067530e-06
1.364381e-05 -7.959160e-06 -1.271607e-06
-1.336925e-05 4.669125e-06 -1.243499e-06
1.388068e-05 -8.920573e-06 -3.673940e-22
[...]
POINT_DATA 1394
VECTORS 10.000GHz_fone_imag double
-3.109447e+10 9.196437e+09 2.033792e+09
-5.903351e+10 -1.384716e+09 3.150288e+09
-3.195045e+10 -8.258216e+09 -8.389160e+08
-3.265030e+10 -3.946001e+10 1.763748e+08
-3.370428e+10 1.420842e+10 -7.687541e+07
-3.020187e+10 -1.716293e+10 -9.479982e+08
-3.136691e+10 -2.804068e+10 5.378486e+08
7.231699e+09 -4.484083e+10 5.970157e+09
-1.144491e+10 -3.020040e+10 -1.332035e+09
-3.466754e+10 2.670782e+10 1.064475e+09
-4.094535e+10 5.498050e+10 -5.317875e+09
-3.245476e+10 5.947813e+09 8.061522e+08
2.868862e+10 -3.889530e+10 -4.566817e+08
2.143186e+10 2.565394e+10 -5.402811e+08
-6.264904e+10 -1.790773e+10 -5.533307e+08
2.577082e+10 2.093686e+10 -3.404365e+09
-3.358395e+10 -3.307676e+10 2.997446e+09
4.786297e+10 3.958063e+10 -1.520689e+08
-4.651486e+10 1.977851e+10 -2.810487e+09
-5.599997e+10 2.888175e+10 5.406040e+09
2.756017e+10 -2.569942e+10 -2.161153e+09
3.657026e+10 4.024857e+10 -9.079422e+08
-3.208129e+10 5.092099e+09 -8.330257e+08
-2.399355e+10 -4.758905e+10 1.109997e+09
-1.310573e+10 -3.494204e+10 -2.326877e+09
-4.964023e+10 2.736140e+10 1.740734e+09
1.251530e+10 -3.824930e+10 8.952786e+08
1.640604e+10 3.845769e+10 -9.010059e+07
8.162737e+09 3.788423e+10 -4.545423e+09
-5.020751e+10 3.473462e+10 3.637309e+09
-3.644112e+10 1.717187e+10 1.416143e+09
-9.308821e+09 5.539814e+10 -3.423484e+08
-2.230391e+10 7.331109e+10 1.153290e+09
-3.198343e+10 4.258907e+09 3.698022e+08
-2.952820e+10 -2.153064e+09 2.082033e+08
-3.355775e+10 -6.950421e+09 4.232480e+09
-3.012327e+10 -8.977473e+09 -3.802876e+08
-4.772979e+10 2.415378e+10 -5.727890e+08
-1.642414e+10 3.179634e+10 4.505950e+09
1.781678e+10 3.896559e+10 3.719998e+09
-1.735063e+10 4.710884e+10 -3.260501e+09
3.991764e+10 -2.196729e+10 -2.389181e+09
-5.715977e+10 -2.631709e+10 5.434015e+08
-4.179931e+10 4.398451e+10 -2.766797e+09
-3.588452e+10 3.997878e+08 3.690833e+09
-2.542336e+10 -2.157533e+10 1.087864e+08
-5.814528e+10 -2.909437e+09 -2.617309e+08
4.692244e+10 2.478265e+10 1.497303e+09
2.573973e+10 1.664345e+10 1.080033e+09
-1.759372e+10 -5.043057e+10 8.226874e+07
-2.458952e+09 4.418872e+10 2.087646e+08
2.752824e+10 2.179816e+10 3.270366e+09
2.417134e+10 3.657611e+10 -6.708583e+08
1.239850e+10 -5.135034e+10 2.078931e+09
-3.479628e+10 -5.221654e+10 3.437870e+09
-3.709302e+10 2.368398e+09 -1.593256e+09
-1.032282e+10 -4.574151e+10 -5.640730e+09
2.021943e+10 -2.709674e+10 -1.711641e+09
-1.162076e+10 4.155848e+10 1.693496e+08
-1.115358e+10 4.468002e+10 -1.137125e+09
8.467225e+10 -3.717659e+09 -2.935402e+09
-5.985570e+08 -4.532276e+10 2.256882e+09
2.341852e+10 5.533451e+10 8.284056e+08
3.836407e+10 -3.706720e+09 1.156149e+09
3.148873e+10 5.382160e+10 -4.279233e+08
5.442752e+10 -6.341423e+10 -4.886774e+09
-3.469958e+10 -6.168376e+09 3.305011e+09
4.265116e+10 -1.197684e+10 -8.586260e+08
-3.920597e+10 4.591996e+10 2.951363e+08
3.337748e+10 -4.750136e+10 -4.466878e+08
3.044700e+10 -4.115837e+10 -7.641357e+07
-7.689423e+10 3.432849e+10 4.157696e+09
-3.896817e+10 -4.558271e+10 1.192433e+09
-2.328042e+10 2.303814e+10 1.039268e+09
-2.335911e+09 4.703618e+10 4.474405e+09
4.163728e+10 1.723643e+10 7.013067e+09
3.353623e+09 -6.830394e+10 -4.940321e+09
-3.182163e+10 -5.385095e+09 -2.934036e+09
-9.412635e+09 -4.746638e+10 1.664910e+08
-2.925169e+10 1.864454e+10 -1.154388e+09
-3.388563e+10 3.859432e+09 6.463329e+08
-2.913901e+10 -1.617234e+10 -7.220351e+08
-4.409794e+10 4.059289e+10 -1.343950e+08
-4.669412e+10 1.332165e+10 3.434347e+09
-9.413686e+09 -8.169702e+10 -2.327468e+09
-5.097044e+10 -3.520824e+10 8.555634e+07
-4.140187e+10 -2.234525e+10 2.352926e+09
-4.333713e+10 5.196653e+10 -3.706872e+09
-3.248061e+10 -5.844445e+09 1.255806e+08
3.044057e+10 -2.931687e+10 6.028328e+08
-1.330613e+10 -5.844586e+10 -2.346286e+09
6.443080e+10 4.155518e+10 2.516484e+09
-2.834249e+10 1.601828e+10 -2.437220e+08
-2.630956e+10 -2.256212e+10 1.081049e+09
1.675273e+10 4.060892e+10 -5.003320e+08
3.456385e+10 -7.118169e+09 -1.019656e+08
3.257153e+10 -1.033367e+10 -7.116775e+08
-7.235854e+09 4.936400e+10 3.265713e+09
-2.097761e+10 4.442902e+10 -1.231813e+09
-3.035993e+10 -8.176269e+09 -1.204550e+08
3.606998e+10 -1.742124e+09 6.454184e+08
3.346390e+10 2.988819e+10 -8.132593e+08
1.173216e+10 -5.881666e+10 3.587523e+08
5.236715e+10 -3.808503e+10 -1.403211e+09
1.478006e+10 2.861069e+10 -5.673313e+07
3.402549e+10 -5.230762e+10 -4.339789e+09
-5.745116e+10 -4.553456e+09 6.948933e+08
6.538457e+10 3.726897e+10 6.134646e+09
7.969197e+09 -5.989620e+10 2.352391e+09
-1.604146e+10 3.426124e+10 -2.075228e+09
-3.473769e+10 -8.503722e+09 -1.867594e+09
-2.088026e+10 -3.239225e+10 1.304017e+09
2.940517e+10 -1.564077e+10 -3.733361e+08
6.730710e+10 -1.130146e+10 1.702804e+09
5.448371e+10 -5.614906e+10 2.747202e+08
-5.368705e+10 1.866341e+10 -2.230293e+08
1.451452e+10 3.010760e+10 -1.216655e+08
5.583197e+10 1.355831e+10 -4.104336e+08
1.223921e+09 -3.858062e+10 2.688008e+09
-2.949320e+10 -3.266805e+10 1.636575e+09
3.235608e+10 -3.750389e+10 2.903800e+09
-4.302352e+10 -1.692001e+10 6.747385e+08
3.868318e+10 3.090561e+10 -3.740597e+09
3.381635e+10 -6.385805e+08 -1.894165e+09
4.099619e+10 4.539975e+10 -7.942829e+08
8.590929e+10 -7.613017e+09 -7.472632e+08
1.290109e+10 3.122434e+10 3.079577e+09
-4.337923e+10 -1.083351e+10 -9.593227e+08
1.965194e+09 6.687853e+10 -4.285520e+09
4.481977e+10 -4.384465e+10 4.133376e+09
-1.778952e+10 3.529279e+10 3.391778e+09
1.039543e+10 -3.215833e+10 3.117535e+08
-3.040147e+10 -1.804336e+10 2.824251e+08
6.727251e+10 1.954636e+10 -2.432669e+09
2.958692e+10 -5.415267e+10 -1.271366e+09
-1.510674e+10 -5.820679e+10 -1.100456e+09
-3.272922e+10 8.526334e+09 1.252044e+08
5.008392e+10 -3.221432e+10 9.031054e+08
-6.497555e+10 2.257188e+10 3.757643e+09
1.181158e+10 5.313803e+10 -8.514521e+06
5.595943e+10 1.327362e+10 -1.142363e+09
1.584496e+10 -6.934276e+10 8.868759e+08
-4.044537e+10 -4.972813e+10 -1.421411e+08
-2.808089e+10 -1.553638e+10 2.047613e+08
-5.455607e+10 -1.845541e+10 -6.034188e+09
-3.095399e+10 -4.842551e+10 2.236486e+09
-6.160151e+10 2.060655e+10 2.016014e+09
2.658420e+10 4.281417e+10 -4.258119e+08
-1.996116e+10 2.899291e+10 -8.548556e+08
5.871322e+10 6.280517e+09 -2.156306e+07
5.841646e+10 3.191033e+10 4.087513e+09
5.307447e+10 -7.911659e+09 -7.554632e+08
-1.923268e+10 -6.186279e+10 1.906211e+08
-1.132661e+10 -3.925182e+10 2.929468e+08
-2.728390e+10 -1.676346e+10 -1.228389e+09
4.350454e+10 -1.759106e+10 -4.120663e+09
-1.566299e+10 3.595665e+10 1.335655e+09
4.233893e+09 6.545643e+10 9.441777e+08
-1.924647e+10 3.688955e+10 4.131336e+09
-4.098269e+10 -8.040726e+09 -1.395901e+09
-2.737358e+10 -4.353599e+10 2.309723e+09
-6.482669e+10 -2.046554e+10 -3.533975e+09
1.059431e+10 5.482391e+10 -9.905140e+08
-3.265411e+10 -2.017860e+10 -1.500921e+09
3.051329e+10 1.359259e+10 -3.476335e+09
-2.595960e+10 -1.895362e+10 -5.874710e+08
7.159421e+10 -1.137344e+10 -1.355218e+09
4.085089e+10 -1.209111e+10 -5.531634e+09
4.335638e+10 2.876035e+10 1.927740e+09
-3.581059e+10 -3.558656e+10 -4.278063e+08
-6.356097e+10 5.313783e+09 2.260234e+09
-4.892000e+10 -3.146747e+10 -2.419477e+09
4.522097e+10 -1.699542e+10 -1.987965e+09
3.750292e+10 -1.121338e+10 -6.360485e+07
-4.766368e+10 -3.395857e+10 8.367054e+08
1.374972e+10 3.167519e+10 -2.001444e+09
-2.503068e+10 -1.870251e+10 -1.111337e+09
5.306499e+10 8.105198e+09 -7.884961e+09
-3.563481e+10 -4.157839e+10 -4.099446e+09
2.325463e+10 -1.929552e+10 -1.325280e+09
-1.619977e+10 -3.367716e+10 1.881535e+09
-2.030586e+10 3.233409e+10 4.492808e+08
3.025059e+10 -2.103099e+10 5.030740e+08
-2.923059e+10 -3.552608e+10 5.578536e+08
-7.056647e+10 -2.536462e+10 2.076810e+09
-2.323887e+10 -5.016632e+10 7.974961e+08
2.485039e+09 -3.639910e+10 -1.328182e+09
-2.461501e+10 -2.134936e+10 8.297030e+08
2.209204e+10 -2.397520e+10 8.365954e+07
2.684639e+10 -2.307134e+10 1.449803e+09
1.933013e+09 3.502092e+10 6.886915e+08
-3.988440e+10 2.485389e+10 -7.339079e+08
4.797637e+09 4.970534e+10 4.548160e+09
-5.747985e+10 3.185469e+10 -2.723370e+09
7.013819e+10 1.864482e+10 1.088470e+08
1.515575e+10 5.338039e+10 9.412760e+08
-2.782450e+10 -2.827432e+10 7.569902e+08
3.818066e+10 5.477853e+09 1.069785e+09
-2.703196e+10 -2.479438e+10 -9.808133e+08
-1.758829e+10 4.465776e+10 -1.618366e+09
3.857703e+10 1.842129e+10 -3.810478e+08
2.907203e+10 5.707617e+10 4.267564e+09
2.936958e+10 2.574477e+10 -2.320553e+09
3.582447e+09 -3.505982e+10 -5.877111e+09
-1.404467e+10 -9.022895e+10 -5.350299e+09
-3.191014e+10 2.883007e+10 2.550334e+09
3.000123e+10 -3.438499e+10 -3.501186e+09
-5.648416e+10 -1.357693e+10 -1.576077e+09
-4.086075e+10 -3.217611e+09 -9.746498e+08
-2.457136e+10 -2.473918e+10 1.291737e+09
-1.781667e+10 -2.658135e+10 4.313442e+08
-3.343989e+10 4.133558e+10 9.579307e+08
-1.490556e+10 3.065108e+10 -2.171228e+08
-7.678644e+10 -3.085602e+10 -2.888163e+09
1.036299e+10 5.937627e+10 2.904171e+08
5.343585e+10 3.878281e+10 -3.100221e+08
3.479034e+10 -3.180152e+09 1.206207e+09
-3.267939e+10 -1.217147e+10 -4.997126e+07
6.039010e+10 2.157120e+10 -2.572991e+09
8.141590e+07 -4.078741e+10 4.671202e+09
-3.136583e+10 -3.800704e+10 -2.768942e+09
-2.112074e+10 3.562638e+10 -1.339688e+09
5.451534e+09 3.601610e+10 -1.486353e+09
-5.655626e+09 5.460653e+10 3.360048e+09
-8.915273e+09 4.097339e+10 1.276839e+09
6.692178e+08 -4.748997e+10 -2.869321e+09
-5.991928e+10 -5.099949e+09 8.148282e+09
5.836049e+10 -3.416174e+10 -2.826459e+09
-5.443262e+10 -3.914444e+10 9.787777e+08
-5.069564e+10 -1.117867e+10 2.692688e+09
-7.837131e+09 -6.210703e+10 5.341452e+08
-1.777143e+10 -3.159010e+10 -2.739611e+09
5.846427e+10 -6.243140e+10 -5.229557e+08
-1.158234e+10 6.139107e+10 5.501746e+09
-6.300417e+10 -7.571343e+09 4.268400e+08
-4.203284e+09 3.673054e+10 1.630447e+09
-4.033925e+10 4.839632e+10 4.665406e+08
-3.907824e+10 -2.026452e+10 1.834497e+09
6.394981e+10 1.288195e+10 1.289557e+09
-4.516921e+10 4.373908e+10 -4.575758e+08
-2.253452e+10 -3.187432e+10 1.107732e+08
2.004579e+10 4.907171e+10 -1.771745e+09
-1.645680e+10 -2.714272e+10 7.756772e+08
-2.199685e+10 2.817159e+10 1.062846e+09
-1.004978e+10 -4.897061e+10 -5.745636e+09
-3.306029e+09 -5.159071e+10 1.021516e+09
-1.635540e+10 -3.060935e+10 -1.152230e+09
-3.124593e+10 -1.450630e+10 9.790270e+08
1.337346e+10 -3.263562e+10 -2.974956e+09
3.757284e+10 -4.071746e+09 -9.726698e+08
-1.434446e+10 3.206971e+10 -7.522521e+07
1.849947e+10 -4.095221e+10 -1.529768e+09
1.162195e+10 3.314858e+10 -1.201236e+09
-1.602411e+10 -2.869096e+10 -4.329451e+08
3.879048e+10 -4.769987e+10 3.196059e+09
3.932000e+10 4.340080e+10 -1.989074e+09
1.590838e+10 2.959057e+10 -8.044473e+08
4.470095e+10 5.407202e+09 -2.086782e+09
2.162501e+09 -3.855860e+10 -3.492035e+08
-4.946930e+10 4.077405e+10 1.466350e+09
-3.569539e+10 -5.847727e+10 -1.374413e+07
2.281236e+10 -3.831191e+10 -7.017309e+08
-4.573763e+10 -1.536249e+09 1.300852e+09
4.384731e+10 2.594033e+10 -5.933814e+09
-1.425677e+10 -3.047664e+10 -3.364640e+08
3.581593e+08 4.159779e+10 1.294613e+09
1.029731e+10 -5.038558e+10 8.292915e+08
-4.669649e+10 3.771142e+10 -1.293646e+08
3.281019e+09 4.092714e+10 -4.200116e+09
-4.684097e+10 -5.108969e+10 1.357897e+09
-3.960434e+10 5.556588e+10 -6.265940e+08
-2.148878e+10 -2.465632e+10 -8.357369e+08
-4.350778e+10 5.575481e+10 1.448145e+09
-3.228178e+09 3.822834e+10 2.058517e+09
4.672399e+10 -5.521829e+10 -9.602005e+09
-1.437533e+10 -3.146934e+10 -7.410011e+08
8.990149e+09 5.715545e+10 -1.831765e+09
3.634015e+10 -5.905434e+10 -6.319047e+09
-1.824320e+10 -2.742045e+10 -1.050344e+09
7.686286e+10 -2.888702e+10 -2.540811e+09
4.933660e+09 4.358633e+10 5.770861e+09
-5.493681e+10 1.667960e+10 -2.220747e+09
5.507028e+10 7.233560e+09 -2.009236e+09
2.596314e+10 -5.700970e+10 2.682252e+09
2.073496e+10 2.600570e+10 -1.500617e+09
2.024785e+10 2.751430e+10 -9.539028e+08
-7.673051e+09 -2.961447e+10 -1.192914e+08
1.370674e+10 -3.561847e+10 3.406175e+09
-4.364470e+10 1.090187e+10 -1.539231e+09
4.856062e+10 1.753954e+09 8.018021e+08
2.164286e+10 3.392645e+10 -3.882412e+09
2.788492e+10 3.125332e+10 -7.764393e+08
2.262331e+10 3.709200e+10 -5.924875e+08
7.055494e+10 4.220635e+09 7.129129e+09
5.166720e+10 2.383521e+10 -1.979221e+09
-5.331455e+10 -7.928282e+09 -6.382214e+08
-7.850538e+10 2.543103e+10 1.100483e+09
-9.870123e+09 -2.948154e+10 -3.755640e+08
1.106086e+10 4.204608e+10 -2.307892e+09
8.376725e+09 -4.864203e+10 -5.691579e+09
2.370254e+10 3.721048e+10 1.804822e+09
-1.330616e+10 -7.473954e+10 -1.591408e+09
-3.015369e+10 -4.057099e+10 5.480124e+08
1.468587e+10 -6.514155e+10 -5.725327e+09
3.116924e+10 -3.408139e+10 -6.793328e+09
-7.329683e+09 -3.776382e+10 -1.815104e+09
-2.534802e+10 4.477882e+10 1.866582e+08
5.075461e+10 -1.169189e+10 7.504628e+08
-1.312767e+10 -3.500057e+10 -3.496592e+09
3.078583e+10 4.355860e+10 -1.698711e+09
3.068749e+09 3.219302e+10 7.541593e+09
6.533884e+10 8.500334e+09 3.175540e+09
-1.179690e+10 -3.902006e+10 -9.368091e+08
1.195224e+10 -5.219075e+10 -1.587246e+09
-6.402359e+10 -1.903279e+10 -5.599730e+09
1.201790e+10 6.189927e+10 4.786542e+09
3.276314e+10 -6.252564e+09 -1.647837e+09
-3.010498e+10 2.254539e+10 -2.720223e+09
3.712573e+10 -8.281417e+09 3.445689e+09
-9.024677e+09 -5.086229e+10 5.753333e+08
-4.347317e+10 -2.516421e+10 2.262522e+08
-3.689654e+10 4.202215e+10 -6.436143e+09
5.290941e+10 2.798877e+09 -6.076864e+08
1.942123e+10 3.027002e+10 1.416302e+08
-6.662358e+09 4.598642e+10 8.731394e+08
3.141862e+10 3.636264e+10 -6.604466e+09
-7.423371e+09 -5.955784e+10 3.039247e+09
-1.287597e+10 6.508415e+10 -3.705711e+08
5.034551e+10 -5.231726e+10 3.111979e+09
-3.251700e+10 -4.304545e+10 -4.598624e+08
-4.564316e+09 -3.785592e+10 1.776430e+09
1.557223e+10 -5.185996e+10 1.764761e+08
-3.832377e+10 -2.822252e+10 -1.582816e+09
2.396335e+10 6.443620e+10 -3.797946e+08
-6.290243e+10 7.711687e+09 -7.519019e+08
-1.469741e+10 4.243001e+10 1.157705e+09
3.040701e+10 -3.970465e+10 -1.575812e+08
-2.972546e+10 -2.802321e+10 -2.582511e+09
5.019527e+10 -1.904605e+10 9.554241e+08
2.941432e+10 -2.829924e+10 1.108844e+09
-1.337321e+09 3.684210e+10 4.000641e+08
-1.863915e+09 -4.700930e+10 -3.676032e+08
7.410458e+10 -4.077749e+10 2.679835e+08
6.056923e+10 2.849972e+10 -7.170303e+09
-8.664523e+09 3.270192e+10 1.210807e+09
-4.295703e+10 -3.240156e+10 -1.645984e+08
3.544349e+10 -5.245586e+10 1.896440e+09
-6.283386e+10 -6.231091e+09 8.210777e+08
-1.326923e+10 7.447627e+10 1.010312e+10
4.908730e+10 2.830422e+09 -4.624064e+08
-4.053340e+10 1.529180e+10 2.694864e+09
4.224918e+10 -1.418423e+10 1.462735e+09
4.509795e+09 -4.273054e+10 2.290225e+08
-3.993624e+10 -1.859723e+10 -3.109015e+08
3.211532e+10 -2.181179e+10 4.353366e+08
3.037833e+10 -2.966385e+10 -2.064948e+09
-3.165463e+10 3.463944e+10 -8.357030e+07
-3.518157e+10 3.365768e+10 2.868517e+08
-3.781523e+10 2.546301e+10 3.017262e+08
2.819125e+10 -2.817882e+10 2.519889e+09
-2.621022e+10 -3.951126e+10 9.715959e+08
-4.562997e+10 -1.306550e+10 1.049861e+09
-4.215859e+09 3.840229e+10 4.466506e+08
1.081365e+09 -3.959755e+10 3.747770e+09
-9.875713e+09 -4.229610e+10 7.827848e+08
-4.224689e+10 1.209952e+10 -6.102513e+08
2.666744e+10 -3.672337e+10 4.667172e+08
-3.620889e+10 -2.752984e+10 6.197471e+08
5.047065e+09 4.331966e+10 1.904966e+09
4.017788e+10 -2.753183e+09 2.700720e+08
-4.583971e+10 -6.300937e+09 1.599479e+09
2.238816e+09 -3.898287e+10 2.926381e+09
3.771146e+10 1.917079e+10 -4.842104e+09
1.141305e+10 -4.332322e+10 2.682827e+08
-9.506448e+09 -6.186292e+10 2.385149e+09
3.693129e+10 2.869251e+10 -6.734922e+08
2.666439e+10 3.400213e+10 1.300275e+09
1.556207e+10 4.130127e+10 3.718739e+08
4.510719e+10 1.553305e+10 8.406960e+08
3.666031e+10 -1.740955e+10 1.088146e+09
-3.254953e+10 -3.453407e+10 2.643207e+08
-1.682569e+10 4.015157e+10 -1.027365e+08
-3.754778e+09 -3.736011e+10 -1.780033e+09
-2.562018e+10 3.868668e+10 -6.899811e+08
2.087779e+10 4.115229e+10 -3.414652e+08
-9.607939e+09 -7.393297e+10 3.885341e+08
4.857415e+10 1.063942e+10 1.031580e+09
4.184804e+10 -3.171123e+09 3.127916e+06
-1.485737e+10 -4.445076e+10 -6.099941e+08
2.592291e+09 4.808149e+10 -1.743377e+09
3.413189e+09 -4.123915e+10 -2.125168e+09
-4.763159e+10 4.687672e+09 1.593406e+08
4.025502e+10 1.799771e+10 2.584179e+09
3.697707e+10 2.704665e+10 1.859324e+08
-1.234486e+10 4.443958e+10 7.938877e+08
9.445186e+09 4.215477e+10 -1.436917e+09
-1.653159e+08 -6.682591e+10 4.796738e+09
2.013947e+10 -4.223011e+10 1.069427e+09
-2.511216e+10 -3.741029e+10 -2.589715e+08
-4.721418e+10 -9.220090e+09 -8.073805e+08
3.183637e+10 3.535214e+10 -1.847105e+09
-3.978801e+10 -2.501258e+10 -2.460200e+08
-4.113978e+10 2.473703e+10 -1.754823e+09
-5.623302e+09 4.172058e+10 1.081539e+09
-1.799155e+10 -4.378728e+10 6.096298e+08
3.599776e+10 -2.613048e+10 -1.277928e+09
1.533600e+10 -4.242172e+10 4.841638e+08
-1.478396e+09 -6.910437e+10 3.059998e+09
-4.503491e+10 1.493145e+09 -7.441747e+08
1.999245e+10 4.543113e+10 5.734833e+08
-4.476783e+10 8.693383e+09 1.011314e+08
4.337914e+10 -1.030854e+10 -5.007180e+08
2.362346e+10 -4.057974e+10 -5.477189e+08
-2.303371e+10 3.939226e+10 4.772277e+08
-3.133504e+10 -3.117707e+10 3.486176e+08
-4.110576e+10 -2.791294e+10 -2.134658e+09
4.302860e+10 7.397719e+09 1.121498e+08
1.043101e+10 -4.797071e+10 -2.089762e+08
4.715460e+09 -5.749044e+10 4.639265e+09
4.677312e+10 -1.693206e+10 2.472371e+08
-3.027186e+10 3.816425e+10 -3.955302e+08
2.335467e+10 3.796142e+10 -6.263741e+08
5.785925e+08 4.487445e+10 1.501600e+09
-3.511785e+10 -1.416706e+10 -1.553816e+08
-1.942062e+10 -3.696361e+10 6.214710e+08
-1.000747e+10 -5.651089e+10 9.575699e+08
-3.446360e+10 2.948993e+10 2.962357e+08
-3.825672e+10 2.045376e+10 6.479560e+08
-1.153763e+10 5.612976e+10 1.716911e+09
3.479191e+09 -4.251654e+10 1.330927e+09
-4.256695e+10 1.471660e+10 -4.970590e+08
-3.583254e+09 -5.944665e+10 -6.823553e+08
3.399731e+10 -4.458340e+10 -7.182534e+08
-2.031932e+09 -3.822963e+10 -6.507219e+08
-5.496115e+10 -2.008111e+10 -9.018393e+08
-8.297345e+09 -4.017945e+10 7.026099e+08
-4.676892e+10 -2.630561e+09 7.690936e+08
4.110476e+09 -5.325935e+10 -3.942082e+08
3.417083e+10 -1.778886e+10 -7.197048e+08
-1.322732e+10 5.719053e+10 -2.309010e+09
2.479131e+09 -4.040265e+10 -2.494935e+09
-1.103080e+10 3.610452e+10 -6.535824e+08
3.046672e+10 3.063485e+10 -4.053872e+08
3.714342e+10 8.235388e+09 -8.485165e+08
4.316199e+10 -3.329614e+10 -7.043773e+08
2.392053e+10 -3.146013e+10 -1.397939e+08
5.269659e+10 -2.771950e+10 -5.155398e+08
3.932351e+10 2.471446e+10 2.447661e+08
4.148305e+10 -4.353817e+10 -2.607331e+08
-2.724710e+10 3.485636e+10 2.092082e+08
4.009811e+10 -1.592536e+10 1.000144e+08
6.649235e+10 -5.172509e+09 2.227722e+09
1.014836e+10 -4.586622e+10 -4.344690e+08
-4.986442e+10 1.730885e+10 4.255704e+08
8.742248e+09 5.083720e+10 4.715178e+08
5.140914e+10 2.534701e+10 8.079741e+08
-2.678275e+10 -3.061420e+10 -2.129848e+08
6.155889e+10 -5.289161e+09 -3.422833e+08
-4.908667e+10 -2.654880e+10 1.026956e+09
4.762760e+10 -5.447894e+10 1.338093e+08
1.697131e+10 -3.655516e+10 -1.580595e+09
3.527006e+10 -7.207419e+09 1.781290e+09
-2.590576e+10 -3.919447e+10 3.276437e+09
-1.301800e+10 -6.803147e+10 1.045574e+09
-4.382100e+10 3.278792e+09 -1.228145e+09
-2.935602e+10 1.796572e+10 -1.019649e+09
-1.656667e+10 3.353820e+10 4.844125e+09
-1.646925e+08 5.247283e+10 2.783186e+09
-4.336800e+10 5.071023e+10 -5.546732e+08
1.713306e+10 3.411366e+10 2.216280e+09
3.732603e+10 2.523307e+10 1.325999e+09
-4.926086e+10 1.785984e+10 -2.587605e+07
5.883387e+10 -3.614331e+10 1.756045e+09
1.715194e+10 -4.070338e+10 -9.687997e+08
-6.804057e+10 2.055385e+10 2.726026e+09
4.206052e+10 4.450337e+10 -2.995767e+08
-5.325220e+10 -3.762961e+10 -1.104301e+09
9.466695e+10 -3.548583e+09 1.429407e+08
1.650809e+10 5.777598e+10 4.149334e+09
6.551696e+10 2.343702e+10 -2.232174e+09
4.923958e+10 -5.210714e+10 1.176845e+09
4.189724e+09 -6.572881e+10 2.609321e+09
1.010416e+10 -4.075149e+10 3.446257e+09
-6.141241e+10 -1.328671e+10 -1.991919e+08
-1.515403e+10 6.993273e+10 -4.866368e+08
-2.627447e+10 5.431550e+10 2.277678e+09
-1.156681e+10 -6.776117e+10 -3.290254e+09
-5.096283e+10 2.957634e+10 6.437470e+08
3.003496e+10 5.177300e+10 -5.501431e+08
4.711602e+10 3.521245e+10 6.441954e+09
-5.846702e+10 1.241849e+10 -3.817555e+07