# vtk DataFile Version 2.0
Electric current density generated by TTH
ASCII
DATASET UNSTRUCTURED_GRID
POINTS 9848 double
1.520000e-05 -3.722926e-21 -4.898587e-23
1.515794e-05 1.129930e-06 -4.898587e-23
1.038678e-05 1.109751e-05 -4.898587e-23
1.066218e-05 -1.040097e-05 1.702466e-07
-1.399944e-05 5.131817e-06 1.788020e-07
-1.351278e-05 -6.218902e-06 1.562441e-07
-1.351414e-05 -6.291291e-06 -1.769520e-07
-1.350873e-05 6.218705e-06 1.531565e-07
-1.351768e-05 6.289443e-06 -1.782111e-07
1.370550e-05 -5.810211e-06 -1.644737e-07
1.380405e-05 -5.382948e-06 -7.948574e-08
-1.451471e-05 -3.358007e-06 1.720843e-07
-1.449132e-05 -3.010961e-06 -1.806321e-08
1.029468e-05 1.118300e-05 -4.898587e-23
-1.388896e-05 5.516068e-06 -1.920681e-07
-1.450443e-05 3.355630e-06 1.653865e-07
-1.448945e-05 3.021431e-06 -2.111729e-08
1.095057e-05 1.016466e-05 1.911170e-07
1.120918e-05 9.881237e-06 1.916188e-07
1.134100e-05 9.555605e-06 1.052985e-07
1.095057e-05 -1.016466e-05 1.911170e-07
1.119494e-05 -9.906868e-06 1.933901e-07
3.713896e-06 1.441518e-05 1.642724e-07
4.027577e-06 1.424144e-05 1.220207e-09
1.020188e-05 1.126773e-05 -4.898587e-23
-1.393930e-05 -5.372845e-06 1.904474e-07
-1.373477e-05 -5.643607e-06 1.312014e-07
5.141519e-06 -1.402590e-05 1.903358e-07
5.478397e-06 -1.390931e-05 1.934686e-07
5.830361e-06 -1.366122e-05 1.359975e-07
1.454965e-05 -3.366090e-06 -1.887779e-07
1.454965e-05 3.366090e-06 -1.887779e-07
1.211687e-05 -8.727121e-06 -1.882833e-07
1.540359e-06 -1.485237e-05 1.880978e-07
-1.432328e-05 4.071561e-06 1.675155e-07
1.010837e-05 1.135169e-05 -4.898587e-23
-1.428066e-05 4.430761e-06 1.942087e-07
1.372461e-05 -5.952644e-06 1.959400e-07
1.181109e-05 9.201704e-06 -1.980886e-07
1.140930e-05 -9.572091e-06 1.688779e-07
1.396046e-05 -5.281910e-06 1.859083e-07
-1.374344e-05 5.846565e-06 1.892618e-07
3.675977e-06 -1.436468e-05 -1.013270e-07
3.686166e-06 1.440345e-05 -1.499473e-07
1.015359e-05 -1.093865e-05 1.853204e-07
9.873447e-06 -1.120563e-05 1.891059e-07
1.001418e-05 1.143487e-05 -4.898587e-23
9.611141e-06 -1.144343e-05 1.920298e-07
9.287797e-06 -1.156042e-05 1.041211e-07
1.015359e-05 1.093865e-05 1.853204e-07
9.873447e-06 1.120563e-05 1.891059e-07
9.611141e-06 1.144343e-05 1.920298e-07
9.287797e-06 1.156042e-05 1.041211e-07
1.488624e-05 1.535294e-06 -1.969501e-07
1.488624e-05 -1.535294e-06 -1.969501e-07
1.466782e-05 -2.568155e-06 -1.676561e-07
1.466782e-05 2.568155e-06 -1.676561e-07
9.919304e-06 1.151727e-05 -4.898587e-23
-1.483384e-05 3.206825e-07 -1.163185e-07
-1.490620e-05 -1.317337e-06 -1.967879e-07
-1.490582e-05 1.322079e-06 -1.967946e-07
-1.493106e-05 6.793898e-07 -1.927139e-07
2.077095e-06 -1.482126e-05 -1.971060e-07
1.388574e-05 5.315739e-06 1.506512e-07
-1.484613e-05 -1.883985e-06 -1.969470e-07
-1.484613e-05 1.883985e-06 -1.969470e-07
2.616611e-06 -1.473471e-05 -1.969562e-07
1.245101e-05 -8.291959e-06 1.958398e-07
9.823748e-06 1.159888e-05 -4.898587e-23
1.273839e-05 7.856455e-06 1.971426e-07
1.273948e-05 -7.854677e-06 1.971408e-07
1.211978e-05 -8.776667e-06 1.967188e-07
1.179381e-05 -9.212566e-06 1.969973e-07
1.504393e-06 -1.488795e-05 -1.966901e-07
-1.484111e-05 -3.425878e-07 -1.264647e-07
1.433861e-05 -4.333394e-06 1.989074e-07
1.433861e-05 4.333394e-06 1.989074e-07
-1.494047e-05 -6.798180e-07 -1.950837e-07
1.356983e-05 6.293110e-06 1.955525e-07
9.727522e-06 1.167970e-05 -4.898587e-23
1.439871e-05 -3.454359e-06 5.346043e-08
1.439871e-05 3.454359e-06 5.346043e-08
1.485574e-05 -2.026965e-06 -1.998905e-07
1.485574e-05 2.026965e-06 -1.998905e-07
6.182993e-06 -1.363366e-05 1.977637e-07
6.512487e-06 -1.344747e-05 1.912377e-07
6.838666e-06 -1.330040e-05 1.949933e-07
7.166873e-06 -1.311343e-05 1.920292e-07
2.990847e-07 -1.494327e-05 1.926465e-07
3.231687e-07 1.492232e-05 -1.857339e-07
9.630630e-06 1.175972e-05 -4.898587e-23
1.444261e-05 -3.937408e-06 1.976930e-07
1.444261e-05 3.937408e-06 1.976930e-07
1.275967e-05 7.538661e-06 8.774594e-08
1.275967e-05 -7.538661e-06 8.774594e-08
-8.873476e-07 -1.491157e-05 -1.901312e-07
-8.790798e-07 1.491265e-05 1.903233e-07
-2.091296e-06 -1.477971e-05 -1.861739e-07
-2.077077e-06 -1.466836e-05 7.523809e-08
-3.304035e-06 1.455667e-05 1.861749e-07
-3.277754e-06 1.444754e-05 -7.523534e-08
9.533081e-06 1.183893e-05 -4.898587e-23
-1.114764e-05 9.926907e-06 1.861751e-07
-1.106273e-05 9.853484e-06 -7.523534e-08
-1.262980e-05 7.956225e-06 -1.861768e-07
-1.253560e-05 7.895169e-06 7.523534e-08
-7.332264e-06 -1.301111e-05 -1.891069e-07
-7.267049e-06 -1.290988e-05 7.523534e-08
-7.848376e-06 1.270646e-05 1.891081e-07
-7.791265e-06 1.260045e-05 -7.523534e-08
-5.123034e-06 -1.402102e-05 -1.864532e-07
-5.093783e-06 -1.391083e-05 7.379762e-08
1.514808e-05 1.255206e-06 -4.898587e-23
9.434879e-06 1.191734e-05 -4.898587e-23
-5.073777e-06 1.404664e-05 -1.891081e-07
-5.039637e-06 1.393116e-05 7.523534e-08
-5.655097e-06 1.381423e-05 1.861727e-07
-5.611037e-06 1.371099e-05 -7.523534e-08
-4.451454e-06 1.424848e-05 1.864532e-07
-4.459627e-06 1.412752e-05 -7.523534e-08
-8.366815e-06 1.237121e-05 -1.890987e-07
-8.305322e-06 1.226771e-05 7.523534e-08
-3.897539e-06 1.440843e-05 1.859137e-07
-3.868724e-06 1.430832e-05 -9.140827e-08
9.336033e-06 1.199494e-05 -4.898587e-23
-7.280717e-06 1.303172e-05 -1.864529e-07
-7.242015e-06 1.292243e-05 7.191202e-08
-1.229263e-05 8.466684e-06 -1.859134e-07
-1.218898e-05 8.418431e-06 7.235359e-08
-1.069646e-05 1.041251e-05 -1.864529e-07
-1.064608e-05 1.030223e-05 7.523564e-08
-6.788248e-06 -1.330301e-05 1.890999e-07
-6.727340e-06 -1.319916e-05 -7.523497e-08
-4.495321e-06 -1.423395e-05 1.861754e-07
-4.463077e-06 -1.412643e-05 -7.523497e-08
9.236549e-06 1.207171e-05 -4.898587e-23
-1.029006e-05 -1.081333e-05 1.861751e-07
-1.021387e-05 -1.073089e-05 -7.523497e-08
-9.398076e-06 1.159788e-05 -1.864533e-07
-9.299471e-06 1.153589e-05 8.170861e-08
-1.114787e-05 -9.926647e-06 -1.861751e-07
-1.106513e-05 -9.850782e-06 7.523497e-08
-2.677951e-06 1.468390e-05 -1.858449e-07
-2.677911e-06 1.457065e-05 7.523567e-08
-1.487159e-06 -1.485535e-05 -1.872019e-07
-1.470327e-06 -1.473881e-05 6.815574e-08
9.136433e-06 1.214766e-05 -4.898587e-23
-1.489195e-06 1.486121e-05 -1.893612e-07
-1.468605e-06 1.474158e-05 7.488513e-08
-1.029122e-05 1.081480e-05 -1.868974e-07
-1.021226e-05 1.073183e-05 7.417505e-08
-6.241829e-06 -1.357062e-05 -1.899079e-07
-6.188591e-06 -1.345797e-05 7.010234e-08
-1.194627e-05 -8.953955e-06 -1.871195e-07
-1.183354e-05 -8.912816e-06 7.489182e-08
-1.193092e-05 8.973421e-06 -1.868974e-07
-1.182955e-05 8.914253e-06 6.885558e-08
9.035693e-06 1.222278e-05 -4.898587e-23
-1.324879e-05 6.880629e-06 -1.869553e-07
-1.314355e-05 6.834430e-06 7.417505e-08
-6.777534e-06 1.330166e-05 -1.868974e-07
-6.712447e-06 1.320398e-05 6.885558e-08
-8.359282e-06 -1.234960e-05 1.799671e-07
-8.307076e-06 -1.226707e-05 -7.634976e-08
-3.303674e-06 -1.455355e-05 1.849189e-07
-3.272150e-06 -1.445006e-05 -7.817373e-08
-1.324846e-05 -6.882111e-06 -1.871007e-07
-1.315096e-05 -6.822026e-06 7.628044e-08
8.934336e-06 1.229706e-05 -4.898587e-23
-3.902277e-06 -1.440459e-05 1.849189e-07
-3.620726e-06 -1.455041e-05 1.999139e-07
-4.252496e-06 -1.435708e-05 1.982530e-07
-3.873864e-06 -1.429971e-05 -7.634976e-08
-8.888614e-06 -1.199413e-05 -1.868664e-07
-8.814248e-06 -1.190713e-05 7.486660e-08
-1.261599e-05 -7.951548e-06 1.799669e-07
-1.253503e-05 -7.896943e-06 -7.634976e-08
-9.359365e-06 -1.161166e-05 1.805798e-07
-9.291710e-06 -1.153918e-05 -7.634976e-08
8.832368e-06 1.237050e-05 -4.898587e-23
-1.294924e-05 -7.428743e-06 -1.868974e-07
-1.284989e-05 -7.371748e-06 7.417505e-08
-9.832219e-06 -1.122709e-05 1.849189e-07
-9.643316e-06 -1.148174e-05 1.999139e-07
-1.012598e-05 -1.103059e-05 1.982530e-07
-9.766046e-06 -1.114272e-05 -8.010591e-08
-1.228007e-05 -8.461095e-06 1.799669e-07
-1.251858e-05 -8.252831e-06 1.999139e-07
-1.221687e-05 -8.388796e-06 -8.657118e-08
-2.700425e-06 -1.466622e-05 1.799665e-07
8.729796e-06 1.244310e-05 -4.898587e-23
-3.016337e-06 -1.468760e-05 1.999139e-07
-2.679772e-06 -1.457077e-05 -7.635010e-08
-1.154604e-05 9.455639e-06 1.849186e-07
-1.135935e-05 9.755736e-06 1.982520e-07
-1.146197e-05 9.386789e-06 -7.635014e-08
-1.294046e-05 7.414513e-06 1.806159e-07
-1.285066e-05 7.372187e-06 -7.635014e-08
-7.846979e-06 -1.268129e-05 1.799664e-07
-8.149054e-06 -1.258638e-05 1.999139e-07
-7.793044e-06 -1.259988e-05 -7.635014e-08
8.626627e-06 1.251484e-05 -4.898587e-23
-5.655944e-06 -1.381591e-05 -1.868977e-07
-5.612548e-06 -1.370991e-05 7.417477e-08
-6.219971e-06 1.356584e-05 1.849186e-07
-5.920450e-06 1.375345e-05 1.982521e-07
-6.174685e-06 1.346707e-05 -7.635014e-08
-8.874480e-06 1.200470e-05 1.868977e-07
-8.815009e-06 1.190658e-05 -7.489936e-08
-1.072576e-05 -1.037681e-05 -1.849186e-07
-1.100230e-05 -1.015672e-05 -1.982531e-07
-1.064767e-05 -1.030125e-05 7.635014e-08
8.522869e-06 1.258573e-05 -4.898587e-23
-1.154358e-05 -9.443318e-06 1.806159e-07
-1.146197e-05 -9.386789e-06 -7.635014e-08
-9.835509e-06 1.123084e-05 -1.868977e-07
-9.760046e-06 1.114468e-05 7.417476e-08
-2.093797e-06 1.476524e-05 1.800639e-07
-2.075350e-06 1.466907e-05 -7.635295e-08
8.866674e-06 -1.204655e-05 1.955087e-07
8.526730e-06 -1.226689e-05 1.905547e-07
8.225294e-06 -1.247681e-05 1.920296e-07
7.891864e-06 -1.255312e-05 1.016486e-07
1.513719e-05 1.380396e-06 -4.898587e-23
8.418528e-06 1.265576e-05 -4.898587e-23
8.866674e-06 1.204655e-05 1.955087e-07
8.526730e-06 1.226689e-05 1.905547e-07
8.239735e-06 1.247341e-05 1.934451e-07
7.834880e-06 1.261891e-05 1.359994e-07
7.609784e-06 1.289175e-05 1.977637e-07
7.268124e-06 1.305455e-05 1.912377e-07
6.960392e-06 1.323710e-05 1.949933e-07
6.618839e-06 1.339840e-05 1.920292e-07
5.838153e-06 1.377141e-05 1.954971e-07
5.488741e-06 1.389620e-05 1.910708e-07
8.313612e-06 1.272493e-05 -4.898587e-23
5.143420e-06 1.403109e-05 1.920297e-07
4.712340e-06 1.409091e-05 1.408344e-07
4.446840e-06 1.428640e-05 1.964487e-07
-1.833268e-06 -1.485855e-05 -1.979189e-07
2.136411e-06 1.485184e-05 1.999446e-07
-1.479302e-05 -2.398783e-06 -1.995269e-07
-1.479288e-05 2.399177e-06 -1.995217e-07
[...]
POINT_DATA 9848
VECTORS 10.000GHz_fone_imag double
-4.920799e-05 4.497969e-05 1.069010e-01
8.129734e-04 -7.493912e-04 1.065347e-01
8.920058e-04 -1.405290e-03 1.068027e-01
-6.891769e-02 6.662040e-02 -6.348811e-02
9.468387e-02 -3.439282e-02 -5.376518e-02
8.106484e-02 3.750726e-02 -7.433557e-02
-8.981825e-02 -4.178111e-02 -5.587330e-02
7.718842e-02 -3.659280e-02 -7.586526e-02
-9.063821e-02 4.183959e-02 -5.601564e-02
8.452019e-02 -3.628966e-02 -6.945902e-02
4.080210e-02 -1.607011e-02 -1.066298e-01
9.329246e-02 2.100180e-02 -6.256547e-02
-1.060347e-02 -2.219359e-03 -1.165964e-01
6.699169e-04 1.520213e-03 1.072355e-01
-1.000252e-01 3.977764e-02 -3.460263e-02
8.978197e-02 -2.069415e-02 -6.846738e-02
-1.115818e-02 2.466672e-03 -1.158703e-01
-7.850763e-02 -7.281215e-02 -3.787090e-02
-8.073320e-02 -7.113420e-02 -3.665878e-02
-4.570072e-02 -3.892607e-02 -9.969605e-02
-7.899866e-02 7.253085e-02 -3.774501e-02
-8.051745e-02 7.104708e-02 -3.098238e-02
-2.306565e-02 -8.937160e-02 -6.874551e-02
-4.992692e-04 -6.434653e-04 -1.172946e-01
-1.259750e-03 -3.958402e-04 1.067565e-01
9.973383e-02 3.793867e-02 -3.704525e-02
6.874440e-02 2.807477e-02 -8.868548e-02
-3.612837e-02 1.003127e-01 -3.977443e-02
-3.943962e-02 1.004356e-01 -3.340056e-02
-3.065987e-02 7.118583e-02 -8.637968e-02
1.034875e-01 -2.309830e-02 -4.025415e-02
1.034851e-01 2.309631e-02 -4.025265e-02
8.574969e-02 -6.068430e-02 -4.228639e-02
-1.123078e-02 1.047758e-01 -4.259747e-02
9.110811e-02 -2.681523e-02 -6.411578e-02
8.829155e-04 -7.231668e-04 1.068661e-01
1.035856e-01 -3.239845e-02 -3.060860e-02
-9.996040e-02 4.419030e-02 -2.782393e-02
8.637125e-02 6.706385e-02 -1.837745e-02
-7.292072e-02 6.114503e-02 -6.416776e-02
-9.801386e-02 3.713172e-02 -4.459680e-02
9.814787e-02 -4.206133e-02 -3.985986e-02
1.370518e-02 -5.551764e-02 -1.009963e-01
2.132221e-02 8.213326e-02 -7.834332e-02
-7.095714e-02 7.601688e-02 -4.510606e-02
-7.013511e-02 7.962412e-02 -4.099402e-02
-2.072747e-04 1.216244e-03 1.070591e-01
-6.921844e-02 8.179192e-02 -3.431272e-02
-3.786497e-02 4.719261e-02 -9.860149e-02
-7.095730e-02 -7.601700e-02 -4.510538e-02
-7.013451e-02 -7.962361e-02 -4.099317e-02
-6.921810e-02 -8.179187e-02 -3.430947e-02
-3.786502e-02 -4.719233e-02 -9.860049e-02
1.099200e-01 1.184637e-02 -2.327707e-02
1.099201e-01 -1.184633e-02 -2.327737e-02
9.336805e-02 -1.611968e-02 -6.307986e-02
9.336822e-02 1.611955e-02 -6.307866e-02
-1.790049e-04 -9.050882e-04 1.065425e-01
-6.660867e-02 9.385205e-04 -9.587417e-02
-1.092426e-01 -9.745547e-03 -2.340526e-02
-1.094291e-01 9.676841e-03 -2.342290e-02
-1.084840e-01 4.826313e-03 -3.357984e-02
1.607269e-02 -1.096051e-01 -2.239112e-02
-8.009021e-02 -3.002275e-02 -7.698929e-02
-1.094929e-01 -1.467900e-02 -2.298946e-02
-1.095021e-01 1.467172e-02 -2.299479e-02
1.995604e-02 -1.086588e-01 -2.364313e-02
-9.108973e-02 6.045074e-02 -2.632257e-02
-2.828962e-06 1.843597e-05 1.072148e-01
-9.420152e-02 -5.828484e-02 -2.325969e-02
-9.435111e-02 5.792795e-02 -2.284569e-02
-8.935726e-02 6.505519e-02 -2.454500e-02
-8.692196e-02 6.851106e-02 -2.333587e-02
1.141244e-02 -1.098968e-01 -2.479570e-02
-7.186516e-02 -1.825182e-03 -9.147917e-02
-1.067827e-01 3.219250e-02 -1.490008e-02
-1.067943e-01 -3.215605e-02 -1.493528e-02
-1.092936e-01 -4.943648e-03 -2.873502e-02
-9.848719e-02 -4.605621e-02 -2.798689e-02
4.980439e-04 3.727281e-04 1.065951e-01
-3.202591e-02 6.962096e-03 -1.116689e-01
-3.202332e-02 -6.960964e-03 -1.116612e-01
1.109106e-01 -1.523624e-02 -8.070381e-03
1.109119e-01 1.523623e-02 -8.068769e-03
-4.637793e-02 9.957018e-02 -2.015861e-02
-4.659361e-02 9.640363e-02 -3.822802e-02
-4.910956e-02 9.678232e-02 -2.903045e-02
-5.241668e-02 9.365848e-02 -3.543455e-02
-2.087217e-03 1.076190e-01 -3.515126e-02
1.907639e-03 1.041848e-01 -4.569626e-02
-6.784196e-04 -6.565983e-04 1.065851e-01
-1.062799e-01 2.950677e-02 -2.115509e-02
-1.062570e-01 -2.949057e-02 -2.119412e-02
-4.261917e-02 -2.504661e-02 -1.053331e-01
-4.262924e-02 2.503596e-02 -1.053707e-01
-6.884155e-03 -1.066032e-01 -3.893939e-02
6.633824e-03 -1.068955e-01 -3.796463e-02
-1.411734e-02 -1.030482e-01 -4.475556e-02
5.850388e-03 4.164031e-02 -1.077744e-01
2.341316e-02 -1.010732e-01 -4.458719e-02
-8.989205e-03 4.146164e-02 -1.078097e-01
1.631929e-03 2.868381e-04 1.072273e-01
7.794390e-02 -6.881299e-02 -4.474045e-02
-3.155401e-02 2.846935e-02 -1.078270e-01
-8.781490e-02 5.573512e-02 -4.473824e-02
3.567900e-02 -2.244624e-02 -1.077713e-01
-5.102536e-02 -9.184618e-02 -3.999054e-02
2.058451e-02 3.668859e-02 -1.080366e-01
5.573365e-02 -8.926548e-02 -4.005906e-02
-2.215107e-02 3.587557e-02 -1.080699e-01
-3.528743e-02 -9.872561e-02 -4.367062e-02
1.434685e-02 3.899705e-02 -1.085344e-01
4.940082e-04 5.635487e-04 1.073405e-01
3.788843e-04 5.563600e-04 1.066622e-01
-3.627839e-02 9.873138e-02 -4.003667e-02
1.444868e-02 -3.932141e-02 -1.080479e-01
3.971690e-02 -9.588476e-02 -4.463602e-02
-1.577100e-02 3.938680e-02 -1.078336e-01
3.173790e-02 -9.992963e-02 -4.349075e-02
-1.257201e-02 4.004631e-02 -1.070775e-01
-5.951280e-02 8.661681e-02 -4.004445e-02
2.369236e-02 -3.478170e-02 -1.080929e-01
2.697647e-02 -1.002205e-01 -4.527587e-02
-1.288966e-02 4.986563e-02 -1.028947e-01
5.941290e-04 1.123500e-03 1.069054e-01
-5.178480e-02 9.138188e-02 -4.361963e-02
1.938129e-02 -3.584911e-02 -1.080437e-01
-8.512178e-02 5.893241e-02 -4.451122e-02
3.304760e-02 -2.307216e-02 -1.077902e-01
-7.547569e-02 7.267362e-02 -4.390157e-02
3.004420e-02 -2.926707e-02 -1.071938e-01
4.717648e-02 9.392772e-02 -3.996027e-02
-1.911962e-02 -3.758401e-02 -1.079770e-01
3.091337e-02 9.925107e-02 -4.470404e-02
-1.309853e-02 -4.046481e-02 -1.077809e-01
-1.221479e-04 2.404987e-04 1.067290e-01
7.145268e-02 7.563757e-02 -4.472982e-02
-2.902705e-02 -3.055448e-02 -1.078715e-01
-6.551289e-02 8.176009e-02 -4.383243e-02
2.867002e-02 -3.519787e-02 -1.066139e-01
-7.742933e-02 -6.947253e-02 -4.475680e-02
3.148357e-02 2.804021e-02 -1.078216e-01
-1.889687e-02 1.022412e-01 -4.483356e-02
7.467374e-03 -4.088789e-02 -1.088422e-01
-1.067067e-02 -1.036320e-01 -4.259234e-02
3.483081e-03 3.891390e-02 -1.093157e-01
7.235154e-04 1.021601e-03 1.076934e-01
-9.750720e-03 1.055607e-01 -3.938547e-02
4.567643e-03 -4.348481e-02 -1.079773e-01
-7.223909e-02 7.591532e-02 -4.378162e-02
3.097309e-02 -3.216394e-02 -1.074770e-01
-4.505553e-02 -9.623825e-02 -3.861035e-02
1.815547e-02 3.692295e-02 -1.084358e-01
-8.417043e-02 -6.230463e-02 -4.384267e-02
3.500768e-02 2.599886e-02 -1.077824e-01
-8.358066e-02 6.364908e-02 -4.416732e-02
3.089286e-02 -2.476049e-02 -1.090900e-01
4.679302e-04 2.905234e-04 1.066841e-01
-9.263127e-02 4.828917e-02 -4.379091e-02
3.694207e-02 -1.943873e-02 -1.084945e-01
-4.701584e-02 9.407409e-02 -4.407742e-02
1.729201e-02 -3.571286e-02 -1.090780e-01
5.652292e-02 8.396255e-02 -5.349606e-02
-2.389273e-02 -3.580765e-02 -1.077946e-01
2.308076e-02 1.003242e-01 -4.673931e-02
-9.755125e-03 -4.245603e-02 -1.080716e-01
-9.219162e-02 -4.827775e-02 -4.386873e-02
4.008177e-02 2.085175e-02 -1.070938e-01
-1.281979e-03 -1.011669e-04 1.071610e-01
2.750896e-02 1.005444e-01 -4.541304e-02
2.704857e-02 1.081942e-01 -7.957411e-03
3.071190e-02 1.044003e-01 -1.706277e-02
-1.157764e-02 -3.903923e-02 -1.088631e-01
-6.221136e-02 -8.461490e-02 -4.329650e-02
2.582881e-02 3.527026e-02 -1.076004e-01
8.564282e-02 5.419629e-02 -5.331532e-02
-3.631671e-02 -2.322137e-02 -1.078893e-01
6.417242e-02 7.896759e-02 -5.261365e-02
-2.621365e-02 -3.356084e-02 -1.069689e-01
-4.996215e-04 -6.308678e-04 1.066950e-01
-9.081486e-02 -5.161355e-02 -4.389489e-02
3.627854e-02 2.142248e-02 -1.084313e-01
6.881095e-02 7.807212e-02 -4.547168e-02
7.188889e-02 8.551836e-02 -8.189011e-03
7.349319e-02 8.034638e-02 -1.716742e-02
-2.946137e-02 -3.305921e-02 -1.041095e-01
8.357154e-02 5.714543e-02 -5.355026e-02
9.349505e-02 6.169064e-02 -8.186421e-03
-4.013669e-02 -2.721331e-02 -1.054273e-01
1.855092e-02 9.941490e-02 -5.395982e-02
7.744297e-04 -3.085639e-05 1.071728e-01
2.226511e-02 1.095811e-01 -8.012856e-03
-8.534485e-03 -4.046176e-02 -1.093336e-01
8.046458e-02 -6.623339e-02 -4.605127e-02
8.264281e-02 -7.080132e-02 -1.710451e-02
-3.050421e-02 2.691121e-02 -1.078031e-01
8.856411e-02 -5.022077e-02 -5.277637e-02
-3.590419e-02 1.943302e-02 -1.094869e-01
5.345192e-02 8.582644e-02 -5.402859e-02
6.075707e-02 9.391644e-02 -8.007159e-03
-2.273289e-02 -3.456731e-02 -1.093703e-01
9.132401e-05 1.233586e-03 1.071134e-01
-3.967357e-02 -9.702623e-02 -4.428701e-02
1.577768e-02 3.826413e-02 -1.084587e-01
4.326235e-02 -9.486046e-02 -4.610161e-02
4.312576e-02 -9.985002e-02 -1.710320e-02
-1.555167e-02 3.759619e-02 -1.076808e-01
6.296538e-02 -8.399757e-02 -4.406685e-02
-2.609212e-02 3.576106e-02 -1.081451e-01
-7.522185e-02 -7.209397e-02 -4.616348e-02
-7.986781e-02 -7.405127e-02 -1.708671e-02
3.004340e-02 2.768010e-02 -1.084982e-01
-5.538511e-04 -6.859838e-04 1.065966e-01
7.906452e-02 6.392136e-02 -5.285641e-02
-3.236450e-02 -2.525802e-02 -1.091616e-01
-6.840863e-02 7.877294e-02 -4.228992e-02
2.749025e-02 -3.102119e-02 -1.081798e-01
1.444590e-02 -9.970767e-02 -5.427035e-02
-7.121592e-03 4.014111e-02 -1.098985e-01
-6.482628e-02 8.801171e-02 -2.699260e-02
-6.114480e-02 8.735619e-02 -3.709505e-02
-5.917481e-02 8.918179e-02 -3.459442e-02
-3.136860e-02 4.877113e-02 -1.008302e-01
-1.603570e-05 4.755351e-04 1.065182e-01
3.660597e-05 -6.998605e-04 1.078728e-01
-6.483355e-02 -8.801742e-02 -2.700750e-02
-6.116176e-02 -8.738291e-02 -3.695360e-02
-5.960973e-02 -9.008404e-02 -3.383766e-02
-4.059830e-02 -6.597348e-02 -8.633735e-02
-5.495032e-02 -9.520886e-02 -2.003588e-02
-5.209695e-02 -9.352754e-02 -3.812509e-02
-5.095274e-02 -9.571702e-02 -2.924236e-02
-4.656473e-02 -9.638124e-02 -3.592413e-02
-4.227033e-02 -1.007215e-01 -2.672444e-02
-3.937903e-02 -9.967296e-02 -3.660096e-02
-2.232161e-04 4.626449e-04 1.068019e-01
-3.680225e-02 -1.007575e-01 -3.613852e-02
-2.566007e-02 -7.564521e-02 -8.423962e-02
-3.227940e-02 -1.047292e-01 -2.476066e-02
-1.308682e-02 -1.084559e-01 -1.848151e-02
-1.545816e-02 -1.100853e-01 -1.009883e-03
-1.097052e-01 -1.809855e-02 -1.170163e-02
-1.096968e-01 1.817246e-02 -1.176059e-02
-9.083478e-02 5.956340e-02 -1.893286e-02
2.571348e-02 -1.053974e-01 -1.889390e-02
2.341857e-02 -1.086241e-01 -1.285031e-02
-4.487216e-04 -7.321499e-04 1.066973e-01
2.378683e-02 1.083758e-01 -1.550785e-02
-8.993674e-03 -1.111330e-01 -7.444390e-03
-1.005149e-01 4.615459e-02 -1.576164e-02
1.847579e-02 -1.104400e-01 -6.816125e-03
8.833265e-02 6.873058e-02 -6.754103e-03
4.886792e-02 -1.007378e-01 -6.994321e-03
9.837605e-02 -5.317403e-02 -7.848437e-03
8.821088e-02 -6.892926e-02 -7.098256e-03
6.817049e-02 8.869987e-02 -6.868083e-03
9.603277e-02 5.750963e-02 -7.116651e-03
6.154960e-04 -4.792240e-04 1.069182e-01
9.052140e-02 6.473106e-02 -1.157915e-02
6.407860e-02 9.118379e-02 -1.182730e-02
1.751948e-02 1.104100e-01 -6.854755e-03
9.562569e-02 -5.814602e-02 -6.952504e-03
5.634217e-02 9.648134e-02 -6.860082e-03
-7.851820e-02 -7.966981e-02 -7.041646e-03
8.475378e-02 7.307176e-02 -6.936708e-03
1.293964e-02 -1.108980e-01 -7.066396e-03
7.836646e-02 -7.897659e-02 1.634772e-03
7.004347e-02 -7.343803e-02 -5.165935e-02
-8.480287e-05 1.114309e-03 1.073268e-01
7.836678e-02 7.896916e-02 1.636494e-03
7.004322e-02 7.343598e-02 -5.165798e-02
-1.878244e-02 5.431934e-05 -1.154436e-01
9.340172e-02 -5.981938e-02 -1.106404e-02
9.401163e-02 5.953193e-02 -8.787263e-03
9.305546e-04 1.068570e-01 -3.686717e-02
-1.193941e-03 1.070294e-01 -3.661901e-02
-8.463845e-03 1.117014e-01 5.319961e-03
-4.816418e-03 7.971341e-02 -8.331513e-02
6.988155e-03 1.065755e-01 -3.707663e-02
-2.355794e-04 -8.882760e-04 1.067196e-01
6.777562e-02 4.332099e-02 -8.244169e-02
-2.277711e-02 1.092135e-01 -1.051037e-02
-6.772404e-02 8.839212e-02 -1.037901e-02
-5.689783e-02 9.590528e-02 -1.045008e-02
-8.198219e-02 7.574628e-02 -1.046081e-02
4.834745e-02 1.004184e-01 -1.034406e-02
-6.402009e-02 9.115843e-02 -7.505144e-03
-4.038836e-02 1.040120e-01 -1.035649e-02
3.596038e-02 -1.055127e-01 -1.035364e-02
-5.244229e-02 -9.836437e-02 -1.038803e-02
5.168805e-04 1.344684e-05 1.064607e-01
-3.567036e-02 -1.056620e-01 -1.067169e-02
6.078570e-02 -9.344360e-02 -1.030663e-02
-4.233452e-04 1.100659e-01 -1.282305e-02
4.102795e-04 1.101814e-01 -1.294982e-02
1.101594e-02 -8.773425e-02 -7.219904e-02
-6.993162e-02 4.792178e-02 -7.614909e-02
1.020063e-01 4.509091e-02 -1.233586e-02
-7.700301e-03 2.186670e-03 -1.159225e-01
9.750346e-02 -3.241399e-02 -4.718390e-02
3.315997e-02 -1.046899e-01 -2.567560e-02
-3.558863e-04 3.924087e-04 1.074396e-01
3.251990e-02 -1.071454e-01 -8.122898e-03
-1.041868e-01 -3.454057e-02 -2.513930e-02
-1.067798e-01 -3.374141e-02 -8.039663e-03
-5.734689e-02 -4.714226e-02 -8.869801e-02
-2.295731e-02 1.065065e-01 -2.866612e-02
1.079195e-01 -1.765386e-02 -2.942581e-02
1.079714e-01 1.768542e-02 -2.975186e-02
-1.514762e-02 2.687985e-02 -1.126436e-01
-1.343674e-02 -2.795547e-02 -1.118553e-01
-5.508644e-02 -1.323510e-02 -1.024248e-01
1.016866e-04 2.041348e-04 1.067137e-01
4.783561e-02 -8.296262e-02 -6.243213e-02
3.798806e-02 8.246416e-02 -6.856914e-02
1.009021e-01 4.851756e-02 -4.004185e-03
1.013296e-01 -4.838761e-02 -2.942008e-03
6.756871e-04 -1.079768e-01 -3.065794e-02
-6.451477e-04 -1.116935e-01 -3.899065e-03
-6.385622e-04 -1.084183e-01 -3.082845e-02
9.388841e-04 -1.120584e-01 -5.173163e-03
-7.368945e-02 -2.046508e-02 -8.706573e-02
-1.075680e-01 1.540003e-02 -3.047380e-02
1.399768e-04 -5.040172e-04 1.063827e-01
-1.075666e-01 -1.539996e-02 -3.047216e-02
6.819034e-03 -6.134671e-03 -1.164522e-01
6.828008e-03 6.142841e-03 -1.163888e-01
1.052245e-01 3.916938e-02 -4.350689e-03
1.016243e-01 3.359297e-02 -3.779808e-02
-1.076731e-01 2.760924e-02 -1.166165e-02
-1.068258e-01 2.884032e-02 5.513648e-03
8.394268e-03 -1.111972e-01 5.362518e-03
1.063506e-01 3.336315e-02 -1.002051e-02
4.474891e-02 1.031731e-01 3.032981e-03
-1.954211e-04 1.511683e-04 1.069628e-01
-9.106277e-04 -2.781729e-04 1.062731e-01
5.871711e-02 -9.478178e-02 3.299910e-03
8.509472e-02 -6.525423e-02 -3.738686e-02
-1.799286e-02 1.050181e-01 -3.893712e-02
-1.579709e-02 1.028591e-01 -4.408131e-02
1.068744e-01 1.374733e-02 -3.477766e-02
1.068677e-01 -1.371557e-02 -3.477618e-02
3.355525e-02 1.066963e-01 -6.390088e-03
-9.438245e-02 -5.413723e-02 2.186699e-02
-9.434920e-02 5.415696e-02 2.144395e-02
6.530423e-03 1.091112e-01 2.194107e-02
3.894154e-04 -6.546662e-04 1.068917e-01
2.457630e-03 6.796609e-02 -9.287804e-02
6.620765e-03 -1.071260e-01 2.966753e-02
-8.830291e-02 -6.508863e-02 1.714056e-02
-8.811386e-02 -6.690616e-02 -1.959856e-02
-9.097709e-02 -6.083954e-02 1.957624e-02
-1.047529e-01 -1.077363e-02 -4.125584e-02
-1.117000e-01 -7.960470e-03 2.215534e-03
-1.096194e-01 -1.272695e-02 -1.749745e-02
-1.047531e-01 1.077372e-02 -4.125647e-02
-1.117016e-01 7.960627e-03 2.214495e-03
7.769020e-04 7.958341e-04 1.070852e-01
-1.096191e-01 1.272691e-02 -1.749801e-02
1.500937e-02 1.077393e-01 2.103552e-02
1.729011e-02 1.088662e-01 -2.541440e-02
1.126805e-02 1.088208e-01 1.909854e-02
9.962310e-03 1.108152e-01 -2.679746e-03
1.035153e-02 8.572542e-02 -7.549398e-02
1.090265e-01 -6.640914e-03 2.108685e-02
1.090278e-01 6.640344e-03 2.108656e-02
-5.460033e-03 1.083142e-02 -1.157049e-01
-5.704595e-03 -1.050895e-02 -1.156957e-01
-1.133771e-03 4.306153e-04 1.067241e-01
-9.662645e-02 5.010342e-02 1.951354e-02
-9.768379e-02 5.267688e-02 -4.305278e-03
-9.602444e-02 -5.035616e-02 1.933362e-02
-9.794395e-02 -5.261269e-02 -4.433947e-03
-4.120964e-03 1.102994e-01 1.345156e-02
5.170579e-03 1.108777e-01 9.685037e-03
-2.366893e-02 -1.066843e-01 -2.715652e-02
-2.660016e-02 -1.079317e-01 4.909753e-03
1.106622e-01 1.188284e-02 1.188177e-02
1.106413e-01 -1.180116e-02 1.192612e-02
-7.827505e-04 -1.333483e-03 1.065109e-01
8.590737e-02 -7.125634e-02 -1.044269e-02
-5.203873e-03 1.105870e-01 -2.099614e-02
-6.978886e-03 1.052622e-01 -3.776262e-02
9.054093e-03 1.104599e-01 5.078504e-03
1.106246e-01 6.704996e-03 -1.847810e-02
1.108650e-01 -6.500819e-03 -1.762341e-02
-3.159794e-02 9.503657e-03 -1.122102e-01
-6.653224e-02 1.906264e-02 -9.423151e-02
-1.061139e-01 3.242635e-02 -7.354984e-03
-8.998998e-02 -2.068914e-03 6.063040e-02
-1.319123e-04 -1.215247e-03 1.075536e-01
-1.095072e-01 -5.153489e-03 9.215786e-03
-9.000437e-02 2.048933e-03 6.068008e-02
-1.095170e-01 5.154279e-03 9.217953e-03
6.246660e-02 5.624189e-03 -9.783795e-02
1.076851e-01 8.244114e-03 -3.345854e-02
6.255658e-02 -5.482769e-03 -9.784209e-02
1.081452e-01 -7.971115e-03 -3.323918e-02
3.173133e-02 1.065035e-01 3.271236e-03
6.590111e-02 -8.643932e-02 -2.762385e-02
6.590368e-02 8.643978e-02 -2.762260e-02
1.964945e-04 -3.252326e-04 1.062436e-01
8.763295e-02 6.324636e-02 -3.193370e-02
-4.580267e-02 1.794209e-02 -1.060206e-01
4.272893e-02 5.398036e-02 -9.295701e-02
4.272890e-02 -5.398012e-02 -9.295936e-02
1.066406e-01 2.933899e-02 -1.632850e-02
1.066429e-01 2.619226e-02 -2.512039e-02
1.076972e-01 3.005314e-02 -2.142804e-03
1.077116e-01 -3.004467e-02 -2.082945e-03
9.130734e-02 6.231300e-02 5.976646e-03
-2.841147e-02 1.074434e-01 -1.972476e-04
-8.534469e-05 1.786981e-04 1.069926e-01
-2.592144e-02 1.073874e-01 -1.110545e-02
-3.247154e-02 1.062273e-01 7.521496e-03
-9.266938e-03 1.091124e-01 1.696417e-02
-8.686978e-03 -9.809373e-02 -5.476207e-02
-1.146137e-02 -1.107197e-01 5.121877e-04
-1.742664e-03 2.229132e-03 -1.157239e-01
-7.504740e-04 -2.842905e-03 -1.153834e-01
8.976669e-02 -4.750555e-02 -4.884998e-02
9.936993e-02 -5.043628e-02 -1.239323e-02
8.990662e-02 4.772862e-02 -4.912440e-02
7.984582e-04 -4.731651e-05 1.067647e-01
9.918862e-02 5.116870e-02 -1.319086e-02
9.129810e-02 -6.048803e-02 1.266233e-02
-3.382173e-02 1.046726e-01 1.396275e-02
1.048272e-01 3.572359e-02 1.196638e-02
-1.047315e-01 3.624356e-02 -1.289106e-02
-1.052677e-01 3.860447e-02 -4.075031e-03
1.001877e-01 -3.395850e-02 -4.078883e-02
-1.056017e-01 -3.595428e-02 -1.285351e-02
-2.858317e-02 -2.420028e-03 -1.136746e-01
1.107720e-01 2.003474e-03 1.180178e-02
2.010708e-04 9.816390e-04 1.064484e-01
8.733205e-02 -6.569881e-02 1.996638e-02
-9.498910e-02 6.189876e-03 -6.243421e-02
-9.498773e-02 -6.187998e-03 -6.243364e-02
-2.971281e-02 -1.059623e-01 1.440172e-02
1.011819e-01 -4.134201e-02 1.718794e-02
9.980878e-02 -4.478242e-02 1.777078e-02
9.699379e-02 -4.569271e-02 -3.655588e-02
-4.579353e-03 -1.113417e-01 2.998796e-03
1.027434e-01 -3.132588e-02 -3.509264e-02
1.035329e-01 3.140642e-02 -3.313754e-02
-7.319839e-04 4.847996e-04 1.062428e-01
-1.502732e-04 -2.497474e-04 1.072101e-01
1.081800e-01 -2.294692e-02 1.378575e-02
1.017730e-01 -1.891790e-02 -4.722064e-02
1.068413e-01 -2.636779e-02 1.167338e-02
1.612177e-02 3.792430e-02 -1.093911e-01
-9.444949e-03 -2.309007e-02 -1.131239e-01
-8.828766e-03 7.166442e-03 -1.169444e-01
-2.605336e-02 1.925501e-03 -1.145642e-01
-7.788646e-02 7.755087e-02 1.474448e-02
-7.789438e-02 -7.754831e-02 1.475027e-02
1.356181e-03 -8.883682e-03 -1.169052e-01
1.467955e-03 6.362565e-04 1.075049e-01
-1.095810e-01 2.201136e-02 -4.522295e-03
-1.095810e-01 -2.201110e-02 -4.522691e-03
-8.898137e-03 -8.551494e-04 -1.169907e-01
-8.893570e-03 8.723163e-04 -1.170081e-01
2.211078e-02 3.024421e-02 -1.105842e-01
-2.152136e-02 -3.007522e-02 -1.116542e-01
2.210731e-02 -3.023966e-02 -1.105792e-01
-2.153414e-02 3.001459e-02 -1.116236e-01
-2.073317e-03 9.763262e-03 -1.160581e-01
1.078876e-01 2.279742e-02 1.747846e-02
-2.436598e-04 2.139662e-03 1.066675e-01
1.019857e-01 1.892707e-02 -4.713307e-02
-1.085958e-01 1.753949e-02 -2.302813e-02
-1.085953e-01 -1.753942e-02 -2.302714e-02
3.574487e-03 -3.606956e-04 -1.165519e-01
3.011281e-03 4.362338e-04 -1.163726e-01
8.493784e-02 -6.780239e-02 2.142227e-02
-1.060667e-01 -2.377470e-02 -1.936768e-02
-1.060692e-01 2.377656e-02 -1.936912e-02
-7.820428e-03 3.834977e-03 -1.170661e-01
-1.056717e-02 -5.042246e-03 -1.168622e-01
-7.619077e-04 -4.500256e-04 1.071566e-01
1.050864e-01 -2.930907e-02 1.952538e-02
1.018258e-01 -3.942600e-02 1.954109e-02
1.012777e-01 4.061737e-02 2.189096e-02
1.036936e-03 1.063550e-02 -1.170661e-01
9.691222e-02 -4.771252e-02 2.308212e-02
1.134814e-02 1.069282e-03 -1.169476e-01
1.134817e-02 -1.069116e-03 -1.169482e-01
-4.933815e-03 -1.727956e-03 -1.168407e-01
8.493215e-02 7.037028e-02 7.842355e-03