# vtk DataFile Version 2.0
Electric current density generated by TTH
ASCII
DATASET UNSTRUCTURED_GRID
POINTS 1513 double
1.700000e-05 -4.163799e-21 -4.898587e-22
1.468066e-05 8.571941e-06 -4.898587e-22
1.515842e-05 -7.695594e-06 -4.898587e-22
8.226490e-06 1.044182e-05 -1.042360e-06
1.343629e-06 1.678183e-05 7.942412e-07
1.333247e-06 -1.353263e-05 -1.426470e-06
7.379442e-06 -1.402857e-05 -1.809877e-06
-5.128289e-06 -1.294119e-05 1.683502e-06
-2.431991e-06 -1.406635e-05 1.863983e-06
-8.207286e-06 1.034026e-05 8.749460e-07
1.157740e-05 -9.078644e-06 -1.979230e-06
1.571705e-05 -2.877037e-06 1.744452e-06
1.258474e-05 8.304414e-06 -1.998487e-06
1.558393e-05 -6.792718e-06 -4.898587e-22
-6.766870e-06 -1.172656e-05 1.365759e-06
1.714345e-06 1.296592e-05 5.557358e-07
8.024076e-06 1.176048e-05 -1.848776e-06
-3.226736e-06 -1.546987e-05 -1.831801e-06
1.417364e-05 -3.325425e-06 1.950666e-06
-1.930219e-06 1.290787e-05 -4.504821e-07
5.887046e-06 1.200924e-05 -1.165330e-06
-1.673182e-05 1.544890e-06 -8.655693e-07
1.678962e-05 8.741475e-07 8.457789e-07
5.449217e-06 -1.284683e-05 1.705122e-06
1.595572e-05 -5.866426e-06 -4.898587e-22
-1.117678e-05 1.135393e-05 1.769513e-06
1.490659e-05 7.395178e-07 1.998590e-06
-9.950564e-06 1.361155e-05 -7.329755e-07
-1.007284e-06 1.558149e-05 -1.903414e-06
1.480369e-05 8.070608e-06 -7.332853e-07
6.788806e-06 1.231594e-05 -1.766972e-06
-1.338729e-05 8.844005e-06 -1.705397e-06
-1.091252e-05 7.252583e-06 6.329232e-07
-1.423944e-06 -1.319373e-05 1.004138e-06
-8.778644e-06 -1.040957e-05 1.444787e-06
1.627251e-05 -4.919911e-06 -4.898587e-22
-8.549954e-06 1.355090e-05 1.718714e-06
1.380860e-05 -7.440289e-06 1.878849e-06
1.031403e-05 8.944097e-06 1.477425e-06
-1.426169e-05 1.126814e-06 1.875780e-06
-1.112525e-05 -1.154114e-05 1.714226e-06
1.597509e-05 2.064156e-06 -1.665103e-06
-4.898237e-06 -1.505107e-05 -1.820527e-06
-1.127741e-05 9.985030e-06 -1.999021e-06
1.152281e-05 -1.226225e-05 -8.143439e-07
-1.216496e-05 -6.917984e-06 -1.728836e-06
1.653320e-05 -3.956437e-06 -4.898587e-22
1.163555e-05 1.214730e-05 8.272228e-07
6.693575e-06 -1.544321e-05 -8.036784e-07
-8.663146e-06 -1.225440e-05 -1.999987e-06
1.679577e-05 8.613453e-07 -8.339364e-07
-1.225617e-05 -1.154726e-05 -7.861132e-07
7.856171e-06 -1.373622e-05 1.822310e-06
1.536702e-05 -6.814394e-06 -8.504909e-07
1.207980e-05 5.018250e-06 -5.623471e-07
1.679780e-05 -1.519364e-06 -7.187764e-07
1.179521e-05 -1.204089e-05 7.462388e-07
1.673689e-05 -2.979323e-06 -4.898587e-22
6.632479e-06 -1.247389e-05 -1.799674e-06
1.041120e-05 -9.887514e-06 -1.894203e-06
-1.390168e-05 9.487070e-06 -8.060708e-07
1.037403e-05 -1.329056e-05 7.351191e-07
1.403904e-05 -9.245317e-06 8.511787e-07
1.209812e-05 -1.082422e-05 1.574277e-06
-8.295155e-06 1.465097e-05 7.925090e-07
1.306079e-05 -3.392441e-06 1.316247e-06
5.882975e-06 1.579848e-05 -7.394760e-07
-1.315625e-05 -6.953666e-07 8.173025e-07
1.688290e-05 -1.991940e-06 -4.898587e-22
-6.659665e-06 1.476845e-05 -1.599580e-06
-1.396649e-05 -9.422535e-06 -7.653737e-07
8.963304e-06 -1.194109e-05 -1.998804e-06
1.208812e-05 1.059036e-05 -1.689047e-06
-6.109309e-06 -1.486054e-05 -1.691389e-06
-8.667817e-06 -1.215789e-05 1.998822e-06
-3.273232e-06 1.325921e-05 1.482239e-06
1.634300e-05 -4.164125e-06 7.219282e-07
-1.684345e-05 -9.562977e-07 -7.077803e-07
4.422628e-06 1.237773e-05 -7.454638e-07
1.697070e-05 -9.976895e-07 -4.898587e-22
-9.526457e-06 -1.099892e-05 -1.948933e-06
-1.925844e-06 1.459395e-05 1.980369e-06
-1.030341e-05 -1.041991e-05 1.969814e-06
3.071311e-06 1.572159e-05 -1.721069e-06
-6.488272e-06 1.126946e-05 1.229475e-07
-9.742200e-06 1.238525e-05 -1.850919e-06
-1.173402e-05 5.801787e-06 5.932002e-07
8.188662e-06 1.372798e-05 1.740778e-06
9.940057e-06 8.561131e-06 -6.784823e-07
1.647149e-05 -3.610330e-06 7.287294e-07
1.677091e-05 -4.107689e-21 9.294463e-07
-1.543309e-05 1.149069e-06 1.942578e-06
-2.939423e-06 1.580135e-05 1.688165e-06
1.846065e-06 -1.672563e-05 -8.132215e-07
1.485119e-05 5.533748e-06 1.811015e-06
-1.190130e-05 -5.252231e-06 1.865735e-07
1.186267e-05 -7.816169e-06 -1.835715e-06
9.295610e-06 -1.329137e-05 1.585264e-06
-4.271872e-06 1.293234e-05 1.447269e-06
-1.150255e-05 1.233978e-05 -7.107062e-07
-9.607681e-06 -1.091110e-05 1.945958e-06
1.613613e-05 -3.952212e-21 1.645968e-06
-1.077202e-05 -7.423494e-06 -5.675716e-07
-1.496424e-05 -5.281952e-06 1.801308e-06
1.529328e-06 1.601702e-05 -1.676962e-06
5.145431e-07 1.620418e-05 -1.590664e-06
9.101489e-06 1.211831e-05 1.993942e-06
-5.613178e-06 1.254158e-05 -1.553526e-06
-6.457061e-06 -1.322951e-05 1.980472e-06
-1.591702e-05 -1.295541e-06 -1.749216e-06
-1.271167e-05 6.118472e-06 1.789831e-06
-1.342514e-05 1.020202e-05 -7.309061e-07
1.415229e-05 9.418740e-06 -4.898587e-22
1.524107e-05 -3.732986e-21 1.985418e-06
-1.655011e-05 3.164296e-06 -7.601958e-07
7.406267e-07 -1.606921e-05 -1.679290e-06
-1.624486e-06 -1.436287e-05 1.924155e-06
1.359149e-05 6.291212e-06 1.999867e-06
-1.045431e-05 9.776356e-06 1.878406e-06
-5.541357e-06 1.205099e-05 9.930788e-07
1.302158e-05 3.888657e-06 -1.418232e-06
-1.169557e-05 1.046297e-05 1.876220e-06
5.122292e-06 1.608558e-05 6.782974e-07
1.440530e-05 -4.997749e-06 1.984611e-06
1.429079e-05 -3.500234e-21 1.870032e-06
-1.273150e-05 6.186431e-06 -1.812711e-06
1.579360e-05 -5.790091e-06 8.259080e-07
1.245604e-05 -3.725463e-06 7.025636e-08
8.291259e-06 -1.225610e-05 1.989691e-06
1.243494e-05 6.611833e-06 1.777628e-06
1.515297e-05 -5.700030e-06 -1.607753e-06
1.202534e-05 1.178978e-05 -7.822966e-07
-1.560999e-05 -4.109959e-07 -1.902966e-06
1.379912e-05 -9.705617e-06 -7.079028e-07
-1.267525e-05 3.082750e-06 4.206696e-07
1.350298e-05 -3.307276e-21 1.326245e-06
-1.009645e-05 -8.726895e-06 -1.123373e-06
5.834425e-06 1.501583e-05 1.664040e-06
1.441184e-05 5.815500e-06 -1.925454e-06
1.603262e-05 5.171036e-06 7.698164e-07
-1.256127e-05 3.879616e-06 -7.519545e-07
-1.985188e-06 1.613349e-05 1.557101e-06
4.552808e-06 -1.432801e-05 -1.999712e-06
3.537717e-06 1.412270e-05 -1.950787e-06
1.429223e-05 -6.157339e-06 -1.919371e-06
-1.309037e-05 -6.850542e-07 -6.491695e-07
1.305812e-05 -3.198316e-21 4.786313e-07
1.344447e-05 -1.011228e-05 8.226811e-07
1.525636e-05 2.653095e-06 1.940220e-06
1.296249e-05 -6.762629e-06 -1.963666e-06
2.280099e-06 -1.592820e-05 -1.676502e-06
1.979363e-06 -1.312280e-05 1.005669e-06
1.519919e-05 -7.307981e-06 7.228170e-07
1.377787e-05 -2.128912e-06 -1.696856e-06
1.369007e-05 -1.872469e-06 1.613000e-06
7.268276e-06 1.093844e-05 -7.173140e-07
-5.540199e-06 -1.593751e-05 -7.013316e-07
1.305812e-05 -3.198316e-21 -4.786313e-07
-5.755853e-06 -1.168112e-05 -2.973616e-07
1.514212e-06 -1.472303e-05 1.990044e-06
-6.906260e-06 -1.108194e-05 4.773116e-07
1.199076e-05 7.689219e-06 -1.851769e-06
-1.354339e-05 6.937247e-06 -1.988223e-06
1.460102e-05 6.894684e-06 -1.638395e-06
1.375465e-05 3.068044e-06 1.782343e-06
-1.286572e-05 -2.739325e-06 7.698758e-07
-7.231931e-06 1.253206e-05 -1.928236e-06
1.013735e-05 -1.262862e-05 -1.604427e-06
1.350298e-05 -3.307276e-21 -1.326245e-06
5.520563e-06 -1.215334e-05 -1.127953e-06
9.066981e-06 9.411996e-06 5.203856e-07
1.346624e-05 -4.672270e-06 1.855568e-06
1.091786e-05 -1.147514e-05 -1.815443e-06
9.398516e-06 9.258789e-06 -8.573380e-07
-1.554412e-05 6.404699e-06 -8.467845e-07
1.639322e-05 3.810041e-06 8.065554e-07
-1.479069e-05 1.973986e-06 -1.998472e-06
-1.049181e-05 9.420577e-06 -1.786332e-06
8.524557e-06 1.108791e-05 -1.723927e-06
1.429079e-05 -3.500234e-21 -1.870032e-06
9.343627e-06 -1.116134e-05 1.950107e-06
-5.205278e-06 -1.360738e-05 -1.953006e-06
1.359872e-05 -8.629143e-06 1.666689e-06
-8.496468e-07 1.684679e-05 7.140211e-07
4.260953e-06 -1.551314e-05 1.678384e-06
1.038009e-05 -8.060100e-06 7.400932e-07
-1.548398e-05 3.952024e-06 -1.743241e-06
-1.168556e-05 -9.390985e-06 1.999982e-06
-5.955361e-06 1.330852e-05 -1.955452e-06
-1.333719e-05 -1.029931e-05 -7.574691e-07
1.524107e-05 -3.732986e-21 -1.985418e-06
7.773999e-06 -1.140893e-05 1.604299e-06
-1.050865e-05 7.820575e-06 -6.225367e-07
1.099213e-05 -1.132721e-05 1.839956e-06
1.672124e-05 -1.930763e-06 8.015688e-07
1.107842e-05 1.181635e-05 -1.601905e-06
-4.547438e-06 1.547316e-05 1.651857e-06
6.496393e-08 -1.531470e-05 1.975064e-06
5.110831e-06 -1.609793e-05 6.548468e-07
4.119942e-06 -1.636404e-05 -6.967717e-07
-5.896955e-06 -1.242600e-05 -1.564646e-06
1.613613e-05 -3.952212e-21 -1.645968e-06
7.243258e-06 1.331831e-05 -1.993546e-06
-6.156110e-06 1.155409e-05 -5.989050e-07
-7.372837e-06 1.071119e-05 -1.165593e-07
1.090868e-05 7.865989e-06 1.262576e-06
2.432331e-06 -1.278228e-05 -2.155022e-07
-1.676338e-05 1.501869e-06 8.057177e-07
1.251097e-05 3.692050e-06 -4.189524e-07
-1.550518e-05 -3.834163e-06 -1.747802e-06
-1.433362e-05 -1.593426e-06 1.914632e-06
1.373847e-05 9.799575e-06 6.950325e-07
1.677091e-05 -4.107689e-21 -9.294463e-07
3.457185e-06 -1.649761e-05 -7.452703e-07
-1.189110e-05 8.432821e-06 -1.954918e-06
-1.560711e-05 -6.268322e-06 -8.317247e-07
-1.342154e-05 2.368467e-06 -1.456066e-06
-7.319738e-06 1.127598e-05 -1.255850e-06
-7.550023e-06 1.416672e-05 -1.700352e-06
1.178708e-05 -6.452392e-06 -1.248534e-06
-1.088754e-05 -1.193472e-05 -1.632955e-06
-9.970627e-06 1.363900e-05 6.399807e-07
8.096466e-06 -1.478350e-05 -7.466468e-07
1.357513e-05 1.023307e-05 -4.898587e-22
-2.393774e-07 1.299785e-05 1.415877e-08
1.603100e-05 -5.280099e-06 -6.873825e-07
1.439188e-05 1.707442e-06 -1.934621e-06
1.586684e-06 1.632364e-05 1.427722e-06
-7.578411e-07 1.326420e-05 1.030358e-06
1.670828e-05 -2.377802e-06 -6.915726e-07
1.231218e-05 -8.021545e-06 1.976565e-06
1.007224e-05 -9.248522e-06 -1.497463e-06
-1.585828e-05 -5.830598e-06 6.360117e-07
-1.293293e-05 7.756498e-06 1.998376e-06
1.275599e-05 -9.931212e-06 1.624838e-06
-1.300000e-05 0.000000e+00 0.000000e+00
1.491116e-05 -7.273668e-07 -1.998735e-06
-1.077403e-05 1.200709e-05 -1.648632e-06
1.379477e-05 7.457240e-06 -1.880346e-06
-1.299382e-05 -6.287568e-06 -1.918573e-06
-1.589274e-05 2.542978e-06 -1.673677e-06
-4.242583e-08 1.388536e-05 -1.660641e-06
-1.215951e-05 -1.099530e-05 -1.434529e-06
[...]
POINT_DATA 1513
VECTORS 10.000GHz_fone_imag double
9.919419e-04 -3.493401e-04 2.224730e-02
-4.172419e-04 4.085490e-04 2.223688e-02
4.930528e-04 -8.713575e-04 2.416330e-02
1.692024e-02 2.061396e-02 -4.389941e-02
-8.016435e-04 -9.223512e-03 2.165333e-02
1.987724e-03 -3.283734e-02 -3.430592e-02
1.337173e-02 -2.418031e-02 8.571623e-03
1.491006e-02 3.592577e-02 -2.855858e-02
5.761472e-03 3.927988e-02 -1.752273e-02
1.492059e-02 -1.866287e-02 -4.974868e-02
2.860267e-02 -2.181096e-02 -7.808734e-03
-2.583939e-02 3.494342e-03 1.350226e-02
2.874850e-02 1.819954e-02 1.328312e-03
3.718049e-04 6.834846e-04 2.415085e-02
1.457193e-02 2.525206e-02 -3.876027e-02
-1.930593e-03 -1.383914e-02 -5.142644e-02
1.970219e-02 3.010266e-02 -1.751616e-02
-7.231422e-03 -2.840764e-02 9.883874e-03
-3.639640e-02 7.379485e-03 -1.233479e-02
-1.665961e-03 1.222817e-02 -5.508429e-02
1.315958e-02 2.185521e-02 -4.302275e-02
-1.229766e-02 1.544999e-03 2.224303e-02
-1.177608e-02 -2.515766e-04 2.244386e-02
-1.520193e-02 3.177120e-02 -2.580890e-02
-6.451753e-04 1.066578e-04 2.447838e-02
1.958276e-02 -1.987080e-02 1.360066e-02
-3.508618e-02 -2.617148e-03 -4.590362e-03
-5.171721e-03 7.897079e-03 2.298897e-02
-2.344086e-03 3.141053e-02 7.885953e-03
7.793584e-03 5.002169e-03 2.081952e-02
1.924291e-02 3.564123e-02 -2.260894e-02
-2.038156e-02 1.277860e-02 1.472554e-02
1.167341e-02 -8.446008e-03 -4.980795e-02
3.166700e-03 2.283745e-02 -4.577012e-02
2.079610e-02 2.705088e-02 -3.700986e-02
-2.168245e-04 -4.766421e-04 2.456688e-02
1.495765e-02 -2.187667e-02 1.461111e-02
-2.464108e-02 1.442038e-02 8.683713e-03
-2.781483e-02 -2.356977e-02 -3.516731e-02
3.915769e-02 -1.460486e-03 -1.795742e-02
1.887690e-02 1.761977e-02 1.379812e-02
2.502769e-02 3.735463e-03 1.488211e-02
-8.252250e-03 -2.597684e-02 9.662799e-03
-2.509936e-02 2.168246e-02 -4.524025e-04
6.472833e-03 -6.325350e-03 2.171893e-02
-3.079041e-02 -1.760510e-02 -2.494281e-02
9.692825e-04 -2.735625e-04 2.236486e-02
-5.164691e-03 -6.552506e-03 2.183982e-02
3.834668e-03 -9.275334e-03 2.298375e-02
-1.995351e-02 -2.788514e-02 1.129777e-03
9.935684e-03 4.560342e-04 2.102387e-02
-7.710851e-03 -7.364645e-03 2.317292e-02
-1.460757e-02 2.514988e-02 1.149058e-02
8.438961e-03 -3.165428e-03 2.042807e-02
1.713190e-02 6.070392e-03 -4.876947e-02
9.427726e-03 -4.813866e-04 2.302001e-02
-6.857428e-03 7.055523e-03 2.214782e-02
-2.959586e-04 4.486405e-04 2.258078e-02
1.888803e-02 -3.579770e-02 -2.114457e-02
2.944245e-02 -2.787005e-02 -1.539486e-02
-9.271555e-03 7.046155e-03 1.977868e-02
-5.320253e-03 6.721650e-03 2.151953e-02
-9.617482e-03 6.211556e-03 2.227744e-02
-1.647458e-02 1.503570e-02 1.596140e-02
5.018711e-03 -8.109494e-03 2.242748e-02
-3.094740e-02 9.217238e-03 -3.874567e-02
3.603589e-03 9.284388e-03 2.172532e-02
2.288214e-02 5.950934e-04 -4.735726e-02
-6.320974e-04 1.476529e-04 2.394707e-02
-1.007208e-02 2.145416e-02 1.560382e-02
-6.878496e-03 -6.083369e-03 2.197120e-02
2.192091e-02 -2.946632e-02 -2.228140e-03
1.727718e-02 1.479157e-02 1.455695e-02
-9.073854e-03 -2.328067e-02 1.541677e-02
1.929120e-02 3.083314e-02 -1.995771e-03
8.820799e-03 -3.546819e-02 -3.361634e-02
-9.551986e-03 1.629155e-03 2.262076e-02
-9.809449e-03 -8.424367e-04 2.166190e-02
6.477379e-03 1.751786e-02 -5.284869e-02
-1.557220e-03 -7.598905e-04 2.340439e-02
-2.445681e-02 -2.990833e-02 -1.399401e-02
4.292573e-03 -3.906516e-02 -6.860066e-03
2.432618e-02 2.740849e-02 -9.902995e-03
5.555479e-03 2.336134e-02 1.140325e-02
1.659132e-03 -6.445251e-03 -5.150897e-02
-1.776375e-02 2.270421e-02 8.642856e-03
1.235456e-02 -6.756836e-03 -5.333468e-02
-1.342264e-02 -2.303905e-02 1.358954e-02
1.445338e-02 1.263851e-02 -5.299839e-02
-8.693669e-03 1.709350e-03 2.285864e-02
-1.263076e-02 4.854368e-04 2.158825e-02
3.339672e-02 -2.634379e-03 6.282124e-03
4.488119e-03 -2.486765e-02 1.531019e-02
1.170836e-03 -1.061645e-02 2.003807e-02
-2.649552e-02 -9.752625e-03 1.111028e-02
5.122227e-03 2.010270e-03 -5.694639e-02
3.010310e-02 -2.134942e-02 -2.070735e-02
-1.363227e-02 1.990857e-02 1.624666e-02
1.047462e-02 -3.472412e-02 -3.461197e-02
-5.804416e-03 7.230600e-03 2.297505e-02
2.644215e-02 3.021588e-02 -1.101065e-02
-2.500713e-02 -3.656224e-04 1.508851e-02
-1.150977e-02 -5.909297e-03 -5.237454e-02
2.623662e-02 9.594660e-03 8.891374e-03
9.123898e-04 2.567896e-02 1.466086e-02
1.552026e-03 2.329367e-02 1.645400e-02
-2.101333e-02 -2.874524e-02 1.998804e-03
-1.559113e-02 3.359190e-02 -2.983981e-02
1.586496e-02 3.559487e-02 -6.104838e-03
-2.629283e-02 -2.172642e-03 1.379292e-02
3.507010e-02 -1.571864e-02 -2.297626e-02
-5.666011e-03 5.955942e-03 2.139839e-02
-3.416552e-04 5.334565e-04 2.172586e-02
-3.458967e-02 -5.798767e-05 2.751336e-03
-1.016718e-02 6.674047e-04 2.114725e-02
6.114385e-04 -2.564233e-02 1.463949e-02
4.360275e-03 3.801308e-02 -1.108009e-02
-3.232402e-02 -1.580054e-02 -2.408135e-03
2.918087e-02 -2.669500e-02 -1.575097e-02
1.128244e-02 -2.311792e-02 -4.890656e-02
3.328305e-02 1.034776e-02 -3.806083e-02
2.169712e-02 -2.012347e-02 9.780541e-03
-1.417250e-03 -7.080562e-03 2.235031e-02
-3.334813e-02 1.198025e-02 1.991867e-03
-3.764734e-02 -5.380091e-04 -1.403011e-02
-3.355133e-02 1.717532e-02 -1.876757e-02
-1.064346e-02 4.160776e-03 1.977069e-02
-4.332521e-04 2.908855e-04 -5.870743e-02
-1.984259e-02 2.957693e-02 -4.734971e-03
-3.426735e-02 -1.896543e-02 -2.279776e-02
2.262898e-02 -9.322752e-03 1.621505e-02
6.484801e-03 6.981045e-03 2.260588e-02
-3.130726e-02 -3.108891e-04 8.193413e-03
8.215637e-03 -5.712064e-03 2.200251e-02
7.030956e-03 -2.938720e-03 -5.140475e-02
-3.372043e-02 3.613301e-04 -3.969227e-02
-2.085563e-02 -1.843094e-02 -4.025309e-02
-9.541610e-03 -2.180244e-02 1.552845e-02
3.031551e-02 1.261421e-02 7.868340e-03
-9.723867e-03 -4.158167e-03 2.211124e-02
-1.848924e-02 6.023128e-03 -4.943157e-02
4.119454e-03 -2.221174e-02 1.453757e-02
1.064547e-02 -3.213369e-02 -9.959454e-04
9.192095e-03 3.877897e-02 -1.061163e-02
2.978998e-02 -1.322868e-02 7.386235e-03
-1.739829e-02 1.892055e-03 -5.151833e-02
-1.215486e-02 4.232734e-05 -5.618228e-02
-9.100167e-03 7.028621e-03 2.250756e-02
-3.078211e-02 -7.344184e-03 6.274989e-03
3.539771e-02 -1.823986e-02 -9.406249e-03
4.373404e-03 -2.545596e-02 1.530255e-02
-4.779848e-03 2.264931e-02 -4.824295e-02
-8.313755e-03 3.985840e-03 2.260729e-02
3.813754e-02 -6.676201e-03 -2.649993e-02
-3.279384e-02 3.971957e-03 -2.745767e-02
1.138837e-02 1.597657e-02 -5.205324e-02
-2.819531e-03 -8.677913e-03 2.310628e-02
1.104824e-02 -1.910874e-03 -5.096671e-02
-1.796929e-03 -5.797839e-03 -5.810093e-02
-4.299060e-03 3.610626e-02 -6.102285e-03
6.230268e-03 1.205142e-02 -5.005429e-02
3.489157e-02 2.137316e-02 -1.797578e-02
-2.999913e-02 1.441644e-02 1.860750e-03
2.073281e-02 9.957128e-03 1.603683e-02
-3.883259e-02 -8.150878e-03 -2.310714e-02
2.084485e-02 2.637546e-03 -5.060676e-02
-1.827576e-02 3.082762e-02 -1.320172e-02
1.547143e-02 -1.954144e-02 1.570575e-02
3.218664e-02 2.153007e-03 -3.819406e-02
1.201391e-02 -2.459037e-02 -4.455627e-02
-9.653190e-03 -1.225964e-02 -4.992507e-02
-3.473361e-02 1.352619e-02 -1.724626e-02
1.841716e-02 -2.016887e-02 9.710194e-03
1.684982e-02 1.671971e-02 -4.661534e-02
-9.987643e-03 3.432885e-03 2.217235e-02
-1.012963e-02 -2.138310e-03 2.294734e-02
-3.521566e-02 4.414946e-03 -1.950140e-03
-2.971742e-02 2.712925e-02 -2.117800e-02
2.164362e-02 3.009511e-02 -2.396840e-02
3.915242e-02 1.640248e-03 -1.873419e-02
-2.448572e-02 3.049034e-02 -1.192841e-02
-1.231950e-02 -3.403537e-02 -1.297678e-02
-1.903193e-02 1.151437e-02 1.467268e-02
1.451807e-03 -9.512897e-03 2.140918e-02
-7.064075e-03 2.498390e-02 1.433319e-02
-1.276279e-02 8.802194e-03 -4.766661e-02
-2.605891e-02 7.030791e-03 1.431535e-02
2.715756e-02 2.213740e-02 -2.767720e-03
-1.468954e-02 3.424994e-02 -9.900011e-03
-8.130835e-03 -5.639592e-03 2.272711e-02
3.411816e-02 -1.336816e-03 3.789904e-03
-2.287434e-02 3.104898e-02 -2.852339e-02
-1.469290e-02 9.853767e-03 -5.299384e-02
-2.000704e-02 2.028238e-02 1.066496e-02
-9.526702e-03 9.878802e-04 2.006242e-02
1.540384e-02 1.787461e-02 1.581485e-02
6.528548e-03 -2.200947e-02 1.326744e-02
1.739456e-04 3.584905e-02 3.332202e-03
-3.077202e-03 7.197983e-03 2.100513e-02
1.832258e-03 -9.144594e-03 2.289267e-02
-1.319407e-02 -2.993240e-02 -2.968837e-02
2.400941e-02 1.474651e-04 1.393474e-02
1.640111e-02 2.887272e-02 -6.495012e-05
-6.421966e-03 1.282629e-02 -5.416988e-02
-4.278167e-03 4.547196e-03 -5.203357e-02
-2.205259e-02 -1.540078e-02 -4.212208e-02
2.119227e-03 -6.454528e-03 -5.496710e-02
1.028687e-02 -6.713549e-04 1.976719e-02
1.096427e-02 3.360901e-03 -5.251865e-02
-2.399213e-02 -6.163116e-03 1.289903e-02
3.933822e-02 3.217128e-03 -1.428491e-02
-6.799247e-03 -3.398166e-03 2.189202e-02
1.237056e-02 3.238353e-04 2.222527e-02
1.971961e-03 -9.597663e-03 2.273370e-02
-3.093026e-02 2.272363e-02 -1.008228e-02
-9.331433e-03 -3.517471e-03 2.292189e-02
-3.443911e-02 8.285054e-03 -3.443176e-02
-1.683580e-02 2.569572e-02 -4.308901e-02
-1.173015e-02 2.103260e-02 1.419335e-02
2.671724e-02 -1.522333e-02 -3.852717e-02
-1.642816e-02 -1.690488e-02 1.429243e-02
4.087155e-03 -5.766937e-03 2.098301e-02
3.534121e-03 -8.628664e-03 2.212044e-02
-9.758369e-05 2.356365e-04 2.343282e-02
-4.575021e-04 -3.016530e-03 -5.724353e-02
7.976432e-03 -3.437166e-03 2.187663e-02
3.978967e-02 5.225773e-03 -1.229695e-02
-1.830467e-03 -2.095481e-02 1.878261e-02
3.377044e-03 -2.637430e-02 -4.232032e-02
8.976157e-03 -2.254960e-03 2.270628e-02
-3.324479e-02 2.090449e-02 -8.482303e-03
2.486541e-02 -2.024697e-02 -3.375024e-02
7.112355e-03 2.409853e-03 2.305139e-02
3.211906e-02 -1.961283e-02 -6.625365e-04
-1.778328e-02 1.379805e-02 1.532789e-02
-1.428750e-04 8.916744e-04 -5.874081e-02
3.823088e-02 -1.434237e-03 -2.198250e-03
-1.591738e-02 1.675523e-02 1.482386e-02
2.738222e-02 1.412009e-02 9.132434e-03
-3.665397e-02 -1.766844e-02 -1.339849e-02
-2.535606e-02 3.516850e-03 1.468278e-02
8.721274e-04 3.799076e-02 -2.873598e-02
-1.569454e-02 -1.328184e-02 1.602520e-02
-1.864720e-02 -7.723720e-03 1.873555e-02
9.958121e-04 -2.018328e-03 -5.808449e-02
5.033880e-03 -6.770903e-03 2.302638e-02
-1.505261e-02 3.331661e-02 -2.826136e-02
3.045076e-03 1.331246e-02 -4.830071e-02
-3.747970e-03 7.053491e-03 2.071497e-02
8.163053e-03 -4.564244e-03 2.245933e-02
3.859726e-02 1.002998e-02 -1.479088e-02
-7.497478e-03 2.594922e-02 1.314315e-02
7.929714e-03 2.386084e-02 1.364346e-02
3.698949e-02 -8.739490e-03 -5.986678e-03
9.319878e-03 -1.987541e-02 1.783103e-02
2.359410e-02 1.433090e-02 1.121868e-02
-2.015229e-02 -1.547745e-02 1.372437e-02
-2.656775e-02 -2.545065e-02 -3.256295e-03
2.524977e-03 -3.233360e-02 2.845751e-03
2.023975e-02 4.322718e-03 1.789255e-02
-2.603354e-02 2.657206e-02 -1.223362e-02
-1.663280e-02 1.395647e-02 1.767891e-02
-8.984940e-03 2.628031e-02 1.251490e-02
-3.280103e-03 7.069661e-03 2.328648e-02
1.422089e-02 -3.797865e-02 -2.092932e-02
2.736894e-02 -8.711429e-03 -3.871436e-02
2.125320e-02 7.513872e-03 1.678116e-02
3.595151e-02 -6.400581e-03 -1.489236e-02
3.120232e-02 -2.179685e-02 -2.197985e-03
-2.459464e-02 -2.860553e-02 -7.701461e-03
-2.937082e-02 -1.318519e-02 5.323946e-03
3.074678e-02 -2.044893e-03 -3.631111e-02
-1.490816e-03 -8.232575e-03 2.336366e-02
8.293287e-03 5.884175e-03 2.278688e-02
6.792951e-03 -2.949012e-03 2.111433e-02
-5.849724e-03 -4.693010e-03 2.189897e-02
-9.742142e-05 3.681885e-02 -1.794810e-02
-2.450871e-02 2.856296e-02 -6.428621e-03
9.713357e-04 -5.139961e-03 -5.705353e-02
4.840258e-03 2.072164e-02 1.708202e-02
3.223655e-02 -1.234956e-02 -1.846926e-02
-3.509541e-02 -1.282670e-03 -3.642412e-02
1.863205e-02 -3.375393e-02 -4.259008e-03
8.489089e-03 -2.978476e-02 -4.170923e-02
-4.196192e-03 -5.744240e-03 2.342997e-02
-2.682463e-03 -1.908619e-03 -5.301094e-02
1.670452e-02 1.020323e-02 -5.043256e-02
-5.584455e-03 -2.619984e-02 1.398846e-02
3.710746e-03 6.218229e-03 2.284801e-02
2.899325e-02 -1.960883e-02 -5.639311e-06
9.620401e-03 4.062841e-03 2.179439e-02
-2.114372e-02 -3.266738e-02 -2.664715e-02
-3.546662e-03 -3.577259e-02 -1.815657e-02
1.437012e-02 3.809737e-02 -1.181195e-02
2.371478e-03 2.782935e-02 -4.284004e-02
-2.308540e-02 -1.303508e-02 -4.432236e-02
-3.277063e-03 8.571930e-03 -5.772789e-02
5.964465e-03 5.802205e-03 2.023804e-02
1.697881e-03 -3.283391e-02 3.676659e-03
-2.004695e-02 -1.262231e-02 1.544412e-02
-2.732031e-03 1.944669e-02 1.660914e-02
1.076609e-02 1.393781e-02 -4.871680e-02
-2.299809e-02 7.036560e-03 1.623068e-02
2.185905e-02 2.732384e-02 -1.415883e-03
-2.989710e-02 -2.646692e-02 -2.134147e-02
-3.932145e-02 7.303265e-03 -1.248396e-02
-1.510260e-02 1.359414e-02 1.813138e-02
1.719507e-03 8.669109e-03 2.171776e-02
3.565176e-02 7.621616e-03 -7.853288e-04
-3.831720e-03 -2.227678e-02 -4.855603e-02
1.854520e-02 1.410964e-02 1.283902e-02
-7.780605e-03 -2.979054e-02 -3.415941e-02
9.289864e-03 -7.713260e-03 2.115932e-02
8.106321e-03 -3.532356e-02 -1.082764e-02
3.816952e-03 -8.769591e-03 2.290781e-02
5.705800e-03 8.446577e-03 2.095457e-02
-4.227005e-03 -1.980466e-02 1.617997e-02
6.191436e-03 4.920610e-03 2.287544e-02
-8.587592e-03 1.493368e-02 -4.898277e-02
2.553403e-03 -7.156481e-03 -5.606724e-02
9.806683e-03 1.629853e-03 2.164373e-02
-9.512350e-03 -2.015120e-03 2.277459e-02
2.756880e-03 -6.692388e-03 2.344953e-02
1.036115e-02 -2.001387e-02 -4.782433e-02
-6.671060e-03 3.452830e-02 -2.133403e-02
4.322044e-03 -2.151816e-02 1.616515e-02
2.381138e-02 -1.216280e-02 -4.711363e-02
-1.261352e-02 -3.560786e-02 -2.009743e-02
-6.769597e-03 2.081007e-02 -4.220961e-02
-2.253085e-02 -6.862941e-03 1.596906e-02
2.143883e-03 5.295057e-04 -5.711489e-02
-1.095955e-03 1.016689e-02 2.205892e-02
7.919104e-03 -1.237128e-04 2.031644e-02
2.007823e-02 5.602789e-04 1.871602e-02
-9.199604e-05 -6.559655e-04 2.358468e-02
-8.018218e-04 -1.107654e-03 -5.614723e-02
-1.849000e-02 1.884729e-02 -4.152913e-02
-5.373726e-03 2.601803e-03 -5.760234e-02
1.345710e-02 2.718516e-02 6.126983e-03
-1.261399e-02 3.813154e-02 -1.917445e-02
7.187273e-03 -7.799993e-03 -5.615529e-02
-1.812941e-02 1.306276e-02 -4.971457e-02
-2.627333e-02 7.429828e-03 1.258713e-02
-9.231163e-03 -3.605896e-02 3.652220e-04
9.235292e-03 3.817921e-02 -6.495564e-03
-5.063839e-03 -7.514741e-03 2.230373e-02
3.048160e-02 1.845602e-02 -4.662161e-03
-8.765005e-03 -1.073404e-02 -5.283213e-02
3.633180e-02 -1.578115e-02 -1.938543e-02
-2.626867e-02 9.498356e-04 -3.961975e-02
9.540552e-03 2.507521e-02 1.416059e-02
8.972368e-03 -4.883497e-03 2.220743e-02
8.959851e-03 -3.576055e-04 2.301450e-02
-5.656732e-03 3.798370e-02 -3.040969e-02
-1.640655e-02 -3.621817e-02 -1.206610e-02
-1.914025e-03 1.008046e-02 2.317475e-02
-1.922776e-02 1.216469e-04 1.740582e-02
-2.761164e-02 -1.221061e-02 1.053144e-02
-7.916778e-03 3.760753e-02 -6.863366e-03
2.066208e-02 -1.250780e-02 1.475435e-02
-2.384392e-02 -3.964714e-03 1.217947e-02
-2.611457e-03 3.530009e-03 -5.660069e-02
5.264877e-03 5.665152e-03 2.264269e-02
-2.143842e-02 -2.610057e-04 1.362602e-02
3.145941e-02 2.466964e-02 -7.630908e-03
2.370248e-02 -4.864132e-03 1.484198e-02
2.845794e-02 -1.673950e-02 -3.488520e-02
-1.610233e-02 -1.273839e-02 1.808946e-02
-3.373409e-02 1.344660e-02 -2.036367e-02
-3.692532e-02 -1.395660e-02 -7.906383e-03
6.829940e-03 1.569554e-03 2.223512e-02
5.996616e-03 -3.800154e-02 -1.044798e-02
-7.984984e-04 -2.628328e-03 -5.297568e-02
-9.184125e-03 -2.544775e-03 2.275260e-02
-3.402680e-02 2.186198e-02 -1.189284e-02
7.981717e-03 1.452049e-03 2.211355e-02
3.793386e-02 -5.519770e-04 -7.401611e-03
-8.550778e-03 2.306590e-03 2.099955e-02
3.394683e-02 2.488955e-03 4.297680e-03
1.380993e-03 -2.169770e-02 -5.135331e-02
-2.599076e-04 -3.033544e-02 -4.326623e-02
1.213339e-02 3.239204e-02 -3.599838e-02
-2.656129e-02 -2.277370e-02 2.495594e-03
-3.649081e-02 1.344992e-02 -1.233508e-02
-3.595616e-02 -1.446811e-02 -1.650049e-02
-4.050510e-03 -3.213977e-02 2.450947e-03
-5.245641e-03 -7.922735e-03 2.272038e-02
2.230645e-02 2.818707e-02 -3.591105e-02
-1.090142e-02 2.709011e-02 1.155106e-02
2.701515e-02 -1.003606e-03 9.355875e-03
-1.396466e-02 2.020677e-02 -4.926460e-02
7.121630e-03 1.569632e-02 -5.153821e-02
1.464450e-02 -2.207458e-02 1.478200e-02
3.753583e-02 1.099423e-02 -1.821683e-02
-6.093081e-03 -4.963580e-03 2.122789e-02
2.479296e-02 -1.541924e-02 9.458236e-03
-1.112661e-02 -2.230133e-02 1.435285e-02
1.297611e-02 1.170659e-02 -4.819001e-02
-3.231913e-03 -1.785431e-02 -5.297406e-02
2.710235e-02 -1.147023e-02 7.903888e-03
-1.793234e-02 -3.073414e-02 -1.771282e-02
5.945150e-03 9.798802e-03 -5.241041e-02
-1.991861e-02 -7.759836e-03 1.690939e-02
-3.429702e-03 -7.324148e-03 2.286887e-02
2.730076e-02 6.161996e-03 -4.587931e-02
4.585910e-03 -2.085326e-03 -5.771173e-02
-1.705565e-03 2.452318e-02 1.553170e-02
-1.546480e-02 -1.842571e-02 1.554926e-02
-2.503202e-02 2.550414e-02 -3.434068e-02
2.296719e-02 -3.292513e-02 -1.656140e-02
4.837368e-03 -1.871034e-02 1.664482e-02
2.607263e-02 2.339382e-02 2.075685e-03
-5.768504e-03 -2.619841e-03 -5.812266e-02
2.237947e-02 2.029900e-02 -4.216228e-02
-2.148595e-02 -1.643810e-02 1.061159e-02
-2.304316e-02 5.865669e-03 -5.052363e-02
6.726342e-03 5.201410e-03 2.160096e-02
-1.581935e-02 -2.051434e-02 1.463153e-02
1.416597e-02 -1.704915e-02 1.715778e-02
-2.348933e-02 -2.843039e-02 -3.096829e-02
-2.730585e-02 -1.521199e-02 6.912145e-03
-7.994104e-03 2.528558e-03 2.253164e-02
4.602438e-03 8.600972e-03 2.050951e-02
1.671768e-02 -6.819477e-03 1.902272e-02
5.548051e-03 -1.583727e-02 -4.814754e-02
-3.226207e-02 -2.326726e-02 -8.873786e-03
2.576850e-02 -1.368302e-02 -4.501281e-02
-1.830007e-02 2.902113e-02 3.992966e-04
-3.855618e-02 -7.905875e-03 -1.601589e-02
-8.299814e-03 -1.671193e-04 2.242019e-02
1.342207e-03 2.755290e-02 -4.550604e-02
-2.856687e-02 -2.836878e-02 -2.367908e-02
-3.323047e-02 7.592586e-03 -2.402013e-02
2.106773e-02 3.163671e-02 -7.363257e-03
1.935215e-02 2.304405e-02 -3.583078e-02
-6.066677e-03 -2.532347e-02 1.392756e-02
2.011514e-02 3.060467e-02 -3.233399e-02
-3.447531e-03 2.357025e-02 1.637239e-02
-2.449848e-03 -9.724255e-03 2.228459e-02
-2.614279e-02 1.944638e-03 -4.737847e-02
1.854697e-02 -7.388541e-03 -5.031697e-02
-1.817845e-02 3.560353e-02 -1.473798e-02
3.244200e-02 -1.065907e-02 5.873049e-03
2.428156e-02 2.507997e-02 3.932310e-05
-3.476349e-02 8.547271e-03 2.513065e-03
-8.595322e-04 4.893030e-04 2.285624e-02
-1.730367e-02 -1.406741e-02 -4.900097e-02
2.749098e-02 -2.220003e-02 -3.719299e-02
2.427123e-02 2.330433e-02 6.658515e-03
3.042988e-02 2.380217e-02 -2.523970e-02
-1.420271e-02 -2.021562e-02 1.487257e-02
1.993668e-02 9.520493e-03 1.808794e-02
1.393308e-02 -1.452461e-02 -4.771232e-02
-1.219960e-04 -6.179409e-03 2.144761e-02
-3.733854e-02 -3.427451e-04 -1.249409e-02
1.118959e-02 3.434942e-02 -1.102660e-02
2.604403e-03 1.045219e-02 -5.382381e-02
1.715205e-02 4.787622e-03 1.820235e-02
5.389526e-03 -2.041165e-02 1.712535e-02
-2.527471e-03 -3.123690e-02 7.392957e-03
1.972878e-02 -1.364417e-03 -5.069206e-02
1.777205e-02 -3.085935e-02 -3.382651e-02
-4.405110e-04 -3.932779e-03 -5.378734e-02
3.314392e-02 1.612940e-02 -8.598818e-03
-8.391079e-03 7.194540e-03 -5.559465e-02
-7.208464e-03 1.931156e-02 1.894364e-02
1.649125e-02 3.672198e-02 -2.207496e-02
-2.771459e-02 2.051064e-02 4.321143e-03
-4.540400e-03 -1.450510e-02 -5.474282e-02
-1.098931e-03 -7.316175e-03 2.118346e-02
-9.010564e-03 -2.090567e-02 1.456057e-02
-1.992639e-02 1.285144e-02 1.463457e-02
-3.763739e-03 8.154297e-03 2.275745e-02
1.318908e-03 -2.446723e-03 -5.657652e-02
2.157333e-02 1.264356e-02 -4.434114e-02
-3.559695e-02 -4.466530e-03 -3.711120e-02
1.464874e-02 -1.212757e-02 1.754466e-02
2.560865e-02 -2.869362e-02 -7.102881e-03
7.909745e-03 -5.458384e-03 2.316958e-02
-2.309553e-02 2.244669e-02 -4.056853e-02
3.630028e-02 5.525875e-03 -3.133458e-02
-4.347957e-03 -5.628713e-03 2.301573e-02
-2.591583e-03 -2.209241e-02 1.637190e-02
-3.619764e-02 -1.019307e-02 -2.643982e-02
-6.643822e-03 3.107470e-03 -5.704566e-02
-5.857909e-03 2.326449e-02 -4.877381e-02
-9.034965e-03 1.153589e-02 -5.324235e-02
2.220100e-02 3.238215e-03 1.722684e-02
1.203211e-02 -3.325416e-02 -1.494286e-02
-2.416774e-02 -1.041094e-02 -4.692395e-02
-3.509130e-02 -5.431137e-03 -3.471212e-02
-2.861571e-02 -2.532184e-02 -2.724286e-02