# vtk DataFile Version 2.0
Electric current density generated by TTH
ASCII
DATASET UNSTRUCTURED_GRID
POINTS 1295 double
1.650000e-05 -4.041334e-21 -3.673940e-22
1.436731e-05 8.113593e-06 -3.673940e-22
1.334878e-05 -9.698457e-06 -3.673940e-22
1.587468e-05 -3.691438e-06 -7.514108e-07
-7.912267e-06 -1.187178e-05 -1.308626e-06
1.458302e-05 4.756003e-06 -1.461197e-06
-1.324027e-05 7.155789e-06 -1.499158e-06
-1.604437e-05 3.001720e-06 7.073464e-07
-7.772973e-06 -1.110718e-05 -4.090928e-07
-6.664937e-06 -1.416672e-05 -1.348839e-06
-1.492873e-05 -3.197067e-06 -1.476005e-06
-1.365784e-05 -3.425472e-06 1.185402e-06
9.348072e-07 -1.634791e-05 -6.003652e-07
1.388068e-05 -8.920573e-06 -3.673940e-22
1.866450e-06 -1.626688e-05 6.026730e-07
4.613003e-06 -1.571045e-05 6.024590e-07
-6.071423e-06 -1.290139e-05 -1.303973e-06
-1.344536e-05 -9.318730e-06 -6.349454e-07
-1.405818e-05 6.404203e-06 1.431481e-06
-1.475510e-05 -4.106886e-06 -1.466339e-06
6.786012e-06 1.270786e-05 -1.377477e-06
5.839208e-06 -1.281692e-05 1.188129e-06
-1.014612e-05 -9.574709e-06 1.071784e-06
1.036637e-05 -1.267754e-05 5.966030e-07
1.436731e-05 -8.113593e-06 -3.673940e-22
7.948999e-07 -1.354245e-05 4.392632e-07
-6.363803e-06 1.221525e-05 8.635885e-07
-8.870210e-06 1.371623e-05 -6.849396e-07
1.355035e-05 -4.540783e-06 1.321827e-06
-1.529337e-05 -1.081210e-06 1.462902e-06
-1.093499e-05 1.201890e-05 8.307557e-07
-1.237127e-05 9.009253e-06 -1.468855e-06
1.476215e-05 3.525129e-06 1.489496e-06
1.117286e-05 -7.726104e-06 4.949707e-07
1.511931e-05 -3.455800e-06 1.410919e-06
1.480707e-05 -7.280148e-06 -3.673940e-22
1.353633e-05 9.198237e-06 -6.201247e-07
-1.584778e-05 -3.977930e-06 6.752846e-07
-1.584193e-05 -4.027895e-06 -6.620923e-07
1.055563e-06 1.358998e-05 -6.128655e-07
1.631072e-05 -8.559155e-07 -6.875140e-07
-1.267961e-05 6.008165e-06 1.145054e-06
1.257027e-06 1.547347e-05 1.405331e-06
-1.146698e-05 7.139208e-06 -1.524931e-07
1.070955e-05 8.438141e-06 -6.205796e-07
4.567222e-06 1.466315e-05 -1.456657e-06
1.519854e-05 -6.422957e-06 -3.673940e-22
-1.044255e-05 -9.251301e-06 -1.072301e-06
1.176513e-05 7.462485e-06 1.053504e-06
1.128035e-05 8.653542e-06 1.279570e-06
-4.792235e-06 -1.293449e-05 -8.915565e-07
9.836082e-06 -9.623305e-06 8.450470e-07
-1.174677e-05 -1.141599e-05 5.873747e-07
-1.482558e-05 -8.764059e-07 -1.492628e-06
-6.180761e-06 1.431728e-05 -1.377189e-06
1.342073e-05 1.507606e-06 -1.240726e-07
1.604953e-05 -2.986617e-06 7.030280e-07
1.554043e-05 -5.544815e-06 -3.673940e-22
-8.030496e-06 -1.420918e-05 7.097794e-07
-9.351647e-07 -1.635416e-05 5.858180e-07
8.174500e-06 -1.415640e-05 -6.598786e-07
-9.773075e-06 -1.065843e-05 1.399742e-06
-4.749086e-06 -1.508762e-05 1.257717e-06
1.426444e-05 -6.929252e-07 1.316593e-06
7.503730e-06 -1.160496e-05 9.255417e-07
7.174064e-06 -1.293673e-05 1.485617e-06
-1.006074e-05 -9.053258e-06 3.193919e-07
1.077250e-05 1.114216e-05 1.414846e-06
1.583163e-05 -4.648587e-06 -3.673940e-22
1.411160e-05 -2.487887e-06 1.341664e-06
-7.635571e-06 1.176891e-05 1.143202e-06
-8.281372e-06 -1.407358e-05 -6.949103e-07
1.082672e-05 -1.224019e-05 -6.713719e-07
-1.416505e-05 6.322887e-06 -1.409851e-06
2.803856e-06 1.608992e-05 -6.890052e-07
4.419005e-06 1.572987e-05 -6.764677e-07
-1.423742e-05 -2.196542e-06 -1.377317e-06
-1.336809e-05 -5.743617e-06 -1.430828e-06
7.737797e-07 1.633898e-05 -6.385616e-07
1.607120e-05 -3.737197e-06 -3.673940e-22
-9.710247e-06 1.209117e-05 1.411508e-06
1.500747e-05 3.184939e-06 -1.460560e-06
8.327945e-06 1.184377e-05 1.406459e-06
-1.446975e-05 7.610241e-06 -6.559148e-07
1.156392e-05 7.219460e-06 -6.163790e-07
1.730150e-06 -1.439583e-05 -1.414011e-06
-5.827705e-06 1.223340e-05 -3.862475e-07
1.374693e-05 7.328108e-07 8.534413e-07
-1.478328e-05 -6.961643e-06 6.732334e-07
1.315542e-05 -8.559161e-06 1.329420e-06
1.625834e-05 -2.813616e-06 -3.673940e-22
7.395427e-06 1.376211e-05 1.364358e-06
3.553304e-07 1.364521e-05 6.534899e-07
1.008508e-05 1.020221e-05 -1.349687e-06
-5.409050e-06 -1.480871e-05 -1.289876e-06
-1.478346e-05 6.966851e-06 6.684616e-07
-2.069884e-06 1.380746e-05 1.082603e-06
1.574488e-05 6.562327e-07 -1.294063e-06
1.144452e-05 -1.043667e-05 1.418142e-06
1.183469e-05 1.006347e-05 1.401384e-06
-9.348126e-06 1.168825e-05 -1.499631e-06
1.639245e-05 -1.880858e-06 -3.673940e-22
-1.126829e-06 1.630552e-05 6.652537e-07
-9.598874e-06 9.498979e-06 -1.148890e-07
1.180275e-06 1.359465e-05 6.450592e-07
-1.558707e-05 5.064547e-06 -5.657518e-07
4.841490e-06 -1.472351e-05 1.414534e-06
-1.347413e-05 1.328103e-06 -3.416442e-07
7.614832e-06 1.173190e-05 -1.105839e-06
-1.372381e-05 -7.263328e-06 1.404240e-06
1.558778e-05 5.064775e-06 -5.639315e-07
-3.861317e-06 1.302041e-05 -4.859446e-07
1.388068e-05 8.920573e-06 -3.673940e-22
1.647309e-05 -9.419654e-07 -3.673940e-22
1.214881e-05 6.624714e-06 -9.481160e-07
1.341818e-05 -3.636336e-06 1.022143e-06
-3.899252e-06 -1.587463e-05 6.610217e-07
7.447350e-06 1.239321e-05 -1.398936e-06
-5.535952e-06 -1.262303e-05 -8.777029e-07
-1.389946e-05 3.570949e-06 -1.352253e-06
-4.130872e-06 1.398133e-05 -1.439651e-06
1.411284e-05 3.194464e-06 1.403195e-06
1.070957e-05 -8.573373e-06 7.796154e-07
6.118288e-06 -1.315965e-05 -1.418539e-06
1.621353e-05 -3.971168e-21 8.816779e-07
1.144166e-05 -7.936127e-06 -1.045682e-06
-5.000362e-06 -1.257887e-05 3.280443e-07
-1.322505e-05 6.980362e-06 1.499300e-06
-1.353140e-05 -9.252537e-06 5.580573e-07
-1.979025e-06 1.379750e-05 -1.060028e-06
-5.840401e-06 1.302883e-05 -1.314795e-06
2.481395e-06 1.360338e-05 -9.359742e-07
1.280001e-05 -4.322445e-06 1.740792e-07
1.493213e-05 -4.640100e-06 -1.358277e-06
6.282317e-06 1.442495e-05 1.308358e-06
1.546353e-05 -3.787471e-21 1.426585e-06
-1.509240e-05 -6.236801e-06 -6.930656e-07
-1.350921e-05 6.129413e-07 -2.622535e-07
-1.403623e-05 -6.495486e-06 -1.425673e-06
5.311381e-06 -1.548727e-05 -6.046624e-07
1.241369e-05 -7.316595e-06 -1.378860e-06
5.240917e-06 -1.265547e-05 7.443985e-07
-1.328985e-05 2.701354e-06 -4.254990e-07
9.456955e-06 -1.256876e-05 1.310827e-06
-5.959922e-06 1.519418e-05 -7.101059e-07
2.899632e-07 1.357179e-05 -4.680201e-07
1.453647e-05 -3.560409e-21 1.426585e-06
5.293453e-06 1.546548e-05 -6.614139e-07
-7.986181e-06 1.246526e-05 -1.487155e-06
1.006771e-05 -1.059429e-05 1.449746e-06
-9.259376e-07 -1.357744e-05 -5.613013e-07
7.967629e-06 -1.170386e-05 -1.241730e-06
5.259423e-06 1.474961e-05 -1.347355e-06
7.108855e-06 1.472645e-05 6.486520e-07
8.011365e-06 -1.193033e-05 1.361572e-06
-1.520822e-05 6.049181e-06 6.172332e-07
-3.101848e-06 1.390441e-05 1.296834e-06
1.378647e-05 -3.376712e-21 8.816779e-07
1.039647e-05 -9.780521e-06 -1.312567e-06
9.470774e-06 1.332872e-05 6.520725e-07
1.471332e-05 -5.997396e-06 -1.208397e-06
-1.287230e-05 -8.597053e-06 1.421397e-06
9.315927e-06 1.341849e-05 -6.833403e-07
1.238318e-05 -9.070000e-06 1.458707e-06
4.274640e-06 -1.286288e-05 -4.009119e-07
1.259931e-05 -6.116604e-06 1.122976e-06
1.633201e-05 5.436650e-07 6.719946e-07
1.155781e-05 1.155955e-05 -6.611295e-07
1.350000e-05 -3.306546e-21 -6.477641e-21
1.109107e-05 1.208452e-05 -5.315342e-07
-1.631619e-05 7.577450e-07 6.863153e-07
-8.115241e-06 -1.241805e-05 1.490852e-06
-1.474387e-05 1.208943e-06 1.485697e-06
-6.975553e-06 -1.201227e-05 -1.009737e-06
-3.626549e-06 1.306784e-05 4.258736e-07
-1.356407e-05 4.633237e-06 1.343820e-06
1.122210e-05 -1.092179e-05 -1.347224e-06
-3.760715e-06 1.512052e-05 -1.382833e-06
-1.361576e-05 -5.648067e-06 1.477426e-06
1.378647e-05 -3.376712e-21 -8.816779e-07
-6.337536e-06 1.390626e-05 1.473198e-06
-1.188373e-05 6.706817e-06 6.448369e-07
-1.114569e-05 1.199644e-05 -5.994642e-07
1.628033e-05 1.501466e-06 -6.550393e-07
1.364253e-05 -2.600605e-06 -1.006915e-06
-8.998285e-06 -1.267715e-05 1.397082e-06
1.108351e-05 1.110311e-05 -1.332750e-06
3.367005e-06 -1.365276e-05 -1.170389e-06
1.821021e-06 -1.568163e-05 -1.276954e-06
1.355548e-05 -9.215336e-06 -5.607141e-07
1.453647e-05 -3.560409e-21 -1.426585e-06
-1.244219e-05 -9.654269e-06 -1.299942e-06
-1.461494e-05 -7.298029e-06 -6.824125e-07
4.868024e-06 -1.350676e-05 -1.355306e-06
-1.389596e-05 2.455280e-06 -1.208320e-06
-8.144749e-06 1.132783e-05 -1.073114e-06
2.106730e-06 1.621195e-05 -6.574087e-07
5.741478e-06 -1.452457e-05 -1.366691e-06
-4.964599e-06 1.258169e-05 -2.767717e-07
1.622044e-05 -2.143133e-06 -6.297315e-07
-1.286840e-05 -8.571796e-06 -1.427100e-06
1.546353e-05 -3.787471e-21 -1.426585e-06
-1.622372e-05 2.338997e-06 -5.602015e-07
-1.452707e-05 -5.489652e-07 1.426897e-06
-1.496091e-05 -3.770008e-06 1.437462e-06
1.499127e-05 -5.117461e-07 -1.500000e-06
1.315594e-06 -1.390077e-05 1.083699e-06
7.975040e-06 1.094799e-05 -3.635746e-07
7.305038e-06 -1.136981e-05 -2.065952e-07
3.437618e-06 -1.419124e-05 1.446141e-06
1.502122e-05 -2.534418e-06 1.481710e-06
1.051612e-05 9.783518e-06 -1.358191e-06
1.621353e-05 -3.971168e-21 -8.816779e-07
-1.369949e-05 -4.153119e-06 1.334550e-06
1.159610e-06 -1.380748e-05 -9.702893e-07
-1.622177e-05 -1.917659e-06 6.844701e-07
-1.164717e-05 -9.278066e-06 1.496028e-06
6.292048e-06 -1.423131e-05 1.391464e-06
-3.039219e-06 1.378833e-05 -1.214245e-06
-9.654657e-06 -1.006408e-05 1.067530e-06
1.364381e-05 -7.959160e-06 -1.271607e-06
-1.336925e-05 4.669125e-06 -1.243499e-06
-1.172994e-05 -1.049815e-05 1.303768e-06
1.334878e-05 9.698457e-06 -3.673940e-22
-2.035560e-07 1.349852e-05 1.238079e-08
1.512682e-05 -1.812222e-06 -1.481480e-06
1.583591e-05 -5.543578e-07 1.238927e-06
1.450981e-05 -7.656038e-06 -5.232594e-07
7.128157e-06 -1.475045e-05 5.819675e-07
1.490404e-05 6.820471e-06 -5.625332e-07
1.870175e-06 1.629934e-05 5.219020e-07
-1.527680e-05 -5.973522e-06 5.302312e-07
1.327986e-05 8.155502e-06 -1.381567e-06
-1.560600e-05 5.070698e-06 5.141733e-07
1.168260e-05 7.920444e-06 -1.210673e-06
6.454724e-06 -1.255641e-05 -1.213525e-06
-1.087252e-05 8.702845e-06 1.047803e-06
-1.405009e-05 8.472513e-06 5.200577e-07
-3.133143e-06 1.488110e-05 1.485598e-06
1.587370e-05 5.031876e-07 1.213525e-06
-9.099088e-06 -1.009200e-05 5.070472e-07
1.156407e-05 -7.051015e-06 -3.613257e-07
1.274003e-05 8.545191e-06 -1.460860e-06
[...]
POINT_DATA 1295
VECTORS 10.000GHz_fone_imag double
1.191588e-04 -3.720193e-04 3.060570e-02
-1.542577e-03 -1.274931e-04 3.011012e-02
-1.329167e-05 -6.211590e-04 3.055588e-02
1.505501e-02 -4.757225e-03 2.659698e-02
-2.322500e-02 -3.476920e-02 -2.633652e-02
3.676489e-02 1.161543e-02 6.176210e-03
-3.606385e-02 1.866666e-02 -1.059359e-03
1.266021e-02 -1.310358e-03 2.701536e-02
-8.044132e-03 -1.084047e-02 -5.401721e-02
-1.370546e-02 -3.034575e-02 1.393828e-02
-3.932277e-02 -7.826028e-03 3.836581e-03
3.923699e-02 1.020961e-02 -3.255897e-02
8.318260e-04 -1.248679e-02 2.613359e-02
-1.796273e-04 4.317459e-04 3.010175e-02
-3.527901e-04 1.304309e-02 2.734697e-02
-3.623388e-03 1.241645e-02 2.762725e-02
-1.732723e-02 -3.780976e-02 -2.653783e-02
-1.092346e-02 -8.358784e-03 2.753708e-02
3.371873e-02 -1.468239e-02 8.761385e-03
-3.679410e-02 -1.224965e-02 5.198737e-03
1.869188e-02 3.487335e-02 -2.092853e-02
-1.604670e-02 3.575788e-02 -3.266245e-02
2.645525e-02 2.469130e-02 -3.862865e-02
-7.685940e-03 9.769529e-03 2.785216e-02
1.221785e-04 6.074766e-05 3.004513e-02
-1.431650e-03 1.467590e-02 -5.285825e-02
1.275558e-02 -2.661537e-02 -4.321553e-02
-8.048808e-03 1.196900e-02 2.597559e-02
-4.014716e-02 1.325307e-02 -2.367541e-02
3.867437e-02 2.770465e-03 5.858794e-03
1.253526e-02 -1.527560e-02 2.487370e-02
-3.243127e-02 2.200568e-02 3.788825e-03
-3.951884e-02 -8.738780e-03 3.629653e-03
-1.553834e-02 8.564232e-03 -5.371178e-02
-3.529598e-02 8.594429e-03 1.056469e-02
-2.041026e-04 -3.282875e-05 3.024187e-02
1.155165e-02 6.739677e-03 2.755373e-02
1.473150e-02 4.131111e-03 2.718008e-02
-1.471807e-02 -3.576208e-03 2.813699e-02
1.408950e-03 2.410298e-02 -5.220331e-02
1.605491e-02 -5.818490e-04 2.762134e-02
3.485454e-02 -1.477256e-02 -3.493770e-02
-2.306929e-03 -3.484179e-02 9.986916e-03
-4.157464e-03 8.088968e-04 -5.662361e-02
1.644507e-02 1.383293e-02 -5.413864e-02
1.152519e-02 3.680623e-02 6.681066e-03
-1.011981e-04 1.017639e-04 3.023915e-02
-2.621033e-02 -2.405130e-02 -3.821140e-02
-3.012632e-02 -1.879494e-02 -3.813254e-02
-3.061874e-02 -2.150182e-02 -2.808015e-02
-1.147448e-02 -2.847083e-02 -4.685387e-02
-2.277693e-02 2.127828e-02 -4.446853e-02
8.722158e-03 9.055846e-03 2.753235e-02
-4.236230e-02 -2.780715e-03 -7.060559e-03
-1.470331e-02 3.082714e-02 1.273289e-02
1.409471e-03 2.520540e-03 -5.604200e-02
-1.446857e-02 2.895705e-03 2.788472e-02
-6.148929e-04 3.497087e-04 2.975275e-02
6.192386e-03 1.359274e-02 2.704061e-02
1.598720e-03 1.250434e-02 2.796971e-02
7.338434e-03 -1.242868e-02 2.713426e-02
3.001073e-02 3.210033e-02 -1.867645e-02
9.355474e-03 2.932241e-02 1.785118e-02
-4.369944e-02 3.125163e-03 -2.426529e-02
-1.709416e-02 2.644692e-02 -4.352985e-02
-2.105592e-02 3.758235e-02 -8.639056e-03
8.722146e-03 7.100699e-03 -5.631214e-02
-2.417658e-02 -2.642124e-02 1.025334e-02
7.225500e-05 -2.624252e-04 2.992535e-02
-3.933527e-02 8.947894e-03 -2.460889e-02
2.007738e-02 -3.144334e-02 -3.773407e-02
-7.723696e-03 -1.292573e-02 2.657947e-02
1.028621e-02 -1.072558e-02 2.732580e-02
-3.303720e-02 1.441418e-02 1.045874e-02
3.818196e-03 1.480747e-02 2.691267e-02
4.565507e-03 1.473081e-02 2.734878e-02
-3.882997e-02 -5.958422e-03 -2.258125e-02
-3.972567e-02 -1.670749e-02 -1.657458e-02
5.761849e-04 1.413764e-02 2.751224e-02
-1.265757e-04 -8.499937e-04 3.001175e-02
2.283452e-02 -2.785074e-02 1.101441e-02
3.885187e-02 8.183938e-03 6.315719e-03
-2.493089e-02 -3.533631e-02 -1.807480e-02
-1.310877e-02 6.670717e-03 2.707676e-02
1.679859e-02 1.100526e-02 -5.278259e-02
5.195231e-03 -4.332737e-02 -1.804489e-02
-3.179998e-03 1.025457e-02 -5.607193e-02
-2.869496e-02 -3.419832e-03 -4.372304e-02
1.327430e-02 6.055258e-03 2.770556e-02
-2.720404e-02 1.821959e-02 1.453810e-02
1.560505e-03 -3.688741e-05 3.116668e-02
-1.471949e-02 -2.722177e-02 1.084947e-02
-3.126139e-03 -2.390850e-02 -4.925820e-02
3.104345e-02 3.079303e-02 -2.315683e-02
-9.985620e-03 -2.916875e-02 1.812684e-02
1.229456e-02 -6.725598e-03 2.746660e-02
6.052027e-03 -3.386579e-02 -3.891142e-02
2.951484e-02 2.354740e-03 1.707643e-02
-2.679612e-02 2.429412e-02 1.028787e-02
-2.740292e-02 -2.381849e-02 9.807179e-03
-2.607726e-02 3.392480e-02 -4.372806e-03
-2.667508e-04 7.904994e-04 3.069684e-02
7.475247e-04 -1.452525e-02 2.723079e-02
-4.916433e-03 3.454557e-03 -5.572208e-02
-2.088166e-03 -2.509056e-02 -5.137175e-02
-1.253939e-02 3.518543e-03 2.778198e-02
-1.062367e-02 3.504813e-02 1.032141e-02
-1.188936e-02 2.178421e-04 -5.604854e-02
2.073114e-02 3.005504e-02 -3.612194e-02
3.101841e-02 1.763075e-02 1.107626e-02
1.219082e-02 3.335799e-03 2.800181e-02
-4.831239e-03 1.628331e-02 -5.479023e-02
-2.949140e-04 -1.236196e-03 2.973260e-02
-2.209884e-04 -2.765312e-05 3.101136e-02
2.827197e-02 1.403468e-02 -4.412595e-02
-3.319134e-02 9.502675e-03 -4.046356e-02
3.561929e-03 1.400381e-02 2.738317e-02
2.189544e-02 3.612082e-02 -1.981591e-02
-1.261789e-02 -2.788361e-02 -4.631493e-02
-4.069948e-02 9.886972e-03 -2.325791e-02
-1.289975e-02 4.198166e-02 -1.495382e-02
-4.341323e-02 -9.532296e-03 -2.004028e-02
-2.056515e-02 1.867912e-02 -4.799511e-02
1.700280e-02 -3.970367e-02 -1.813197e-02
-2.072895e-02 -5.478807e-04 2.552905e-02
2.840658e-02 -1.983751e-02 -3.933615e-02
2.962230e-03 1.082221e-02 -5.358188e-02
3.783792e-02 -1.973312e-02 -4.217306e-03
9.800798e-03 7.151682e-03 2.794411e-02
-5.944664e-03 3.597561e-02 -3.807167e-02
-1.735207e-02 3.848959e-02 -2.608812e-02
4.410255e-03 3.052620e-02 -4.330012e-02
-6.800823e-03 3.026842e-03 -5.665465e-02
3.235849e-02 -9.960521e-03 1.377194e-02
-1.085275e-02 -2.933281e-02 1.625596e-02
-3.581788e-02 -9.581571e-05 8.020186e-03
-1.477604e-02 -6.088208e-03 2.793418e-02
-1.006002e-02 2.553363e-04 -5.607529e-02
-3.366573e-02 -1.530337e-02 8.705059e-03
3.837990e-03 -1.386173e-02 2.731329e-02
3.605254e-02 -2.253379e-02 -2.033413e-02
-6.921754e-03 2.484547e-02 -4.745927e-02
-1.500012e-02 1.901101e-03 -5.247461e-02
-1.899802e-02 2.502673e-02 1.584974e-02
-5.662834e-03 1.371486e-02 2.700915e-02
2.108828e-03 1.869287e-02 -5.369824e-02
-4.383037e-02 1.699377e-03 -1.714496e-02
5.201634e-03 1.365877e-02 2.810986e-02
-2.374997e-02 3.682854e-02 -8.392239e-03
-2.940666e-02 3.161118e-02 -1.529418e-02
-3.295179e-03 -2.064992e-02 -5.188020e-02
2.330028e-02 -3.226573e-02 -3.002103e-02
1.145409e-02 3.227158e-02 1.484551e-02
-5.198288e-03 -1.366442e-02 2.668428e-02
-2.397642e-02 3.590104e-02 -2.170654e-02
1.228100e-02 -4.694552e-03 2.805572e-02
7.862678e-03 -4.032107e-02 -2.385339e-02
-3.044211e-02 3.198341e-04 -4.568839e-02
2.987725e-02 -2.784240e-02 -2.646941e-02
-8.054409e-03 -1.202858e-02 2.612488e-02
2.645426e-02 -1.102240e-02 1.884243e-02
2.958828e-02 2.019157e-02 9.933834e-03
9.041586e-03 1.219820e-02 2.771634e-02
-3.056015e-02 2.282074e-02 6.834666e-03
2.286719e-03 -1.381192e-02 -5.615421e-02
-3.414172e-02 1.434222e-02 -3.441112e-02
-1.448305e-02 -7.889822e-04 2.758696e-02
9.925343e-03 1.094332e-02 2.592771e-02
3.248573e-04 -2.319022e-03 -5.794755e-02
7.385970e-03 8.508580e-03 2.835120e-02
1.521388e-02 -5.018967e-04 2.719756e-02
2.227750e-02 3.634324e-02 -7.834544e-03
4.376531e-02 -2.776818e-03 -8.449158e-03
-1.725200e-02 -3.057441e-02 -4.079593e-02
2.892200e-03 -1.518562e-02 -5.531381e-02
3.969248e-02 -1.439395e-02 -2.408522e-02
2.446272e-02 -2.306719e-02 1.403570e-02
-7.104667e-03 3.188440e-02 1.129057e-02
3.970626e-02 1.567118e-02 -1.086832e-02
2.977893e-02 -2.257519e-03 -4.605137e-02
1.597152e-02 -3.522651e-02 5.737087e-03
1.916607e-02 -9.917937e-03 -5.134905e-02
-8.356482e-03 9.511428e-03 2.858436e-02
1.503711e-02 6.985891e-04 2.684792e-02
3.469684e-02 -6.101988e-03 -4.306345e-02
2.076890e-02 2.888533e-02 1.182940e-02
2.188305e-02 2.084370e-02 1.699303e-02
9.227426e-03 -3.784688e-02 -3.398557e-02
3.739771e-03 -3.027955e-02 1.693363e-02
1.094248e-02 -6.861510e-03 2.794312e-02
4.334794e-02 6.180721e-04 -1.720518e-02
-2.513939e-02 -2.002530e-02 1.640695e-02
-1.202822e-02 -7.174572e-03 2.753120e-02
1.531119e-02 -4.202191e-02 -2.303496e-02
-3.804396e-02 6.436950e-03 -3.293793e-02
-2.098255e-02 2.908321e-02 -3.932001e-02
1.725102e-03 1.455822e-02 2.728433e-02
1.053107e-02 -2.857175e-02 1.343558e-02
-1.941955e-03 9.091631e-03 -5.672870e-02
1.344216e-02 -4.276771e-04 2.725921e-02
-3.060298e-02 -1.991294e-02 9.834414e-03
3.656247e-02 2.147880e-03 8.735392e-03
-1.176833e-02 1.645848e-03 2.819709e-02
4.340652e-02 1.332273e-03 -1.810980e-02
3.251079e-02 7.750998e-03 7.629618e-03
4.100068e-02 -4.285044e-04 -4.443465e-03
-5.950028e-03 3.461958e-02 -3.741317e-02
7.066500e-03 1.236688e-02 -5.499491e-02
5.757080e-03 -5.421840e-03 -5.606647e-02
-1.016906e-02 4.214296e-02 -1.446062e-02
-4.047742e-02 6.916000e-03 2.408482e-03
3.320045e-02 3.041848e-02 -2.294557e-02
2.061232e-02 5.920756e-04 2.526488e-02
4.172008e-02 1.124373e-02 -2.272378e-02
2.798025e-03 -3.271531e-02 -4.183962e-02
1.567747e-02 1.134075e-03 2.691363e-02
3.352636e-02 2.731573e-02 -5.215190e-03
-1.486339e-02 3.221883e-02 1.192241e-02
-8.777569e-03 3.968021e-02 -3.104908e-02
2.514623e-02 2.617641e-02 -3.883164e-02
2.671219e-02 -1.588976e-02 1.654114e-02
-3.656609e-02 1.475059e-02 -2.951685e-02
2.353163e-02 2.037953e-02 1.603054e-02
1.324822e-03 -1.230425e-03 3.035821e-02
1.245924e-04 -8.114764e-04 -5.931615e-02
3.931590e-02 -5.850408e-03 2.714709e-03
-3.039138e-02 9.901504e-04 1.672234e-02
1.025044e-02 -5.401634e-03 2.838186e-02
-5.359921e-03 1.122108e-02 2.810510e-02
1.115832e-02 4.991861e-03 2.850374e-02
-1.129988e-03 -1.129390e-02 2.879018e-02
1.066803e-02 4.398362e-03 2.827360e-02
2.996212e-02 1.791159e-02 1.324979e-02
1.025091e-02 -3.543047e-03 2.842411e-02
3.324133e-02 2.316016e-02 -3.283934e-02
1.892358e-02 -3.518637e-02 -3.214810e-02
2.699854e-02 -2.229368e-02 -3.958266e-02
1.069423e-02 -4.847384e-03 2.813854e-02
9.222207e-03 -3.873098e-02 1.527038e-03
-2.911880e-02 -1.080686e-03 1.834841e-02
1.122682e-02 1.301355e-02 -5.394476e-02
1.030803e-02 -7.139077e-03 -5.596559e-02
3.146453e-02 2.200159e-02 6.815714e-03
2.370354e-03 -3.702602e-02 8.460229e-03
2.075889e-02 -3.617097e-02 -7.904897e-04
3.054426e-02 6.340890e-04 1.756884e-02
3.135831e-02 2.966029e-02 -2.304165e-04
-3.183517e-02 -6.390576e-03 1.635345e-02
1.853400e-02 2.217029e-02 -4.676318e-02
3.503967e-02 -6.263119e-04 1.240784e-02
1.159205e-02 -9.656223e-03 -5.444107e-02
-1.338091e-02 -9.172980e-03 -5.414561e-02
-8.742618e-03 7.998299e-03 2.779653e-02
-3.463813e-02 -2.716652e-02 -1.572716e-02
-1.115924e-02 -2.682441e-03 2.883289e-02
1.321942e-02 1.641263e-02 -5.250027e-02
2.936924e-02 -5.039108e-03 1.942424e-02
-3.443728e-02 -1.714689e-02 6.115035e-03
-1.327446e-02 -9.928348e-03 -5.343847e-02
-1.065605e-02 6.238163e-03 2.812415e-02
-8.725206e-03 -2.294852e-02 -5.092405e-02
3.308062e-02 -5.577062e-03 1.360773e-02
-9.774227e-03 -3.942713e-02 -2.977786e-02
-3.332789e-03 4.042202e-02 -2.634392e-02
7.730567e-04 -7.078758e-05 -5.735995e-02
-9.582154e-03 7.453570e-03 2.843706e-02
8.709545e-03 -6.848661e-03 2.860724e-02
2.914585e-02 1.124356e-02 1.673888e-02
3.816327e-03 1.739638e-02 2.652616e-02
1.069756e-02 3.949899e-02 5.911514e-04
-1.144317e-03 -4.219715e-02 -1.732301e-02
3.176519e-02 -1.870922e-02 8.910564e-03
2.595228e-02 -2.293418e-02 1.287366e-02
2.951033e-02 -2.201834e-02 9.823634e-03
-2.777773e-04 1.570368e-02 -5.549235e-02
-1.528072e-02 3.815514e-02 -2.867668e-02
7.849347e-03 -4.311925e-02 -1.528173e-02
1.315668e-02 3.945788e-02 -2.885146e-02
3.260492e-02 -1.115515e-02 1.298132e-02
-3.473181e-02 2.323482e-02 -3.395147e-03
-3.718313e-02 -6.193692e-03 9.310403e-03
2.990512e-02 -1.643328e-02 1.409907e-02
4.359473e-02 -7.940873e-03 -1.888737e-02
2.259072e-02 -1.842103e-02 1.931627e-02
-3.198097e-02 -2.500217e-03 -4.320872e-02
2.426112e-02 2.582596e-02 1.112859e-02
-1.305901e-02 1.769716e-03 2.787181e-02
-3.771647e-02 -2.173091e-02 -8.719514e-03
-6.347976e-03 -3.835814e-02 -3.001379e-02
3.536337e-02 -2.554976e-02 -1.221505e-02
-2.871945e-02 5.780881e-03 -4.609917e-02
1.082575e-02 -2.985090e-03 2.736830e-02
-2.462787e-03 1.355873e-02 -5.587516e-02
3.287174e-02 -8.434165e-03 1.330624e-02
2.833724e-02 5.765681e-03 1.996010e-02
1.369852e-02 -3.215726e-02 -4.024259e-02
3.967479e-02 -4.175727e-03 -3.019070e-02
-3.133376e-03 -1.524247e-02 2.713178e-02
1.460574e-02 2.434160e-02 1.918700e-02
-8.026946e-03 -3.205951e-02 1.419672e-02
2.106710e-02 -3.691126e-02 -3.666660e-03
-1.081703e-03 -3.887453e-02 5.430666e-03
-3.237216e-02 -2.942653e-02 -1.812067e-02
2.209109e-03 -3.957882e-02 -2.833802e-02
-1.193402e-02 7.896497e-03 2.799822e-02
-3.211878e-02 -4.813771e-03 1.553169e-02
-3.151477e-02 2.831359e-02 -4.906780e-03
-3.974032e-02 9.151753e-03 -2.709033e-02
-4.145439e-02 -8.389448e-03 -1.575481e-02
2.323028e-02 1.821609e-02 -4.721976e-02
-3.514321e-02 2.491775e-02 -1.591430e-02
-3.812055e-02 -1.220892e-02 -2.947058e-02
-9.499987e-03 -1.453683e-02 2.615175e-02
2.619788e-02 -3.404813e-02 -1.297100e-02
-3.058708e-02 1.300120e-02 -4.309917e-02
3.142057e-03 2.295956e-02 -5.041678e-02
3.345621e-02 1.532896e-02 9.673047e-03
-1.123028e-02 -8.920848e-03 2.854108e-02
-2.575610e-02 2.485419e-02 9.866706e-03
5.352920e-03 1.498596e-02 -5.045161e-02
-1.035598e-02 -7.834677e-03 2.833695e-02
-1.136243e-02 -5.460858e-04 2.899937e-02
-2.180159e-02 -3.894914e-02 -2.297702e-02
-2.237007e-02 -1.166830e-02 2.181117e-02
-1.816847e-02 3.316600e-02 -3.704396e-02
-1.224312e-02 -3.581234e-03 2.830882e-02
-2.532999e-02 3.441933e-02 -1.992230e-02
-2.369986e-02 -1.716980e-02 -4.464809e-02
-2.204260e-03 1.625396e-02 -5.430274e-02
7.989780e-03 3.080320e-03 -5.779289e-02
8.921489e-04 1.651722e-03 3.026364e-02
-4.021498e-02 -2.146791e-04 -2.973750e-02
-1.301811e-02 -1.159320e-02 -5.362162e-02
-2.766257e-02 1.312238e-02 1.705496e-02
-1.954085e-02 2.957043e-02 1.278135e-02
4.675583e-03 1.384246e-02 2.867383e-02
5.039097e-03 7.060226e-03 -5.607015e-02
3.761144e-02 1.490421e-02 1.752033e-03
-5.098138e-03 -8.815575e-03 -5.557972e-02
2.940874e-02 -2.669841e-02 -3.178103e-02
-5.370827e-03 7.916425e-03 -5.696924e-02
5.111065e-04 9.079690e-04 3.053763e-02
-2.853806e-06 -2.582101e-03 -6.024139e-02
6.246039e-03 -8.366353e-04 -5.662650e-02
-6.674436e-04 2.366233e-03 -5.807097e-02
6.067055e-03 4.479253e-03 -5.724665e-02
1.883485e-02 1.953418e-03 -5.223435e-02
-2.774625e-02 -6.614314e-03 1.912582e-02
5.852553e-03 -2.336944e-02 -5.021883e-02
-2.945012e-02 -6.137663e-03 -4.489043e-02
-1.111907e-02 -5.740983e-03 -5.544272e-02
4.161973e-02 -6.148890e-03 -2.861857e-02
-1.410692e-03 1.705391e-04 3.028909e-02
2.032452e-02 2.982526e-02 -3.884657e-02
3.537041e-02 -1.883284e-02 -3.241222e-02
2.142267e-02 -2.933031e-02 -3.715033e-02
-8.174377e-03 -4.106219e-02 -2.776014e-02
2.899328e-02 -1.317952e-02 -4.521201e-02
2.594012e-02 -2.046095e-02 -4.039832e-02
1.969145e-02 3.889716e-02 -1.914070e-02
1.025900e-02 4.117959e-02 -2.064569e-02
-2.747126e-02 3.182207e-02 -2.359804e-02
-3.342339e-02 2.450406e-02 -2.167316e-02
-1.462235e-04 -5.109456e-04 3.015719e-02
-1.044540e-02 -3.892374e-02 -3.104865e-02
-2.371665e-02 -3.182399e-02 -3.138793e-02
3.925173e-02 -2.619870e-03 -3.275936e-02
3.089147e-02 4.343807e-03 -4.508549e-02
1.857076e-02 2.801476e-02 -4.082385e-02
-2.343459e-02 -8.043497e-03 -4.907709e-02
7.414247e-03 2.813599e-03 -5.676393e-02
-2.806274e-02 -3.306465e-02 -1.580244e-02
1.271698e-03 4.325622e-02 -1.436448e-02
-6.800821e-03 4.233006e-02 -1.585705e-02
-3.090734e-04 -3.808245e-04 3.063914e-02
-1.122348e-02 4.153695e-02 -1.368766e-02
-1.918902e-02 3.895076e-02 -1.027499e-02
3.464718e-02 2.657456e-02 -8.972939e-03
-4.314269e-02 5.991252e-03 -1.430577e-02
1.865896e-02 -3.887104e-02 -1.631198e-02
-2.555014e-02 2.296462e-02 -4.051555e-02
-1.955442e-02 -3.702120e-02 -4.735038e-03
2.517023e-03 4.009310e-02 -2.392332e-03
1.503210e-02 4.043905e-02 -5.840529e-03
-4.000588e-02 1.456786e-02 -1.421272e-02
4.294164e-05 -4.940213e-04 3.022562e-02
-8.001136e-03 4.261901e-02 -1.894551e-02
-3.369408e-02 -2.277958e-02 -2.727687e-02
9.100870e-03 -4.063442e-02 -1.793902e-02
2.482502e-02 -3.530922e-02 -9.087138e-03
-2.991861e-02 -2.980444e-02 -6.055485e-03
4.209333e-02 9.629910e-03 -7.923672e-03
-3.385847e-03 -4.153416e-02 -7.610744e-03
-2.894170e-02 5.283747e-03 1.900796e-02
2.972681e-02 -2.976447e-02 -4.281831e-03
1.384724e-03 -4.298313e-02 -1.247094e-02
-1.065768e-03 -1.015112e-03 3.061738e-02
-1.658420e-02 3.995622e-02 -6.496611e-03
-1.926836e-02 -3.584843e-02 5.587278e-04
4.064080e-02 -1.228385e-02 -4.143669e-03
-1.589470e-03 4.307251e-02 -1.364182e-02
-4.074066e-02 -4.444521e-03 3.680113e-03
1.295833e-02 -3.887912e-02 9.621983e-04
-1.122721e-02 1.749585e-02 -5.319839e-02
-3.024973e-02 1.382555e-02 -4.287518e-02
-4.055019e-02 1.265678e-02 -1.706533e-02
3.805173e-02 1.920676e-02 -1.047322e-02
2.809598e-04 4.049601e-04 2.964477e-02
2.210563e-04 -3.811209e-04 3.091718e-02
3.437578e-02 2.321564e-02 -2.820050e-02
3.059764e-02 3.102996e-02 -1.726852e-02
1.446036e-02 -3.800672e-02 2.438480e-03
-1.278943e-02 -3.884343e-02 4.982767e-03
3.872800e-02 1.071468e-02 4.588209e-03
-3.263602e-02 -1.968712e-02 8.014607e-03
-3.669715e-02 -1.240876e-02 6.557071e-03
-3.026776e-03 8.357656e-03 -5.732825e-02
3.778856e-02 -1.579694e-02 -1.014208e-04
5.099321e-03 2.218667e-02 -5.080555e-02
-7.239618e-04 3.492352e-04 3.003858e-02
-1.477810e-02 -3.792941e-02 4.416872e-03
-1.498410e-02 -2.287204e-02 -4.826921e-02
-2.315589e-02 3.442638e-02 2.373681e-04
-2.634377e-02 2.924631e-02 4.801071e-03
-3.194736e-04 -1.653450e-02 -5.510561e-02
2.900426e-02 5.544480e-03 1.995593e-02
2.153926e-02 3.475947e-02 -2.175311e-03
-1.054027e-02 3.542549e-02 6.396016e-03
5.858049e-03 -3.957455e-02 3.472189e-03
3.464162e-02 -2.125787e-02 1.141216e-03
-6.093786e-04 -2.513053e-03 2.832465e-02
3.464296e-02 -1.528220e-02 8.108756e-03
-4.121435e-02 -6.677469e-03 -8.708925e-04
-6.305157e-03 1.190032e-02 -5.553238e-02
-8.357901e-05 1.902421e-03 -5.872139e-02
-3.447626e-02 1.337804e-02 8.810889e-03
3.899299e-02 2.999465e-04 6.950145e-03
4.097274e-02 -7.953336e-03 3.367818e-03
3.231820e-02 -2.298472e-02 4.433231e-03
-1.166715e-02 7.630334e-03 -5.508741e-02
-3.547769e-02 -1.262531e-02 9.232808e-03
4.839903e-04 -1.391177e-03 2.924998e-02
2.467767e-02 -2.969789e-02 6.895874e-03
3.011223e-02 -2.180615e-02 9.715151e-03
7.326762e-03 -3.901068e-03 -5.585224e-02
1.871075e-02 5.195231e-03 -5.315705e-02
-3.095752e-02 -2.604201e-02 2.681622e-03
3.727286e-02 7.527899e-03 5.608387e-03
-3.886719e-03 -4.139815e-03 -5.730250e-02
-4.583656e-03 -3.541800e-02 1.024195e-02
3.013780e-02 1.718092e-02 1.404678e-02
-1.329344e-02 1.218074e-02 -5.335942e-02
-5.165933e-04 -2.346498e-04 2.991281e-02
-3.454828e-02 -6.502935e-03 -4.187810e-02
-3.297651e-02 -1.186363e-02 -3.825192e-02
3.098211e-02 1.877812e-02 1.001127e-02
-3.232012e-02 -2.052365e-02 -3.504126e-02
1.582716e-02 -5.355928e-03 -5.420248e-02
-3.417807e-02 9.777424e-03 1.142200e-02
1.430190e-02 4.167544e-02 -3.877768e-03
2.195943e-02 2.873713e-02 1.063715e-02
1.907660e-02 2.992079e-02 1.119363e-02
-4.297578e-03 -1.514950e-03 -5.739494e-02
-4.893936e-05 -2.262534e-04 3.019634e-02
2.198647e-02 2.756941e-02 1.252795e-02
2.888512e-02 -4.834179e-03 1.750675e-02
-3.138608e-02 1.568191e-02 1.243883e-02
1.264171e-02 -1.308807e-02 -5.381147e-02
-1.280808e-02 1.366703e-02 -5.266678e-02
8.365978e-07 2.659572e-03 -5.720455e-02
1.132086e-03 -5.567484e-03 -5.630751e-02
-2.567856e-03 2.535120e-03 -5.608520e-02
-4.264211e-02 1.639934e-03 -2.001128e-02
-2.429990e-02 2.400626e-02 1.436342e-02
4.403284e-04 3.746955e-05 3.038607e-02
2.044106e-02 -2.736332e-02 1.388365e-02
2.302340e-02 9.949016e-03 -4.911241e-02
2.807411e-02 2.208370e-02 1.248204e-02
-6.688335e-03 -1.035388e-02 -5.706758e-02
8.339703e-03 -3.236699e-02 1.399763e-02
1.848658e-03 -6.793124e-03 -5.731968e-02
4.359350e-02 2.837500e-03 -8.291841e-03
-3.483395e-02 1.772101e-03 1.159664e-02
-3.362554e-02 -2.906701e-03 1.320138e-02
5.305976e-03 -1.140816e-04 -5.713463e-02
-6.414813e-04 8.250031e-04 3.033311e-02
-2.289504e-02 -2.369484e-02 1.434961e-02
-7.626253e-04 -2.281161e-02 -5.088262e-02
-3.680710e-02 2.118846e-02 -1.822915e-02
-2.976164e-02 -1.491678e-02 -4.114480e-02
4.328021e-03 3.434621e-02 1.353050e-02
-2.735750e-02 2.180067e-02 1.095385e-02