# vtk DataFile Version 2.0
Electric current density generated by TTH
ASCII
DATASET UNSTRUCTURED_GRID
POINTS 19111 double
3.020000e-05 -7.396867e-21 -4.898587e-23
3.017883e-05 1.130709e-06 -4.898587e-23
2.767360e-05 1.209182e-05 -4.898587e-23
-1.592652e-05 -2.565903e-05 -4.898587e-23
-4.833156e-06 2.943229e-05 9.946077e-08
-7.247976e-06 2.893106e-05 9.709747e-08
-3.359250e-06 2.963651e-05 9.911241e-08
-2.302001e-05 -1.896571e-05 9.946077e-08
1.249551e-07 2.982489e-05 9.709747e-08
-2.921968e-05 5.979102e-06 9.709747e-08
-2.715294e-05 1.233926e-05 9.709747e-08
-2.976327e-05 -1.937778e-06 9.911241e-08
-2.804323e-05 -1.015464e-05 9.709747e-08
-1.639610e-05 -2.491536e-05 9.911241e-08
-1.581962e-05 -2.572508e-05 -4.898587e-23
-1.316750e-05 -2.676259e-05 9.946077e-08
-2.699680e-05 -1.267724e-05 9.709747e-08
2.242673e-05 2.016484e-05 -1.210249e-07
2.357251e-05 -1.861710e-05 1.964271e-07
1.437655e-05 2.612273e-05 8.177574e-08
1.437655e-05 -2.612273e-05 8.177574e-08
2.525192e-05 1.591669e-05 1.318693e-07
2.968390e-06 -2.966393e-05 6.846439e-08
2.965353e-05 5.536523e-06 -1.116132e-07
2.806359e-05 1.019868e-05 1.421457e-07
-1.571244e-05 -2.579068e-05 -4.898587e-23
2.982521e-05 -3.116360e-06 -1.996140e-07
2.982521e-05 3.116360e-06 -1.996140e-07
2.402648e-05 -1.763349e-05 -3.382397e-08
1.902962e-05 2.319995e-05 1.999078e-07
1.902962e-05 -2.319995e-05 1.999078e-07
9.794020e-06 -2.836268e-05 -1.999078e-07
2.761480e-05 1.173827e-05 1.999078e-07
2.761480e-05 -1.173827e-05 1.999078e-07
1.724024e-05 -2.455888e-05 1.999078e-07
1.724024e-05 2.455888e-05 1.999078e-07
-1.560499e-05 -2.585584e-05 -4.898587e-23
1.792939e-05 2.406037e-05 1.999078e-07
1.792939e-05 -2.406037e-05 1.999078e-07
2.727071e-05 -1.251672e-05 1.999100e-07
2.727071e-05 1.251672e-05 1.999100e-07
4.279456e-06 -2.968024e-05 1.995879e-07
2.615679e-05 -1.452661e-05 1.832595e-07
8.985017e-06 -2.862907e-05 -1.999130e-07
1.968031e-05 -2.265037e-05 1.999130e-07
1.968031e-05 2.265037e-05 1.999130e-07
-2.479131e-06 -2.972282e-05 9.866885e-08
-1.549726e-05 -2.592055e-05 -4.898587e-23
-2.886827e-05 7.464026e-06 8.200930e-08
-1.179013e-05 -2.738761e-05 8.200930e-08
-1.994202e-05 -2.217900e-05 9.866885e-08
-1.732976e-05 2.427492e-05 9.866885e-08
-7.369492e-06 -2.890126e-05 9.866885e-08
-1.339517e-05 -2.684903e-05 1.999371e-07
-1.470850e-05 -2.615028e-05 1.999782e-07
-2.935060e-05 -6.232436e-06 1.999371e-07
1.106829e-06 -2.998253e-05 1.999782e-07
-7.284741e-06 -2.910550e-05 1.999729e-07
-1.538927e-05 -2.598481e-05 -4.898587e-23
-2.429985e-05 -1.759813e-05 1.999782e-07
-2.648002e-05 1.410623e-05 1.999782e-07
-2.982255e-05 -3.285246e-06 1.999782e-07
-2.315485e-05 1.907957e-05 1.999782e-07
-2.151176e-05 2.091462e-05 1.999782e-07
-2.942064e-05 5.884175e-06 1.999729e-07
-2.242426e-05 -1.993313e-05 1.999782e-07
-4.698079e-06 2.963493e-05 1.999371e-07
-1.187454e-05 2.755533e-05 1.999371e-07
-1.754049e-05 2.434191e-05 1.999729e-07
-1.528102e-05 -2.604862e-05 -4.898587e-23
4.470138e-06 2.966843e-05 1.999729e-07
-7.420485e-06 2.907119e-05 1.999729e-07
7.405787e-06 2.907494e-05 1.999729e-07
-2.494170e-05 1.667599e-05 1.999782e-07
-1.203839e-05 -2.748414e-05 1.999371e-07
-5.968924e-06 2.940322e-05 1.999782e-07
-1.304873e-05 2.701681e-05 1.999782e-07
-2.514792e-05 -1.636335e-05 1.999782e-07
-2.339121e-05 -1.878905e-05 1.999782e-07
-2.905569e-05 -7.480953e-06 1.999729e-07
-1.517249e-05 -2.611198e-05 -4.898587e-23
-2.909667e-05 7.326973e-06 1.999371e-07
-9.219358e-06 -2.855173e-05 1.999729e-07
2.761969e-06 -2.984293e-05 -1.978081e-07
5.429025e-06 -2.966630e-05 1.213557e-07
2.705919e-05 -1.294875e-05 1.999882e-07
2.705919e-05 1.294875e-05 1.999882e-07
2.960856e-05 -5.792549e-06 1.055861e-07
1.568371e-05 2.576208e-05 1.191567e-07
1.568371e-05 -2.576208e-05 1.191567e-07
1.127996e-05 -2.770802e-05 -1.815410e-07
-1.506371e-05 -2.617489e-05 -4.898587e-23
-2.933451e-05 5.270204e-06 4.060449e-08
-9.713249e-06 -2.817696e-05 4.060449e-08
-2.956099e-05 3.799496e-06 4.060449e-08
-1.683138e-05 -2.459660e-05 4.060449e-08
-6.129423e-06 -2.916708e-05 4.060449e-08
-2.945693e-05 4.536264e-06 4.060449e-08
-2.871138e-05 -7.996543e-06 4.060449e-08
-2.727497e-05 -1.201517e-05 4.060449e-08
-2.045468e-05 -2.167705e-05 4.060449e-08
-7.750287e-06 2.877883e-05 4.060449e-08
-1.495466e-05 -2.623734e-05 -4.898587e-23
-2.821948e-05 9.589014e-06 4.060449e-08
-2.797131e-05 1.029049e-05 4.060449e-08
-5.209162e-06 -2.934541e-05 4.060449e-08
6.976263e-06 2.897620e-05 4.060449e-08
-1.336378e-06 2.977419e-05 4.060449e-08
-1.789546e-05 2.383361e-05 4.060449e-08
-2.770570e-05 1.098555e-05 4.060449e-08
6.250736e-06 2.914132e-05 4.060449e-08
-9.360765e-06 2.829601e-05 4.060449e-08
-8.466298e-06 2.857639e-05 4.060449e-08
2.762304e-05 1.220687e-05 -4.898587e-23
-1.484536e-05 -2.629934e-05 -4.898587e-23
-2.777108e-05 -1.081921e-05 4.060449e-08
-2.018249e-05 2.193069e-05 4.060449e-08
-1.948285e-05 2.255453e-05 4.060449e-08
1.638746e-06 2.975908e-05 4.060449e-08
-5.926872e-07 2.979827e-05 4.060449e-08
3.860990e-06 2.955302e-05 4.060449e-08
-2.962615e-05 3.252592e-06 4.060449e-08
-2.969812e-05 2.512000e-06 4.060449e-08
-2.820797e-06 2.967038e-05 4.060449e-08
-2.978648e-05 1.026581e-06 4.060449e-08
-1.473580e-05 -2.636088e-05 -4.898587e-23
9.124961e-06 2.837293e-05 4.060449e-08
-2.742283e-05 1.167376e-05 4.060449e-08
-1.006422e-05 2.805352e-05 4.060449e-08
9.830411e-06 2.813630e-05 4.060449e-08
-2.098944e-05 -2.115967e-05 4.060449e-08
-2.979697e-05 -6.546819e-07 4.060449e-08
-2.756641e-05 -1.133054e-05 4.060449e-08
-2.079235e-06 2.973155e-05 4.060449e-08
-2.629942e-05 -1.402244e-05 4.060449e-08
-2.594117e-05 -1.467460e-05 4.060449e-08
-1.462598e-05 -2.642197e-05 -4.898587e-23
-3.929699e-06 -2.954396e-05 4.060449e-08
-2.980403e-05 8.936503e-08 4.060449e-08
-2.975157e-05 1.769842e-06 4.060449e-08
-4.474968e-06 -2.946630e-05 4.060449e-08
-3.190947e-06 -2.963286e-05 4.060449e-08
-2.977134e-05 -1.398321e-06 4.060449e-08
-6.667353e-06 -2.904883e-05 4.060449e-08
1.052973e-05 2.788213e-05 4.060449e-08
-2.849569e-05 -9.288761e-06 -1.979463e-07
-7.766715e-07 -2.996135e-05 -1.979463e-07
-1.451591e-05 -2.648260e-05 -4.898587e-23
-1.567101e-05 -2.554809e-05 -1.979463e-07
-1.404693e-05 2.647583e-05 -1.979463e-07
-2.687130e-05 1.327474e-05 -1.979463e-07
-2.226434e-05 2.006451e-05 -1.979463e-07
-2.580263e-05 1.524827e-05 -1.979463e-07
-1.873000e-05 -2.339813e-05 -1.979463e-07
2.119793e-06 -2.989678e-05 -1.980077e-07
-1.821796e-05 -2.379952e-05 -1.980077e-07
-2.546593e-05 1.580499e-05 -1.980077e-07
-1.261350e-07 -2.997157e-05 -1.980077e-07
-1.440559e-05 -2.654277e-05 -4.898587e-23
-1.814064e-05 -2.385813e-05 -1.979649e-07
-2.541438e-05 1.588718e-05 -1.979649e-07
-2.911597e-08 -2.997153e-05 -1.979649e-07
2.022986e-06 -2.990319e-05 -1.979649e-07
2.912616e-05 -7.853047e-06 1.111527e-07
-1.575439e-05 -2.549658e-05 -1.979240e-07
-2.846502e-05 -9.381848e-06 -1.979240e-07
-8.746409e-07 -2.995849e-05 -1.979240e-07
-1.413336e-05 2.642961e-05 -1.979240e-07
-2.691443e-05 1.318673e-05 -1.979240e-07
-1.429502e-05 -2.660249e-05 -4.898587e-23
-2.585222e-05 1.516374e-05 -1.979240e-07
-2.232972e-05 1.999150e-05 -1.979240e-07
-1.880632e-05 -2.333664e-05 -1.979240e-07
2.867150e-06 -2.983119e-05 -1.975290e-07
2.976451e-05 -4.881668e-06 1.170406e-07
1.175320e-05 2.778167e-05 1.122585e-07
1.882688e-05 -2.311758e-05 -7.347775e-08
1.882688e-05 2.311758e-05 -7.347775e-08
2.747874e-05 1.156688e-05 -7.347714e-08
2.747874e-05 -1.156688e-05 -7.347714e-08
-1.418420e-05 -2.666174e-05 -4.898587e-23
1.704423e-05 -2.446156e-05 -7.347620e-08
1.704423e-05 2.446156e-05 -7.347620e-08
-2.921307e-05 -5.992425e-06 -8.989246e-08
-1.374609e-05 -2.685082e-05 -1.131672e-07
2.691119e-05 1.330554e-05 -1.989138e-07
2.691119e-05 -1.330554e-05 -1.989138e-07
3.142318e-06 -2.968417e-05 1.323225e-07
1.383070e-05 -2.658784e-05 1.977392e-07
1.383070e-05 2.658784e-05 1.977392e-07
2.873241e-05 -8.593134e-06 1.997442e-07
-1.407314e-05 -2.672053e-05 -4.898587e-23
2.003849e-05 -2.232646e-05 1.999999e-07
2.003849e-05 2.232646e-05 1.999999e-07
8.521480e-06 -2.876450e-05 -1.999999e-07
2.521517e-05 -1.655782e-05 1.120770e-07
2.888929e-05 -7.817636e-06 1.867262e-07
5.607145e-06 -2.964363e-05 -1.065185e-07
1.182155e-05 2.735509e-05 -8.295025e-09
1.266986e-05 -2.723436e-05 1.965023e-07
2.935332e-05 5.305091e-06 1.035141e-07
1.152695e-05 -2.762361e-05 1.881441e-07
-1.396183e-05 -2.677886e-05 -4.898587e-23
1.194339e-05 2.769908e-05 -1.140754e-07
-1.587703e-05 2.552148e-05 -1.916921e-07
2.823512e-05 -9.586236e-06 8.308915e-08
1.946716e-05 -2.256601e-05 -3.214668e-08
1.946716e-05 2.256601e-05 -3.214668e-08
9.024814e-06 -2.840330e-05 3.214667e-08
2.705313e-05 -1.253073e-05 -7.422087e-08
2.705313e-05 1.253073e-05 -7.422087e-08
1.588562e-05 -2.564208e-05 -1.144204e-07
1.683454e-05 -2.502933e-05 -1.144204e-07
-1.385029e-05 -2.683672e-05 -4.898587e-23
1.683454e-05 2.502933e-05 -1.144204e-07
2.845834e-05 -9.999599e-06 -1.144204e-07
1.759829e-05 2.449835e-05 -1.144204e-07
1.759829e-05 -2.449835e-05 -1.144204e-07
2.799028e-05 -1.124336e-05 -1.144207e-07
2.799028e-05 1.124336e-05 -1.144207e-07
1.041298e-05 -2.830970e-05 1.144209e-07
1.866026e-05 2.369945e-05 -1.144209e-07
1.866026e-05 -2.369945e-05 -1.144209e-07
2.763029e-05 -1.210106e-05 -1.144265e-07
2.757201e-05 1.232170e-05 -4.898587e-23
-1.373850e-05 -2.689412e-05 -4.898587e-23
2.763029e-05 1.210106e-05 -1.144265e-07
9.535135e-06 -2.861730e-05 1.144304e-07
1.938212e-05 -2.311281e-05 -1.144304e-07
1.938212e-05 2.311281e-05 -1.144304e-07
1.544025e-05 2.556343e-05 -1.471357e-07
2.998677e-05 8.008217e-07 1.999839e-07
2.998677e-05 -8.008217e-07 1.999839e-07
2.712079e-05 -1.235845e-05 -3.895880e-08
2.712079e-05 1.235845e-05 -3.895880e-08
2.847839e-05 9.941917e-06 1.146304e-07
-1.362647e-05 -2.695105e-05 -4.898587e-23
2.423047e-05 -1.796741e-05 1.126245e-07
2.928316e-05 -5.637490e-06 8.895856e-08
2.310380e-05 1.939081e-05 1.162943e-07
2.563950e-05 1.524125e-05 1.012001e-07
1.774704e-05 2.394341e-05 -3.684585e-08
1.774704e-05 -2.394341e-05 -3.684585e-08
[...]
POINT_DATA 19111
VECTORS 10.000GHz_fone_imag double
1.079523e-04 1.420255e-05 5.010046e-02
3.322076e-04 5.995101e-05 4.991358e-02
-1.993548e-05 6.382430e-05 4.990148e-02
-4.378177e-04 2.026404e-04 4.992507e-02
3.603336e-03 -2.535220e-02 -4.544867e-02
6.488299e-03 -2.409212e-02 -4.542290e-02
2.456636e-03 -2.523254e-02 -4.539169e-02
2.004164e-02 1.583381e-02 -4.532576e-02
3.875895e-04 -2.491628e-02 -4.537434e-02
2.461662e-02 -4.498195e-03 -4.539252e-02
2.288677e-02 -9.854311e-03 -4.538629e-02
2.529738e-02 1.223106e-03 -4.526930e-02
2.316135e-02 8.996100e-03 -4.548003e-02
1.428079e-02 2.092073e-02 -4.528822e-02
5.248067e-05 -5.094816e-04 5.008046e-02
1.178815e-02 2.267833e-02 -4.529529e-02
2.276667e-02 1.014082e-02 -4.540815e-02
2.295460e-02 2.059616e-02 3.965672e-02
-3.926470e-02 3.113585e-02 8.909695e-03
-1.023449e-02 -1.837696e-02 -4.773506e-02
-1.023409e-02 1.837806e-02 -4.773507e-02
-2.856620e-02 -1.800129e-02 -4.009670e-02
-1.836990e-03 1.755815e-02 -4.941277e-02
2.827390e-02 5.464339e-03 4.169658e-02
-3.413315e-02 -1.249836e-02 -3.724684e-02
2.363677e-04 4.187608e-05 5.000185e-02
5.082712e-02 -5.163767e-03 -4.237937e-03
5.082772e-02 5.166462e-03 -4.237712e-03
6.992289e-03 -5.105202e-03 -5.129526e-02
-3.252290e-02 -3.926107e-02 -1.119214e-05
-3.252282e-02 3.926124e-02 -1.041322e-05
1.649780e-02 -4.826049e-02 2.747907e-04
-4.680535e-02 -2.016862e-02 1.823789e-05
-4.681823e-02 2.016928e-02 -2.650259e-05
-2.949484e-02 4.158390e-02 -3.065155e-05
-2.949373e-02 -4.158092e-02 -3.051979e-05
-1.516247e-04 1.703604e-04 4.998623e-02
-3.058620e-02 -4.116427e-02 2.988120e-04
-3.058644e-02 4.116471e-02 2.994545e-04
-4.662282e-02 2.159971e-02 5.216546e-05
-4.662808e-02 -2.160429e-02 4.935398e-05
-7.204098e-03 5.075522e-02 -4.451216e-03
-4.145325e-02 2.280958e-02 -2.128951e-02
1.521564e-02 -4.911900e-02 2.085528e-07
-3.385760e-02 3.871021e-02 -1.579911e-06
-3.385736e-02 -3.871031e-02 -1.740436e-06
2.336247e-03 2.486448e-02 -4.546371e-02
-3.628126e-04 -2.817942e-04 5.006132e-02
2.052513e-02 -5.254142e-03 -4.799701e-02
8.493817e-03 1.955510e-02 -4.799705e-02
1.689726e-02 1.840446e-02 -4.545898e-02
1.483135e-02 -2.020119e-02 -4.545534e-02
5.867582e-03 2.437105e-02 -4.545510e-02
2.277044e-02 4.613319e-02 -1.087918e-04
2.501267e-02 4.544939e-02 -6.252951e-05
5.035457e-02 1.094264e-02 -2.449240e-04
-2.412991e-03 5.179255e-02 9.391703e-07
1.244337e-02 4.970815e-02 4.975175e-04
1.422298e-04 -6.099813e-04 5.027863e-02
4.239462e-02 2.979378e-02 -2.853960e-04
4.605630e-02 -2.388037e-02 -5.214129e-05
5.144759e-02 6.286663e-03 1.262804e-04
4.042077e-02 -3.240305e-02 1.404091e-04
3.675928e-02 -3.660694e-02 -2.422939e-04
5.030487e-02 -1.007104e-02 5.215039e-04
3.927639e-02 3.396453e-02 -4.487557e-05
8.272563e-03 -5.084667e-02 -1.080638e-04
2.058565e-02 -4.724348e-02 -1.315294e-04
2.997985e-02 -4.157245e-02 4.900574e-04
-2.117271e-04 4.298162e-04 4.986814e-02
-8.098435e-03 -5.084771e-02 7.431374e-04
1.284461e-02 -4.965560e-02 3.959849e-04
-1.245298e-02 -4.975676e-02 2.818277e-04
4.339320e-02 -2.837177e-02 -3.582874e-05
2.052191e-02 4.734487e-02 -9.956477e-05
9.689153e-03 -5.095006e-02 -2.566022e-04
2.205126e-02 -4.701966e-02 -6.524423e-05
4.389882e-02 2.772566e-02 -4.574247e-05
4.085520e-02 3.187269e-02 -2.810161e-04
5.002448e-02 1.248191e-02 9.685385e-04
-4.007421e-04 -2.874046e-04 5.017390e-02
5.003887e-02 -1.281131e-02 -1.691673e-04
1.548303e-02 4.917437e-02 9.538446e-04
4.827936e-03 -5.030154e-02 -8.598323e-03
-5.346620e-03 3.045778e-02 3.953931e-02
-4.564771e-02 2.213333e-02 -1.341744e-03
-4.564672e-02 -2.213510e-02 -1.344421e-03
-2.596825e-02 5.378002e-03 4.222641e-02
-1.557120e-02 -2.562123e-02 4.025932e-02
-1.568104e-02 2.563482e-02 4.025496e-02
1.750480e-02 -4.366891e-02 -2.167568e-02
-6.890517e-04 -5.882638e-04 5.023649e-02
9.912840e-03 -2.135354e-03 -5.095481e-02
3.169283e-03 9.790039e-03 -5.100468e-02
1.019149e-02 -1.495999e-03 -5.094477e-02
6.009197e-03 8.108704e-03 -5.110167e-02
1.896686e-03 1.009432e-02 -5.111186e-02
1.001708e-02 -1.858321e-03 -5.104397e-02
9.964039e-03 2.575048e-03 -5.100168e-02
9.158233e-03 4.412717e-03 -5.112066e-02
6.718184e-03 7.635357e-03 -5.105503e-02
2.969950e-03 -9.698003e-03 -5.106960e-02
-1.567314e-04 -9.088423e-04 4.993484e-02
9.808943e-03 -3.429870e-03 -5.107051e-02
9.384228e-03 -3.806792e-03 -5.095986e-02
2.115513e-03 9.862295e-03 -5.093893e-02
-2.020514e-03 -9.919794e-03 -5.097257e-02
1.196685e-04 -1.015536e-02 -5.088515e-02
6.046371e-03 -8.312254e-03 -5.099942e-02
9.396995e-03 -4.025932e-03 -5.117917e-02
-1.705574e-03 -9.917517e-03 -5.109279e-02
2.853922e-03 -9.769036e-03 -5.110629e-02
3.232959e-03 -9.610552e-03 -5.094676e-02
-3.406533e-04 -2.011400e-04 5.029706e-02
-2.706123e-04 -7.851348e-04 5.017498e-02
9.635074e-03 3.524728e-03 -5.113808e-02
6.646344e-03 -7.745748e-03 -5.119722e-02
6.858878e-03 -7.314895e-03 -5.110004e-02
-7.058375e-04 -1.040647e-02 -5.106825e-02
-1.922978e-04 -1.005157e-02 -5.106340e-02
-1.719568e-03 -9.955324e-03 -5.099564e-02
1.012241e-02 -8.182303e-04 -5.089564e-02
1.012971e-02 -5.227486e-04 -5.087715e-02
6.456082e-04 -1.017992e-02 -5.123778e-02
1.008311e-02 -1.291218e-05 -5.108092e-02
5.151343e-04 5.398131e-04 5.024361e-02
-2.721035e-03 -9.778789e-03 -5.107600e-02
9.204650e-03 -4.291661e-03 -5.112535e-02
3.138342e-03 -9.703903e-03 -5.120825e-02
-3.026235e-03 -9.665416e-03 -5.095232e-02
7.142321e-03 7.396795e-03 -5.100530e-02
1.018584e-02 -4.419795e-05 -5.111538e-02
9.268585e-03 4.132638e-03 -5.088105e-02
3.970289e-04 -1.018797e-02 -5.104116e-02
9.012977e-03 4.957973e-03 -5.100201e-02
8.545977e-03 5.282856e-03 -5.108435e-02
-3.585076e-04 -2.148146e-04 5.026760e-02
1.063881e-03 1.006062e-02 -5.102680e-02
1.011437e-02 -4.047045e-04 -5.091554e-02
1.009867e-02 -2.319705e-04 -5.104804e-02
1.893132e-03 9.886993e-03 -5.091399e-02
7.356720e-04 1.013955e-02 -5.104434e-02
1.005330e-02 1.339227e-04 -5.107427e-02
2.648221e-03 9.651662e-03 -5.092359e-02
-3.309954e-03 -9.591540e-03 -5.095950e-02
-4.818366e-02 -1.572483e-02 -8.655664e-03
-1.209579e-03 -5.067812e-02 -8.745441e-03
4.076388e-04 3.123216e-05 4.983784e-02
-2.646022e-02 -4.326411e-02 -8.716075e-03
-2.376981e-02 4.475309e-02 -8.647962e-03
-4.542744e-02 2.254566e-02 -8.683777e-03
-3.765578e-02 3.391229e-02 -8.660575e-03
-4.361791e-02 2.575770e-02 -8.626836e-03
-3.165089e-02 -3.959560e-02 -8.692743e-03
3.712127e-03 -5.060035e-02 -8.710394e-03
-3.098597e-02 -4.019931e-02 -8.635517e-03
-4.316490e-02 2.664213e-02 -8.718522e-03
-3.780786e-04 -5.077287e-02 -8.620365e-03
-9.006322e-05 4.073747e-04 4.985858e-02
-3.073577e-02 -4.035333e-02 -8.803695e-03
-4.300573e-02 2.686998e-02 -8.776399e-03
-8.374834e-05 -5.074169e-02 -8.785989e-03
3.437530e-03 -5.059994e-02 -8.767376e-03
-2.759337e-02 7.534443e-03 4.151518e-02
-2.674120e-02 -4.311505e-02 -8.725254e-03
-4.807100e-02 -1.605804e-02 -8.622770e-03
-1.666675e-03 -5.064706e-02 -8.655479e-03
-2.406429e-02 4.456939e-02 -8.626297e-03
-4.558459e-02 2.226183e-02 -8.734205e-03
-1.755247e-04 -2.094507e-04 4.985892e-02
-4.378862e-02 2.546342e-02 -8.599699e-03
-3.788038e-02 3.364520e-02 -8.632451e-03
-3.182541e-02 -3.948614e-02 -8.645490e-03
4.883072e-03 -5.055800e-02 -8.652968e-03
-2.971881e-02 4.948115e-03 4.045123e-02
-1.124429e-02 -2.680164e-02 4.151094e-02
1.241329e-02 -1.470145e-02 -4.869470e-02
1.241302e-02 1.470129e-02 -4.869443e-02
1.761964e-02 7.796671e-03 -4.872386e-02
1.760998e-02 -7.780822e-03 -4.871149e-02
-1.953319e-04 -6.848223e-04 5.020191e-02
1.127573e-02 -1.558831e-02 -4.868868e-02
1.127414e-02 1.559034e-02 -4.868730e-02
-2.290899e-02 -4.077625e-03 -4.631355e-02
-1.345713e-02 -2.542888e-02 4.106740e-02
4.550965e-02 2.280951e-02 4.589332e-03
4.551069e-02 -2.280832e-02 4.588846e-03
-3.908167e-03 3.335059e-02 -3.913651e-02
-2.329511e-02 4.511875e-02 -9.237551e-03
-2.329529e-02 -4.510990e-02 -9.237818e-03
-4.899736e-02 1.451528e-02 -3.572486e-03
3.634102e-04 8.057250e-04 5.036784e-02
-3.410710e-02 3.770297e-02 -8.161152e-04
-3.410750e-02 -3.770316e-02 -8.187416e-04
1.424381e-02 -4.879562e-02 -7.993189e-04
-2.365501e-02 1.547074e-02 4.152141e-02
-4.649546e-02 1.262326e-02 -1.885570e-02
5.186565e-03 -2.639066e-02 4.250432e-02
9.404491e-04 2.322946e-03 -5.247895e-02
-2.152165e-02 4.540837e-02 9.464458e-03
-2.656908e-02 -4.681436e-03 -4.500351e-02
-1.853259e-02 4.472234e-02 -1.889052e-02
-3.732182e-04 4.002113e-05 4.990972e-02
1.197884e-02 2.691431e-02 4.076946e-02
-2.606087e-02 4.160032e-02 1.341450e-02
-2.076807e-02 7.138875e-03 -4.777026e-02
5.951784e-03 -6.935365e-03 -5.176235e-02
5.952466e-03 6.936286e-03 -5.176223e-02
-2.799558e-03 8.707644e-03 -5.177181e-02
1.787172e-02 -8.295844e-03 -4.873559e-02
1.787004e-02 8.294217e-03 -4.873563e-02
1.524235e-02 -2.469807e-02 4.099238e-02
1.607621e-02 -2.423699e-02 4.093837e-02
-1.832617e-04 -1.031914e-03 5.044150e-02
1.606997e-02 2.425968e-02 4.092352e-02
2.730542e-02 -9.709302e-03 4.105932e-02
1.717128e-02 2.328566e-02 4.103421e-02
1.717072e-02 -2.328530e-02 4.103373e-02
2.705647e-02 -1.066974e-02 4.093895e-02
2.708851e-02 1.065934e-02 4.092560e-02
-1.013987e-02 2.710101e-02 4.098528e-02
1.783844e-02 2.295224e-02 4.093392e-02
1.783907e-02 -2.295248e-02 4.093405e-02
2.633649e-02 -1.194093e-02 4.102307e-02
1.401850e-04 -8.276126e-05 4.976504e-02
-1.273128e-04 -1.804651e-04 5.016514e-02
2.637129e-02 1.195460e-02 4.101031e-02
-8.780648e-03 2.753109e-02 4.097382e-02
1.886454e-02 -2.191871e-02 4.100929e-02
1.886454e-02 2.191863e-02 4.100931e-02
1.976807e-02 3.258180e-02 -3.574240e-02
-5.141388e-02 -1.504364e-03 -2.054346e-03
-5.140658e-02 1.504752e-03 -2.067271e-03
9.682887e-03 -4.345099e-03 -5.158227e-02
9.683781e-03 4.343310e-03 -5.157958e-02
-2.757865e-02 -9.738348e-03 4.089747e-02
-2.157031e-04 -4.430901e-04 5.006669e-02
-2.262919e-02 1.700431e-02 4.144356e-02
-2.219851e-02 4.372399e-03 -4.760091e-02
-2.256172e-02 -1.884823e-02 4.076602e-02
-2.231056e-02 -1.331776e-02 -4.541410e-02
5.761594e-03 7.733166e-03 -5.162786e-02
5.761406e-03 -7.733015e-03 -5.162786e-02
8.486767e-03 -2.971906e-03 -5.198380e-02
8.659459e-03 3.140806e-03 -5.190948e-02
3.700424e-03 -4.990969e-03 -5.194909e-02
2.826556e-03 -4.538084e-03 -5.224955e-02
1.657485e-04 -4.257030e-04 5.018972e-02
4.276897e-03 6.729448e-03 -5.249355e-02
3.701201e-03 4.993586e-03 -5.194912e-02
5.625870e-03 2.627540e-03 -5.198571e-02
5.660145e-03 -2.581176e-03 -5.196411e-02
4.061765e-03 4.695565e-03 -5.193910e-02
4.062243e-03 -4.696069e-03 -5.193959e-02
-1.742669e-03 5.490620e-03 -5.210624e-02
-1.875006e-02 -4.728737e-02 6.773829e-03
-1.852856e-02 2.891323e-02 -3.956382e-02
2.528833e-03 -5.129433e-03 -5.226448e-02
8.104257e-04 8.010079e-04 5.035325e-02
4.424667e-02 2.408508e-03 -2.640259e-02
4.424686e-02 -2.408620e-03 -2.640370e-02
-1.921378e-02 4.384916e-02 -1.880055e-02
-9.407560e-03 -2.307199e-02 -4.636522e-02
-6.144307e-03 2.060612e-02 -4.790825e-02
1.433921e-02 -1.602820e-02 -4.791174e-02
1.433910e-02 1.602817e-02 -4.791201e-02
3.586904e-02 -3.401783e-02 -1.429286e-02
2.573236e-02 1.533531e-02 -4.260137e-02
-1.920844e-02 5.693557e-03 -4.881506e-02
-7.167629e-04 5.155356e-04 5.019606e-02
-4.800796e-02 -1.698112e-02 -7.572716e-03
1.303429e-02 -2.640341e-02 4.068346e-02
2.764980e-02 -4.701834e-03 4.204853e-02
-1.506880e-02 4.066749e-03 -5.018729e-02
3.186228e-02 -4.022716e-02 1.954890e-03
-1.729910e-02 4.799132e-02 3.568860e-03
3.186179e-02 4.022735e-02 1.955447e-03
4.756755e-02 1.926623e-02 1.933507e-03
4.757600e-02 -1.926972e-02 1.965458e-03
2.876479e-02 -4.251212e-02 1.960050e-03
-8.593104e-06 -5.974430e-04 4.999896e-02
2.876141e-02 4.250868e-02 1.944755e-03
2.717143e-02 -4.337223e-02 3.113310e-03
4.852141e-02 -1.683911e-02 2.231920e-03
2.972823e-02 -4.167512e-02 3.085985e-03
2.972881e-02 4.167564e-02 3.085974e-03
4.694605e-02 2.040793e-02 3.051140e-03
4.695054e-02 -2.039206e-02 3.086964e-03
3.276813e-02 -3.932101e-02 3.077733e-03
3.276830e-02 3.932103e-02 3.077085e-03
-1.632398e-02 4.845802e-02 3.061946e-03
3.622240e-04 6.781198e-04 5.030550e-02
-6.149702e-03 2.741554e-02 4.117348e-02
7.276459e-03 -1.963543e-02 -4.778573e-02
3.037216e-02 -4.885040e-03 3.984164e-02
-2.105737e-02 1.436402e-02 4.312033e-02
2.701332e-02 4.363833e-02 -7.376571e-04
-1.753908e-02 -3.505140e-03 -4.838192e-02
-1.453363e-02 1.018899e-02 -4.847678e-02
1.969762e-02 1.905730e-02 4.181604e-02
1.973402e-02 -1.902349e-02 4.173970e-02
-1.955443e-02 1.913740e-02 4.185092e-02
-5.463238e-04 -5.711350e-04 5.017966e-02
-2.815353e-02 3.706898e-04 4.182791e-02
-2.819664e-02 -4.091353e-04 4.184298e-02
-1.614534e-03 -2.638734e-03 -5.265716e-02
-2.069640e-02 4.553478e-02 9.343525e-03
-1.265421e-02 -3.250745e-02 -3.910815e-02
2.985197e-03 -2.761276e-02 4.179667e-02
2.250642e-02 -4.523563e-02 7.409461e-03
2.257579e-02 4.513010e-02 7.702954e-03
-4.000556e-02 3.075593e-02 -8.765482e-03
-1.394786e-02 -4.859489e-02 -8.772045e-03
-1.414110e-04 -2.299069e-04 4.980504e-02
-2.487311e-02 4.389315e-02 -8.785618e-03
-1.865760e-02 -4.697772e-02 -8.796171e-03
-3.266275e-02 -3.846733e-02 -8.802468e-03
2.640435e-02 -1.276137e-02 4.078785e-02
2.640415e-02 1.276220e-02 4.078779e-02
-1.863208e-02 1.228900e-02 -4.737221e-02
-4.453575e-02 -2.193492e-02 1.118940e-02
-4.453662e-02 2.193418e-02 1.118964e-02
-4.859075e-02 8.243853e-03 -1.476442e-02
-1.951990e-02 -1.786492e-02 4.210477e-02
-8.735014e-05 -6.641449e-04 5.014542e-02
-2.805220e-02 9.943004e-03 4.061563e-02
-2.288880e-02 -1.299647e-02 4.282847e-02
2.173922e-02 -1.704731e-02 4.189890e-02
2.072315e-02 -1.843665e-02 4.177182e-02
2.205729e-02 1.708582e-02 4.172482e-02
2.185074e-02 1.758693e-02 4.140537e-02
-5.739735e-03 2.703025e-02 4.197362e-02
1.965468e-02 -1.881678e-02 4.176048e-02
2.100014e-02 -1.750888e-02 4.163775e-02
1.973980e-02 1.904022e-02 4.165209e-02
-3.613423e-05 1.441921e-04 5.003101e-02
-1.995051e-04 1.086002e-04 4.979828e-02
2.203873e-02 1.579816e-02 4.156755e-02
2.214064e-02 2.805886e-04 -4.759229e-02
2.211984e-02 -2.885532e-04 -4.759318e-02
2.806118e-02 -7.089315e-03 4.102123e-02
-8.095439e-03 2.771983e-02 4.107931e-02
1.938051e-02 -2.142525e-02 4.106384e-02
1.938078e-02 2.142519e-02 4.106347e-02
3.732348e-02 2.668487e-02 -2.403103e-02
2.401986e-02 -4.557172e-02 1.647312e-03
2.401787e-02 4.556353e-02 1.647634e-03
-3.946438e-04 -3.457646e-04 5.010211e-02
4.156635e-03 -6.703261e-03 -5.207954e-02
3.550537e-02 -3.489095e-02 -1.353375e-02
3.549937e-02 3.489524e-02 -1.359830e-02
-2.847253e-02 6.303269e-03 4.090131e-02
-2.746416e-02 4.225628e-02 7.254944e-03
4.218007e-02 -2.860967e-02 -3.499524e-03
-2.921272e-02 -3.001763e-03 4.093962e-02
-2.921219e-02 3.000668e-03 4.093795e-02
-4.831082e-02 -1.608498e-02 3.808736e-03
5.078194e-02 -5.480141e-03 -6.214881e-03
-7.546681e-04 -9.635872e-04 5.022360e-02
5.078508e-02 5.485626e-03 -6.211079e-03
1.025081e-02 2.486528e-02 4.241813e-02
-1.155458e-02 -2.458346e-02 4.210040e-02
1.614609e-02 3.823491e-02 -3.016018e-02
1.339468e-02 3.212822e-02 -3.868766e-02
-8.881916e-03 -4.625718e-02 -2.242678e-02
-1.399302e-02 4.493371e-02 -2.240912e-02
-3.138662e-02 3.507315e-02 -2.240892e-02
-4.710725e-02 8.221092e-04 -2.243721e-02
-4.937310e-02 1.109137e-02 7.002619e-03
4.810347e-05 -1.102539e-03 4.999674e-02
-1.470081e-02 -4.843403e-02 7.089246e-03
-3.999861e-02 -3.100837e-02 7.179579e-03
-4.148509e-02 -2.897081e-02 7.166346e-03
-3.670611e-02 -3.480151e-02 7.079727e-03
-2.114816e-02 4.587142e-02 6.725076e-03
-3.961112e-02 3.147699e-02 7.088022e-03
-5.033405e-02 -4.173331e-03 6.762087e-03
-3.159523e-02 3.950122e-02 7.080252e-03
1.193253e-03 5.059234e-02 7.011524e-03
8.389606e-03 4.990833e-02 7.172918e-03
8.622661e-05 -5.474508e-04 5.000963e-02
-3.842568e-02 -3.298113e-02 7.141144e-03
1.364289e-02 4.872633e-02 7.003753e-03
-9.150394e-03 4.967301e-02 6.734476e-03
-6.656544e-03 5.015712e-02 7.062880e-03
-1.884141e-02 4.694220e-02 7.058320e-03
4.658378e-03 5.038378e-02 7.082979e-03
-1.139107e-02 4.920553e-02 6.731438e-03
-4.291753e-02 -2.686810e-02 7.165437e-03
-3.556174e-02 3.584020e-02 6.740229e-03
-2.396199e-02 -4.445683e-02 6.725625e-03
4.425336e-04 3.052869e-04 5.035380e-02
-4.922723e-02 -1.171322e-02 7.005817e-03
-4.839588e-02 1.478249e-02 7.093401e-03
-1.795077e-02 -4.731956e-02 7.087044e-03
-5.021563e-02 -6.471663e-03 7.099333e-03
-2.148714e-02 -4.581275e-02 6.984364e-03
-4.537515e-02 -2.239071e-02 7.007904e-03
2.448139e-02 4.227091e-02 -1.685494e-02
2.447594e-02 -4.225849e-02 -1.684411e-02
2.715894e-02 -7.231725e-03 4.146958e-02
1.503905e-02 3.046598e-02 -3.966928e-02
-7.094112e-04 1.331573e-04 5.019651e-02
1.495557e-02 -3.047890e-02 -3.980044e-02
-1.743113e-02 1.803845e-02 -4.588126e-02
-1.743040e-02 -1.803884e-02 -4.588140e-02
6.239767e-03 -2.424870e-02 -4.588061e-02
1.141433e-02 1.046516e-02 -5.020441e-02
-2.594105e-02 6.958814e-03 4.193671e-02
-1.047352e-02 -2.481049e-02 4.199774e-02
1.204646e-02 -9.654786e-03 -5.023249e-02
2.909461e-02 -6.041374e-03 4.063549e-02
-2.675138e-03 4.101104e-03 -5.206190e-02
-4.084305e-05 -8.082067e-04 4.994825e-02
-2.663068e-03 -4.124171e-03 -5.205734e-02
-4.582183e-03 -1.738204e-03 -5.205100e-02
-4.556320e-03 1.755506e-03 -5.206581e-02
-2.980473e-03 3.896227e-03 -5.205714e-02
-2.981174e-03 -3.896807e-03 -5.205746e-02
-1.145280e-02 -2.914750e-02 3.971738e-02
-3.813167e-02 1.217185e-03 -3.568238e-02
-3.812892e-02 -1.227066e-03 -3.569360e-02
-2.354578e-06 7.825757e-03 -5.221879e-02
6.847691e-03 -3.716837e-03 -5.224329e-02
-2.177832e-04 -3.289120e-06 5.021572e-02
3.893021e-03 6.781309e-03 -5.224308e-02
4.803781e-03 6.151855e-03 -5.222078e-02
-2.617924e-02 -5.103128e-03 -4.518826e-02
4.971142e-02 1.111888e-02 -5.924870e-03
-2.125188e-02 -1.499918e-02 4.265513e-02
-3.193427e-02 -3.303910e-03 -4.123801e-02
-3.193385e-02 3.303387e-03 -4.123520e-02
1.331969e-02 2.597841e-02 -4.325569e-02
1.332975e-02 -2.598593e-02 -4.325418e-02
2.144149e-03 -3.483599e-02 -3.876810e-02
-8.820651e-05 -6.616473e-04 4.997125e-02
-2.106469e-02 -2.792593e-02 -3.870434e-02
-2.948314e-02 1.868425e-02 -3.878447e-02
9.944915e-05 -3.499193e-02 -3.869048e-02
-3.394039e-02 -6.961953e-03 -3.926643e-02
-3.293618e-02 -3.204624e-03 -4.037157e-02
-3.293992e-02 3.203645e-03 -4.036971e-02
1.320683e-02 -4.918272e-02 4.542783e-03
1.341517e-02 -4.901479e-02 -6.476452e-03
-3.497699e-02 3.704070e-02 4.474356e-03
-3.469104e-02 3.710275e-02 -6.515814e-03
-3.418978e-04 -6.787926e-05 4.968032e-02
-2.164400e-04 -4.692569e-04 4.998915e-02
-3.497617e-02 -3.704005e-02 4.475361e-03
-3.469241e-02 -3.710345e-02 -6.515026e-03
-1.110535e-02 4.843562e-02 -1.381576e-02
2.747702e-02 -1.888231e-02 -4.025545e-02
3.097832e-02 2.936625e-03 3.978003e-02
3.094720e-02 -2.942861e-03 3.978619e-02
-1.318456e-02 -2.674776e-02 4.057534e-02
-1.315180e-02 2.671760e-02 4.051906e-02
-1.984204e-02 2.083081e-02 4.124753e-02
-1.984167e-02 -2.083063e-02 4.124675e-02
1.967857e-04 1.086592e-04 4.979802e-02
7.162845e-03 -2.699085e-02 4.190207e-02
-2.025143e-02 -4.638091e-02 -9.047271e-03
-4.902270e-02 1.240384e-02 -8.989132e-03
2.386013e-02 1.388813e-02 4.197061e-02
-2.039886e-02 -3.838120e-02 -2.844977e-02
-2.039697e-02 3.838183e-02 -2.845182e-02
-8.240717e-03 1.456544e-02 -4.993374e-02
-8.245459e-03 -1.456039e-02 -4.993179e-02
-4.888196e-02 1.507403e-02 -3.713406e-03
-2.780268e-02 4.301340e-02 -3.672829e-03
-6.072154e-04 -6.027810e-04 5.026448e-02
-5.080225e-02 -6.429235e-03 -3.681030e-03
-1.985137e-03 -5.111877e-02 -3.898811e-03
5.186537e-03 -1.050006e-02 -5.139781e-02
5.202181e-03 1.088536e-02 -5.099073e-02
-1.191452e-02 2.771691e-03 -5.106687e-02
-9.360591e-03 -6.980353e-03 -5.126007e-02
4.224763e-04 -1.179953e-02 -5.150097e-02
-5.385260e-03 1.055143e-02 -5.140207e-02
-9.701005e-03 -6.505310e-03 -5.125960e-02
-5.826028e-03 -1.030060e-02 -5.145454e-02
3.318557e-04 -2.382714e-04 5.012012e-02
-2.512859e-03 1.154441e-02 -5.139114e-02
-5.112893e-03 -1.113452e-02 -5.108770e-02
-9.256788e-03 7.824888e-03 -5.146521e-02
-1.012094e-02 6.663754e-03 -5.115506e-02
-1.014718e-02 -6.765028e-03 -5.141853e-02
-1.054997e-02 5.737957e-03 -5.140456e-02
-8.414908e-03 8.198742e-03 -5.146765e-02
-1.183334e-02 -1.078805e-03 -5.135217e-02
-1.223246e-03 1.175099e-02 -5.115276e-02
-4.088125e-03 1.108399e-02 -5.117185e-02