# vtk DataFile Version 2.0
Electric current density generated by TTH
ASCII
DATASET UNSTRUCTURED_GRID
POINTS 5605 double
3.613266e-05 -8.849950e-21 -1.961896e-22
3.585026e-05 4.508690e-06 -1.961896e-22
6.987544e-06 3.545058e-05 -1.961896e-22
7.976581e-06 3.363743e-05 2.487472e-07
-1.169567e-05 3.253186e-05 2.490916e-07
-2.587040e-05 -2.293104e-05 2.490916e-07
3.088046e-05 -1.764285e-05 7.662478e-07
3.088046e-05 1.764285e-05 7.662478e-07
-4.381490e-06 3.428780e-05 -2.373205e-07
-3.434540e-05 -3.904452e-06 -2.373205e-07
-3.006056e-05 1.706498e-05 -2.373205e-07
-2.422281e-05 -2.465981e-05 -2.373205e-07
-2.826126e-05 1.990570e-05 -2.412157e-07
6.494092e-06 3.554428e-05 -1.961896e-22
-3.380472e-05 -7.223315e-06 -2.412157e-07
-2.619369e-05 2.255720e-05 -2.412882e-07
-2.387829e-05 2.499528e-05 -2.412896e-07
2.372340e-05 2.651844e-05 -7.611162e-07
2.372340e-05 -2.651844e-05 -7.611162e-07
1.189908e-05 -3.243514e-05 1.699908e-07
-1.579154e-05 -3.116398e-05 -6.968087e-07
-1.123800e-05 -3.304297e-05 -6.758458e-07
3.509531e-05 6.077597e-06 7.482041e-07
3.509531e-05 -6.077597e-06 7.482041e-07
5.999384e-06 3.563112e-05 -1.961896e-22
1.667718e-05 -3.135574e-05 7.797556e-07
7.237421e-06 3.383430e-05 -3.253644e-07
-2.805915e-06 3.448587e-05 -3.256315e-07
-3.452154e-05 -2.326277e-06 -3.256315e-07
-3.084170e-05 1.568241e-05 -3.256315e-07
-1.708831e-05 3.008551e-05 -3.256315e-07
-1.094762e-05 3.282221e-05 -3.256315e-07
-2.535339e-05 -2.354472e-05 -3.256315e-07
1.903316e-05 3.015798e-05 7.297988e-07
1.903316e-05 -3.015798e-05 7.297988e-07
5.503518e-06 3.571107e-05 -1.961896e-22
-5.331309e-06 3.414179e-05 1.980805e-07
-3.421587e-05 -4.883422e-06 2.239846e-07
-2.955738e-05 1.791466e-05 2.239846e-07
-2.350489e-05 -2.533739e-05 2.184027e-07
-3.357815e-05 -8.158803e-06 1.965705e-07
-2.767278e-05 2.070651e-05 2.224166e-07
-2.553009e-05 2.329713e-05 2.223875e-07
-2.316450e-05 2.564105e-05 1.965420e-07
-6.142805e-06 3.406190e-05 -3.504250e-07
-2.295542e-05 -2.590359e-05 -3.504250e-07
5.006588e-06 3.578412e-05 -1.961896e-22
-3.414400e-05 -5.668738e-06 -3.504250e-07
-2.918319e-05 1.860883e-05 -3.504250e-07
-3.343196e-05 -8.959111e-06 -3.508570e-07
-2.723743e-05 2.135612e-05 -3.508570e-07
-2.503379e-05 2.390128e-05 -3.508649e-07
-2.259330e-05 2.622031e-05 -3.508651e-07
-2.656084e-05 -2.226105e-05 -4.300983e-07
-1.262291e-05 3.227530e-05 -4.300983e-07
9.334718e-06 -3.392872e-05 -7.882741e-07
1.668981e-05 3.135516e-05 7.784611e-07
4.508690e-06 3.585026e-05 -1.961896e-22
1.590679e-05 3.182301e-05 7.624740e-07
1.504650e-05 -3.110435e-05 -1.859436e-07
-9.171707e-06 -3.374632e-05 7.149541e-07
7.284854e-06 -3.420612e-05 7.163421e-07
3.363954e-05 7.830467e-06 1.145476e-07
3.363954e-05 -7.830467e-06 1.145476e-07
3.578840e-05 -1.004042e-06 6.480267e-07
3.542430e-05 -1.859356e-06 7.884252e-07
3.578840e-05 1.004042e-06 6.480267e-07
3.542430e-05 1.859356e-06 7.884252e-07
4.009922e-06 3.590947e-05 -1.961896e-22
8.964819e-06 3.349133e-05 -4.520511e-07
3.470311e-05 -7.274801e-06 -7.910703e-07
3.470311e-05 7.274801e-06 -7.910703e-07
3.206137e-05 1.282512e-05 -3.385179e-08
3.206137e-05 -1.282512e-05 -3.385179e-08
3.033840e-05 1.660399e-05 -2.895950e-07
3.033840e-05 -1.660399e-05 -2.895950e-07
2.175327e-05 2.683004e-05 1.260648e-07
2.175327e-05 -2.683004e-05 1.260648e-07
2.859866e-05 1.944635e-05 -2.870810e-07
3.510378e-06 3.596174e-05 -1.961896e-22
2.859866e-05 -1.944635e-05 -2.870810e-07
-5.192176e-07 -3.497615e-05 7.196844e-07
1.219933e-05 -3.341703e-05 -7.634099e-07
1.555493e-05 -3.204358e-05 7.475093e-07
1.658450e-05 3.032830e-05 -2.373490e-07
1.659769e-05 -3.032320e-05 -2.432355e-07
2.319404e-05 2.559296e-05 1.173621e-07
2.319404e-05 -2.559296e-05 1.173621e-07
3.396246e-05 -1.098290e-05 -7.142836e-07
3.396246e-05 1.098290e-05 -7.142836e-07
3.010156e-06 3.600706e-05 -1.961896e-22
-3.730575e-06 3.445124e-05 4.249006e-07
-2.474849e-05 -2.425575e-05 4.254424e-07
-3.045878e-05 1.652477e-05 4.249006e-07
-3.449977e-05 -3.251329e-06 4.249006e-07
-3.400536e-05 -6.617476e-06 4.095316e-07
-2.868348e-05 1.942713e-05 4.095316e-07
-2.666005e-05 2.212225e-05 4.094505e-07
-2.438470e-05 2.460769e-05 4.094490e-07
3.450254e-05 2.037512e-06 2.241181e-07
3.450254e-05 -2.037512e-06 2.241181e-07
2.509353e-06 3.604542e-05 -1.961896e-22
1.697519e-05 3.128088e-05 -7.581897e-07
1.698421e-05 -3.124554e-05 -7.667849e-07
2.761863e-05 -2.073697e-05 -1.013727e-07
2.761863e-05 2.073697e-05 -1.013727e-07
3.196582e-05 -1.565251e-05 -7.573987e-07
3.196582e-05 1.565251e-05 -7.573987e-07
1.749430e-05 -3.103679e-05 7.442921e-07
1.337615e-05 -3.298170e-05 -7.578858e-07
3.408935e-05 -1.038747e-05 7.405952e-07
3.408935e-05 1.038747e-05 7.405952e-07
3.578412e-05 5.006588e-06 -1.961896e-22
2.008064e-06 3.607682e-05 -1.961896e-22
1.135141e-05 3.263125e-05 1.717351e-07
2.418768e-05 -2.476951e-05 -3.684166e-07
2.418768e-05 2.476951e-05 -3.684166e-07
2.467534e-06 -3.445534e-05 -1.433284e-07
4.258835e-06 -3.427933e-05 -1.393986e-07
-6.140819e-06 -3.399336e-05 -1.432778e-07
-4.378742e-06 -3.426492e-05 -1.432624e-07
-1.111599e-05 -3.383982e-05 -7.477695e-07
2.072951e-05 -2.772313e-05 -3.602698e-07
2.072951e-05 2.772313e-05 -3.602698e-07
1.506388e-06 3.610125e-05 -1.961896e-22
2.075760e-05 2.855805e-05 8.005601e-07
2.075760e-05 -2.855805e-05 8.005601e-07
1.749572e-05 3.102753e-05 7.471785e-07
2.663407e-05 -2.219766e-05 4.535805e-07
2.663407e-05 2.219766e-05 4.535805e-07
1.265795e-05 3.329333e-05 7.479260e-07
2.570448e-05 2.455412e-05 -7.713750e-07
2.570448e-05 -2.455412e-05 -7.713750e-07
3.266861e-05 -1.119781e-05 7.796590e-08
3.266861e-05 1.119781e-05 7.796590e-08
1.004420e-06 3.611870e-05 -1.961896e-22
3.550350e-05 2.811924e-06 -7.493393e-07
3.550350e-05 -2.811924e-06 -7.493393e-07
3.235873e-05 -1.432290e-05 -7.990977e-07
3.235873e-05 1.432290e-05 -7.990977e-07
2.300034e-05 2.603966e-05 -5.432728e-07
2.300034e-05 -2.603966e-05 -5.432728e-07
2.503233e-05 -2.487224e-05 7.998166e-07
2.503233e-05 2.487224e-05 7.998166e-07
2.797173e-05 2.207552e-05 -7.419573e-07
2.797173e-05 -2.207552e-05 -7.419573e-07
5.022586e-07 3.612917e-05 -1.961896e-22
1.397406e-05 3.281538e-05 -7.275049e-07
-3.503996e-05 6.392396e-06 -7.479705e-07
-3.025752e-05 -1.879212e-05 -7.479705e-07
-3.194009e-05 -1.576363e-05 -7.479705e-07
-3.549121e-05 2.934969e-06 -7.502111e-07
-3.384151e-05 1.115805e-05 -7.419372e-07
-1.444707e-05 3.259170e-05 -7.349406e-07
-2.195078e-05 2.795277e-05 -7.730448e-07
-3.332290e-05 -1.256281e-05 -7.502111e-07
-9.776584e-06 3.428346e-05 -7.349406e-07
2.212488e-21 3.613266e-05 -1.961896e-22
-2.831114e-05 -2.166470e-05 -7.352875e-07
-3.425495e-05 9.759647e-06 -7.480207e-07
3.983932e-06 3.538882e-05 -7.502111e-07
2.518378e-06 3.554445e-05 -7.419372e-07
-1.024517e-05 3.298313e-05 1.057730e-07
2.190568e-05 2.820823e-05 -7.033044e-07
2.190568e-05 -2.820823e-05 -7.033044e-07
3.454575e-05 9.799506e-07 -2.135638e-07
3.454575e-05 -9.799506e-07 -2.135638e-07
-2.196707e-05 2.664566e-05 6.409406e-08
-5.022586e-07 3.612917e-05 -1.961896e-22
-1.801049e-05 -2.947690e-05 1.438204e-07
1.843337e-05 -3.051864e-05 -7.334779e-07
1.843337e-05 3.051864e-05 -7.334779e-07
-1.288462e-05 -3.205803e-05 1.768085e-07
1.085304e-05 -3.399982e-05 -7.163811e-07
3.119424e-05 -1.717091e-05 -7.518740e-07
3.119424e-05 1.717091e-05 -7.518740e-07
3.453843e-05 8.835591e-06 7.347361e-07
3.453843e-05 -8.835591e-06 7.347361e-07
1.121007e-05 3.384403e-05 7.340426e-07
-1.004420e-06 3.611870e-05 -1.961896e-22
9.725977e-06 3.432991e-05 7.207861e-07
-2.288440e-05 2.726740e-05 7.554800e-07
-3.426187e-05 -9.660836e-06 7.554787e-07
-6.773543e-06 3.494769e-05 7.554072e-07
1.348441e-05 3.304718e-05 7.151867e-07
2.059029e-05 -2.917248e-05 -7.075949e-07
2.059029e-05 2.917248e-05 -7.075949e-07
2.957462e-05 -1.988676e-05 7.396775e-07
2.957462e-05 1.988676e-05 7.396775e-07
-1.862735e-05 -3.044456e-05 7.158651e-07
-1.506388e-06 3.610125e-05 -1.961896e-22
-1.715678e-05 3.120408e-05 7.512071e-07
-1.079848e-05 3.393291e-05 7.512071e-07
6.965677e-06 3.492188e-05 7.511612e-07
-5.337991e-07 3.565443e-05 7.313222e-07
-2.768959e-05 -2.240068e-05 7.488130e-07
-1.962411e-05 2.977277e-05 7.313222e-07
-1.351390e-05 3.300798e-05 7.273169e-07
-3.565841e-05 -3.813638e-08 7.313222e-07
-3.278506e-05 1.402368e-05 7.313222e-07
-2.234985e-05 -2.632564e-05 6.619965e-08
-2.008064e-06 3.607682e-05 -1.961896e-22
3.453953e-05 -9.031244e-06 -7.109092e-07
3.453953e-05 9.031244e-06 -7.109092e-07
-2.152188e-05 -2.852382e-05 -6.935912e-07
-1.878290e-05 -2.897686e-05 4.563308e-08
2.892039e-05 2.087495e-05 -7.273153e-07
2.892039e-05 -2.087495e-05 -7.273153e-07
-2.324148e-06 -3.445241e-05 9.953614e-09
1.168186e-05 3.370093e-05 -7.268903e-07
1.445208e-05 -3.158496e-05 -5.336501e-07
-1.982088e-06 3.561014e-05 -7.282312e-07
-2.509353e-06 3.604542e-05 -1.961896e-22
-2.642792e-05 2.396667e-05 -7.228190e-07
-1.840201e-05 3.055121e-05 -7.282312e-07
-3.219449e-05 1.534683e-05 -7.282312e-07
-3.056389e-05 1.840339e-05 -7.228195e-07
-3.533775e-05 -4.940440e-06 -7.206033e-07
-2.433949e-05 -2.608496e-05 -7.228195e-07
-2.675144e-05 -2.360485e-05 -7.228697e-07
-1.214538e-05 3.354576e-05 -7.228697e-07
-2.863132e-05 2.128576e-05 -7.228190e-07
-2.397448e-05 2.642083e-05 -7.228190e-07
3.571107e-05 5.503518e-06 -1.961896e-22
-3.010156e-06 3.600706e-05 -1.961896e-22
-3.468651e-05 -8.347573e-06 -7.228190e-07
-3.563425e-05 -1.486901e-06 -7.282312e-07
-5.431172e-06 3.526566e-05 -7.206033e-07
8.347602e-06 3.468631e-05 -7.229083e-07
-2.352861e-06 -3.560080e-05 -7.220323e-07
3.006099e-05 -1.748622e-05 5.777756e-07
3.006099e-05 1.748622e-05 5.777756e-07
3.452843e-05 2.969582e-06 -4.300563e-07
3.452843e-05 -2.969582e-06 -4.300563e-07
5.774164e-06 3.508687e-05 -7.681203e-07
-3.510378e-06 3.596174e-05 -1.961896e-22
6.259964e-07 3.555331e-05 -7.681195e-07
-7.972154e-06 3.465363e-05 -7.681195e-07
-2.052590e-05 2.903648e-05 -7.681195e-07
-3.554117e-05 1.120141e-06 -7.681195e-07
-1.606999e-05 3.172042e-05 -7.681195e-07
-3.313160e-05 1.291226e-05 -7.681195e-07
-3.386902e-05 -1.083138e-05 -7.681195e-07
[...]
POINT_DATA 5605
VECTORS 10.000GHz_fone_imag double
7.737947e-06 -1.499625e-04 1.936029e-02
4.944145e-05 -2.762986e-04 1.928122e-02
3.546779e-05 -1.703047e-04 1.929996e-02
-1.667926e-03 -6.270338e-03 -2.184533e-02
2.406086e-03 -6.029580e-03 -2.197044e-02
4.903475e-03 4.419993e-03 -2.202390e-02
-1.723721e-02 9.527392e-03 5.565748e-03
-1.723738e-02 -9.526715e-03 5.565616e-03
-6.408111e-04 6.731970e-03 -2.206535e-02
-7.109985e-03 -4.913939e-04 -2.202672e-02
-6.021504e-03 3.147588e-03 -2.216127e-02
-4.944807e-03 -4.535570e-03 -2.208916e-02
-5.782412e-03 3.791188e-03 -2.197502e-02
2.638226e-04 4.515759e-04 1.929226e-02
-6.887015e-03 -1.182291e-03 -2.197947e-02
-5.550427e-03 4.386135e-03 -2.197332e-02
-4.913296e-03 4.747543e-03 -2.210606e-02
1.310370e-02 1.445089e-02 5.886940e-03
1.310370e-02 -1.445136e-02 5.886887e-03
-1.704982e-03 4.368114e-03 -2.230122e-02
-8.667308e-03 -1.678232e-02 -1.162961e-02
-6.258968e-03 -1.731596e-02 -1.228232e-02
-1.898338e-02 -3.196071e-03 6.970471e-03
-1.898332e-02 3.195178e-03 6.970361e-03
-2.559377e-05 2.164636e-04 1.921591e-02
-9.491894e-03 1.795363e-02 4.509174e-03
1.910558e-03 9.140683e-03 -2.087884e-02
-7.978848e-04 8.996715e-03 -2.082247e-02
-8.845375e-03 -5.911159e-04 -2.092905e-02
-7.905428e-03 4.051780e-03 -2.088300e-02
-4.404444e-03 7.947094e-03 -2.093306e-02
-2.826840e-03 8.808708e-03 -2.097928e-02
-6.611112e-03 -6.120783e-03 -2.090916e-02
-9.930965e-03 -1.588209e-02 7.818968e-03
-9.952827e-03 1.589295e-02 7.826937e-03
9.917075e-05 4.971372e-04 1.923064e-02
8.069539e-04 -5.564556e-03 -2.223625e-02
6.065350e-03 6.784357e-04 -2.198557e-02
5.298467e-03 -3.267768e-03 -2.201214e-02
4.541234e-03 4.431159e-03 -2.201624e-02
5.581905e-03 1.165021e-03 -2.231350e-02
4.914770e-03 -3.766604e-03 -2.201216e-02
4.646144e-03 -4.204702e-03 -2.203722e-02
3.831777e-03 -4.088910e-03 -2.227419e-02
-1.730018e-03 9.707529e-03 -2.053712e-02
-6.458044e-03 -7.348384e-03 -2.058096e-02
-2.489631e-04 5.401237e-05 1.911358e-02
-9.621393e-03 -1.668750e-03 -2.057192e-02
-8.216083e-03 5.244900e-03 -2.055670e-02
-9.365455e-03 -2.640922e-03 -2.054953e-02
-7.622673e-03 6.013391e-03 -2.053868e-02
-6.815921e-03 6.650664e-03 -2.066229e-02
-6.360272e-03 7.621258e-03 -2.057191e-02
-9.163238e-03 -7.950386e-03 -1.929500e-02
-4.651699e-03 1.140221e-02 -1.913615e-02
5.587759e-03 -2.007982e-02 -4.193554e-03
-9.365966e-03 -1.782737e-02 4.841717e-03
-2.837241e-04 -2.129313e-05 1.920729e-02
-8.704440e-03 -1.768317e-02 5.722017e-03
2.429481e-03 -4.798433e-03 -2.246222e-02
5.115471e-03 1.883566e-02 -1.044861e-02
-4.090807e-03 1.923084e-02 -1.024654e-02
-3.111536e-03 -7.806645e-04 -2.288219e-02
-3.111048e-03 7.804598e-04 -2.288122e-02
-1.629436e-02 4.293704e-04 1.128143e-02
-2.064470e-02 1.034695e-03 3.185103e-03
-1.637896e-02 -5.354791e-04 1.122417e-02
-2.066124e-02 -1.111227e-03 3.150531e-03
1.662696e-04 -4.150639e-04 1.922303e-02
3.192120e-03 1.213747e-02 -1.898433e-02
2.021942e-02 -4.353752e-03 2.565208e-03
2.021879e-02 4.353649e-03 2.565016e-03
5.226438e-04 3.196140e-04 -2.255829e-02
5.228336e-04 -3.194649e-04 -2.255827e-02
7.352167e-03 3.835016e-03 -2.148423e-02
7.352044e-03 -3.834832e-03 -2.148446e-02
-2.490353e-03 -2.845142e-03 -2.262789e-02
-2.490835e-03 2.844680e-03 -2.262742e-02
6.296686e-03 4.236491e-03 -2.166413e-02
1.472351e-04 1.442782e-04 1.914410e-02
6.297089e-03 -4.236554e-03 -2.166326e-02
3.512822e-04 1.977112e-02 -9.890390e-03
6.668029e-03 -1.859723e-02 5.707315e-03
-8.054990e-03 1.737027e-02 6.589701e-03
3.623395e-03 6.511166e-03 -2.199084e-02
3.322873e-03 -6.519346e-03 -2.190452e-02
-1.978416e-03 -2.261532e-03 -2.303589e-02
-1.978800e-03 2.260884e-03 -2.303573e-02
1.748669e-02 -5.919769e-03 8.547278e-03
1.748620e-02 5.919513e-03 8.547071e-03
-9.469821e-07 1.958545e-04 1.909128e-02
1.271428e-03 -1.208880e-02 -1.922469e-02
8.611620e-03 8.440669e-03 -1.938526e-02
1.047908e-02 -5.686639e-03 -1.945196e-02
1.207462e-02 9.256692e-04 -1.943169e-02
1.113335e-02 2.035242e-03 -1.976745e-02
9.426674e-03 -6.260432e-03 -1.969955e-02
8.808470e-03 -7.130868e-03 -1.977509e-02
7.998808e-03 -8.086588e-03 -1.993109e-02
-6.360318e-03 -5.431700e-04 -2.222896e-02
-6.356245e-03 5.358383e-04 -2.221604e-02
-1.503099e-04 -1.024764e-04 1.922219e-02
9.246984e-03 1.699308e-02 6.198000e-03
9.322120e-03 -1.739034e-02 5.531803e-03
2.420984e-03 -2.130114e-03 -2.277292e-02
2.420876e-03 2.130107e-03 -2.277277e-02
1.749773e-02 -8.592451e-03 6.299876e-03
1.749731e-02 8.592581e-03 6.299736e-03
-9.411316e-03 1.691411e-02 6.978923e-03
7.510503e-03 -1.822543e-02 6.295722e-03
-1.805618e-02 5.330383e-03 7.303354e-03
-1.805992e-02 -5.331372e-03 7.300898e-03
-2.420569e-04 4.131902e-05 1.924112e-02
-2.132185e-04 -1.031138e-04 1.920649e-02
-1.937350e-03 -4.566158e-03 -2.239731e-02
7.177909e-03 -7.642771e-03 -2.022347e-02
7.186223e-03 7.641103e-03 -2.021835e-02
3.331270e-04 -3.999264e-03 -2.270470e-02
5.424116e-04 -3.501848e-03 -2.263730e-02
-6.405504e-04 -3.762373e-03 -2.263902e-02
-3.324927e-04 -3.620012e-03 -2.275065e-02
-5.965943e-03 -1.802754e-02 6.917176e-03
6.046036e-03 -8.208668e-03 -2.033950e-02
6.046001e-03 8.209624e-03 -2.034142e-02
-5.695340e-05 -5.783868e-04 1.922616e-02
-1.243877e-02 -1.699183e-02 -1.432714e-03
-1.244141e-02 1.699105e-02 -1.433601e-03
-9.046135e-03 -1.673267e-02 7.226683e-03
-9.906317e-03 7.990873e-03 -1.884171e-02
-9.904259e-03 -7.988831e-03 -1.884029e-02
-6.593928e-03 -1.751233e-02 7.259969e-03
1.416692e-02 1.351116e-02 5.421607e-03
1.417788e-02 -1.351348e-02 5.434624e-03
-2.096318e-03 8.207470e-04 -2.272968e-02
-2.097285e-03 -8.208368e-04 -2.273007e-02
4.286675e-04 -1.200498e-04 1.925825e-02
1.901308e-02 1.535772e-03 7.124762e-03
1.912906e-02 -1.512770e-03 7.053742e-03
1.913195e-02 -8.376343e-03 9.253433e-04
1.913168e-02 8.376285e-03 9.250065e-04
9.902760e-03 1.128836e-02 -1.670689e-02
9.903053e-03 -1.128918e-02 -1.670690e-02
-1.493355e-02 1.493685e-02 -1.916088e-03
-1.495124e-02 -1.494786e-02 -1.911313e-03
1.480050e-02 1.176866e-02 6.932313e-03
1.479996e-02 -1.176873e-02 6.932219e-03
8.446596e-05 2.815573e-04 1.913897e-02
6.992644e-03 1.719121e-02 7.899321e-03
-1.886145e-02 3.517467e-03 6.794112e-03
-1.628432e-02 -1.020282e-02 6.767202e-03
-1.730194e-02 -8.580569e-03 6.656763e-03
-1.918660e-02 1.678421e-03 6.631912e-03
-1.783489e-02 5.823879e-03 7.422255e-03
-7.540769e-03 1.701779e-02 7.823720e-03
-1.231393e-02 1.569113e-02 5.091786e-03
-1.807752e-02 -6.794944e-03 6.636442e-03
-5.163321e-03 1.775352e-02 8.007178e-03
-2.280400e-04 1.080252e-04 1.933483e-02
-1.488773e-02 -1.110960e-02 7.936059e-03
-1.846373e-02 5.315581e-03 6.593644e-03
2.174638e-03 1.913830e-02 6.808194e-03
1.080410e-03 1.881242e-02 7.308603e-03
7.046562e-04 -2.878813e-03 -2.314362e-02
1.102375e-02 1.422541e-02 9.068988e-03
1.102472e-02 -1.422514e-02 9.069273e-03
5.932691e-03 1.664991e-04 -2.211556e-02
5.894236e-03 -3.011166e-04 -2.215848e-02
1.143027e-03 -1.385787e-03 -2.319472e-02
-7.081325e-06 -1.222705e-04 1.916006e-02
2.129907e-03 3.614305e-03 -2.250381e-02
9.680623e-03 -1.613931e-02 7.799708e-03
9.639783e-03 1.615219e-02 7.857006e-03
2.180934e-03 4.869745e-03 -2.245837e-02
5.508109e-03 -1.694746e-02 9.015532e-03
1.714621e-02 -9.428531e-03 6.338202e-03
1.714601e-02 9.428459e-03 6.337964e-03
-1.800892e-02 -4.750670e-03 7.855773e-03
-1.800906e-02 4.750873e-03 7.855921e-03
-5.733693e-03 -1.757035e-02 7.752747e-03
9.859652e-05 2.528741e-04 1.919264e-02
-5.045637e-03 -1.753144e-02 8.493512e-03
1.248505e-02 -1.509094e-02 6.478851e-03
1.886783e-02 5.518487e-03 6.306329e-03
3.912426e-03 -1.902927e-02 6.418409e-03
-6.852065e-03 -1.677067e-02 8.562567e-03
1.040461e-02 -1.501986e-02 8.388126e-03
1.040197e-02 1.501945e-02 8.389366e-03
-1.567921e-02 1.056681e-02 7.307032e-03
-1.567945e-02 -1.056665e-02 7.307035e-03
9.745148e-03 1.559135e-02 8.232681e-03
-1.710812e-04 2.920116e-04 1.920216e-02
9.343204e-03 -1.699698e-02 6.479520e-03
5.725701e-03 -1.846958e-02 6.858930e-03
-3.697697e-03 -1.912630e-02 6.675259e-03
2.688397e-04 -1.872233e-02 7.994879e-03
1.519726e-02 1.192491e-02 6.619332e-03
1.039588e-02 -1.577109e-02 7.826231e-03
7.015999e-03 -1.729054e-02 7.802212e-03
1.871521e-02 -2.172853e-05 8.023338e-03
1.722093e-02 -7.326440e-03 7.898861e-03
1.145156e-03 1.265267e-03 -2.301201e-02
-8.555430e-05 -4.404948e-04 1.942784e-02
1.732405e-02 -4.715463e-03 8.885134e-03
1.732353e-02 4.715389e-03 8.885359e-03
-1.063674e-02 -1.415736e-02 9.444755e-03
6.762255e-04 1.169639e-03 -2.301990e-02
1.533162e-02 1.097931e-02 7.878458e-03
1.533170e-02 -1.097900e-02 7.878612e-03
-8.314101e-05 2.545849e-04 -2.320305e-02
6.260305e-03 1.746341e-02 8.154813e-03
6.442873e-03 -1.338604e-02 -1.715134e-02
-1.083212e-03 1.857830e-02 7.991523e-03
2.286660e-04 -4.934286e-05 1.951345e-02
-1.355814e-02 1.226102e-02 8.182391e-03
-9.529382e-03 1.599044e-02 7.835318e-03
-1.675091e-02 7.978081e-03 7.968719e-03
-1.589309e-02 9.444177e-03 7.988085e-03
-1.826756e-02 -2.630041e-03 8.049740e-03
-1.260119e-02 -1.344878e-02 8.180205e-03
-1.363477e-02 -1.218337e-02 8.178221e-03
-6.280216e-03 1.722983e-02 8.110340e-03
-1.492328e-02 1.093747e-02 8.006430e-03
-1.246386e-02 1.360169e-02 8.090644e-03
4.334317e-04 -4.535528e-04 1.918854e-02
1.145320e-04 5.116760e-04 1.930280e-02
-1.776599e-02 -4.170585e-03 8.247168e-03
-1.853800e-02 -7.487186e-04 7.998191e-03
-2.898090e-03 1.822049e-02 8.147468e-03
4.232069e-03 1.798583e-02 8.077890e-03
-9.338381e-04 -1.854919e-02 8.100849e-03
-1.360302e-02 8.210865e-03 -1.568649e-02
-1.360289e-02 -8.211520e-03 -1.568659e-02
1.191923e-02 8.753608e-04 -1.938887e-02
1.174886e-02 -7.797205e-04 -1.937940e-02
3.153656e-03 1.960509e-02 5.463549e-03
-4.100479e-04 3.425478e-05 1.937958e-02
5.110540e-04 1.991856e-02 5.468529e-03
-4.664564e-03 1.934674e-02 5.303315e-03
-1.174486e-02 1.617765e-02 5.372164e-03
-1.979871e-02 6.264594e-04 5.519315e-03
-8.882794e-03 1.782184e-02 5.409048e-03
-1.863392e-02 7.255982e-03 5.466547e-03
-1.876270e-02 -6.252904e-03 5.559684e-03
-3.803987e-04 -1.786364e-02 -1.366452e-02
8.007587e-05 1.798545e-02 8.768501e-03
1.337006e-02 9.701158e-03 -1.494911e-02
-6.231364e-05 -4.091642e-04 1.926732e-02
1.337038e-02 -9.701324e-03 -1.494888e-02
8.351915e-03 -1.556934e-02 9.257310e-03
8.034312e-03 1.556380e-02 9.512253e-03
-7.455741e-03 -7.144051e-03 -2.047053e-02
-7.482365e-03 7.134903e-03 -2.044900e-02
1.859058e-02 -9.030403e-04 7.978714e-03
1.861109e-02 1.188316e-03 7.968901e-03
1.296724e-02 -1.251468e-02 9.696724e-03
1.398479e-02 -1.124005e-02 9.697151e-03
-3.542481e-03 1.789208e-02 8.388447e-03
1.314332e-04 -1.054458e-04 1.944769e-02
-9.000315e-04 5.421995e-03 -2.237449e-02
-1.132708e-04 5.614894e-03 -2.222055e-02
1.776344e-02 3.031460e-03 9.591238e-03
1.520528e-02 -9.718021e-03 9.546427e-03
1.288347e-03 5.483074e-03 -2.235265e-02
1.762684e-02 1.061597e-02 -5.971932e-03
2.059320e-02 -1.497780e-03 -6.045136e-03
1.864784e-02 8.904444e-03 -5.887852e-03
1.996623e-02 -5.370958e-03 -6.021025e-03
2.032096e-02 -3.427919e-03 -5.935163e-03
-2.300573e-05 -2.482167e-04 1.927977e-02
4.480840e-03 1.779052e-02 8.279292e-03
-2.628266e-03 -1.244114e-02 -1.847441e-02
1.930090e-03 -1.263705e-02 -1.844852e-02
6.654444e-04 -1.262775e-02 -1.855027e-02
1.442744e-02 1.064547e-02 9.345848e-03
1.685829e-02 -5.938404e-03 9.155895e-03
-9.963377e-04 -1.773824e-02 9.154107e-03
1.499601e-03 1.392614e-02 -1.823969e-02
-1.180028e-02 -7.529893e-03 -1.795791e-02
-1.356691e-02 4.046993e-03 -1.772805e-02
3.374481e-04 -2.526967e-04 1.949014e-02
-1.375912e-02 2.697032e-03 -1.794173e-02
-1.263061e-02 -6.313810e-03 -1.781233e-02
-1.296875e-02 -5.044830e-03 -1.813824e-02
-1.391831e-02 1.329939e-03 -1.791868e-02
-1.496318e-02 -9.577431e-03 9.269154e-03
-1.496291e-02 9.577567e-03 9.269435e-03
1.102732e-02 -8.704818e-03 -1.768186e-02
1.102758e-02 8.704392e-03 -1.768153e-02
-1.097474e-02 -1.351329e-02 9.895705e-03
-4.460844e-04 -1.706571e-02 1.011914e-02
7.936967e-05 2.896981e-04 1.938061e-02
-1.026769e-02 -1.525172e-02 8.713752e-03
-1.027412e-02 1.525483e-02 8.718677e-03
-4.721833e-03 9.992130e-03 -1.990694e-02
-1.611988e-02 -1.095413e-02 -1.023069e-02
-1.611971e-02 1.095437e-02 -1.023043e-02
3.449185e-05 7.563466e-05 -2.321605e-02
3.437669e-05 -7.553135e-05 -2.321598e-02
-1.541433e-02 3.741936e-03 -1.558250e-02
-1.302088e-02 -9.169231e-03 -1.552478e-02
-1.379279e-02 -7.815534e-03 -1.559020e-02
-3.025798e-04 2.083975e-04 1.937278e-02
-1.441520e-02 -6.432015e-03 -1.567909e-02
-1.569614e-02 2.206375e-03 -1.558927e-02
-3.206813e-03 1.760586e-02 9.307254e-03
-2.155129e-04 1.772075e-02 9.526260e-03
1.368551e-03 1.800795e-02 9.176067e-03
1.565757e-02 -1.023657e-02 8.017107e-03
1.565791e-02 1.023706e-02 8.016701e-03
4.163881e-03 1.731440e-02 9.345996e-03
9.041820e-04 1.757048e-02 9.708274e-03
-7.276655e-03 -1.041854e-02 -1.893025e-02
6.043059e-05 -2.495654e-04 1.928760e-02
1.430894e-03 -1.659876e-02 1.116224e-02
1.494835e-02 -7.754532e-03 1.098528e-02
1.258517e-02 1.169232e-02 1.048680e-02
1.677749e-02 1.242549e-03 1.092952e-02
-1.803678e-02 3.894672e-03 8.530750e-03
-1.803692e-02 -3.894309e-03 8.530581e-03
-1.834387e-03 -1.075945e-02 -1.994711e-02
4.780061e-03 -9.531221e-03 -2.001490e-02
2.376923e-03 -1.045578e-02 -2.015650e-02
1.048209e-02 3.515319e-03 -2.009462e-02
3.827487e-04 6.309458e-05 1.953497e-02
5.889143e-03 7.255648e-03 -2.084972e-02
-1.267232e-04 -1.053036e-02 -2.038312e-02
6.468553e-03 -8.889144e-03 -2.023187e-02
9.657905e-03 -3.960312e-03 -2.029684e-02
1.060970e-02 -2.523345e-04 -2.016643e-02
1.131040e-02 -1.357372e-02 9.693387e-03
1.130951e-02 1.357388e-02 9.692375e-03
-7.361386e-03 1.693932e-02 -1.231866e-02
-3.305577e-03 -1.114933e-02 -1.950310e-02
2.836051e-03 -1.171052e-02 -1.938119e-02
3.537009e-04 2.445922e-04 1.928446e-02
-1.023038e-05 3.973707e-04 1.927472e-02
1.839287e-02 -4.924017e-03 -1.102859e-02
1.839331e-02 4.923847e-03 -1.102827e-02
8.568840e-03 1.695758e-02 -1.103860e-02
7.835982e-03 1.641377e-02 8.705212e-03
1.165329e-02 1.225225e-02 1.050629e-02
1.165744e-02 -1.225520e-02 1.050186e-02
1.171916e-02 1.288427e-02 9.952972e-03
-7.396251e-03 -1.970787e-02 -3.450888e-03
9.535826e-03 -1.424683e-02 -1.420073e-02
1.589641e-02 -6.519059e-03 -1.408034e-02
-3.609031e-04 3.578808e-05 1.925846e-02
1.717402e-02 -1.458893e-04 -1.424821e-02
8.077421e-05 -1.712903e-02 -1.436621e-02
-1.480859e-02 5.376924e-03 -1.565575e-02
-1.480920e-02 -5.376940e-03 -1.565586e-02
1.056571e-02 -1.335197e-02 1.038009e-02
-1.693965e-03 -5.060032e-03 -2.221630e-02
1.655612e-02 2.948040e-03 1.043758e-02
1.655679e-02 -2.947812e-03 1.043827e-02
1.473565e-03 -5.207133e-03 -2.240650e-02
1.627565e-02 5.137181e-03 1.027055e-02
2.544306e-04 -1.395717e-04 1.920189e-02
-1.210809e-02 -7.793959e-03 -1.727469e-02
-1.210781e-02 7.793715e-03 -1.727379e-02
1.232842e-02 5.440825e-03 -1.810290e-02
1.232879e-02 -5.440698e-03 -1.810298e-02
4.890084e-03 1.373554e-02 -1.706198e-02
7.139054e-03 -1.575411e-02 1.013800e-02
1.790829e-03 1.881036e-02 -1.096352e-02
-1.738081e-02 -1.364345e-03 9.707480e-03
-1.755395e-02 1.472005e-03 9.485950e-03
7.890264e-03 -1.540729e-02 1.009318e-02
-2.036664e-04 5.261149e-04 1.926548e-02
1.010408e-02 2.004104e-03 -2.039256e-02
1.010710e-02 -2.000403e-03 -2.039287e-02
8.671677e-03 1.567727e-02 9.300336e-03
4.436304e-03 -1.631596e-02 1.048707e-02
-1.719468e-02 -7.157451e-03 8.086119e-03
-1.719395e-02 7.157524e-03 8.086464e-03
-2.788855e-03 -1.719425e-02 9.976911e-03
-1.540063e-02 -8.382367e-03 1.013897e-02
-1.540112e-02 8.382038e-03 1.013952e-02
-8.954662e-03 -1.077676e-02 -1.795762e-02
-7.199591e-05 -5.153799e-05 1.910366e-02
-1.612416e-02 5.498568e-03 1.043291e-02
-1.612478e-02 -5.498728e-03 1.043255e-02
-2.254394e-03 -1.905935e-02 -1.122435e-02
1.795635e-02 6.616819e-03 -1.146430e-02
1.748882e-02 -2.011258e-03 9.779605e-03
1.751928e-02 2.016394e-03 9.750410e-03
5.535934e-04 2.068551e-02 -5.721138e-03
9.206576e-03 1.432267e-02 1.048389e-02
5.222348e-03 -1.399558e-02 -1.670499e-02
-8.335075e-03 -1.715595e-02 -1.159330e-02
-7.194586e-05 -2.368327e-04 1.912721e-02
1.049320e-02 1.444217e-02 9.165368e-03
-2.118302e-03 -2.089487e-02 -1.369130e-03
6.622748e-03 9.337425e-03 -1.950773e-02
-6.152448e-03 -1.239371e-02 -1.753590e-02
-8.617968e-03 -1.297875e-02 -1.602124e-02
-8.623923e-03 1.297270e-02 -1.601859e-02
8.952981e-03 1.509045e-02 -1.368477e-02
8.951841e-03 -1.504040e-02 -1.365348e-02
-1.656401e-02 1.323143e-02 -3.997619e-03
-1.656436e-02 -1.323034e-02 -3.997707e-03
2.255282e-04 1.565548e-04 1.923379e-02
1.799112e-03 -5.405335e-03 -2.238033e-02
-5.565037e-03 -1.695773e-02 -1.306797e-02
-1.809039e-02 -4.625751e-03 -1.183518e-02
-1.808985e-02 4.625676e-03 -1.183559e-02
-1.473979e-02 1.511119e-02 -2.969413e-03
-1.474356e-02 -1.511317e-02 -2.969223e-03
1.466176e-02 -6.971159e-03 -1.516334e-02
1.466167e-02 6.971335e-03 -1.516333e-02
6.326823e-03 1.414156e-02 -1.623619e-02
-5.440033e-03 -1.476110e-02 1.159315e-02
-8.005252e-05 3.527449e-04 1.928387e-02
5.921191e-03 -1.412140e-02 -1.672177e-02
-5.050066e-03 -8.977491e-03 -2.065197e-02
-1.128622e-03 -1.168361e-02 -1.955084e-02
-1.501883e-02 -4.189403e-03 1.161808e-02
-1.501702e-02 4.188841e-03 1.161925e-02
1.393004e-02 -7.259241e-03 1.163101e-02
1.392979e-02 7.258950e-03 1.163089e-02
1.605445e-03 3.772117e-03 -2.271036e-02
7.551840e-03 1.297031e-02 -1.660587e-02
1.204653e-03 1.773690e-02 -1.342145e-02
-2.692017e-04 2.214732e-04 1.939785e-02
-1.681679e-02 5.585274e-03 -1.337245e-02
-3.275564e-03 -1.691216e-02 1.052746e-02
-2.986450e-03 -1.711580e-02 1.063909e-02
2.329804e-03 -1.702835e-02 1.048989e-02
2.083895e-03 -1.720721e-02 1.064916e-02
1.065165e-03 -1.714421e-02 1.050743e-02
1.164097e-03 -1.716781e-02 1.055253e-02
7.999368e-03 -1.367096e-02 1.170676e-02
7.961933e-03 1.363165e-02 1.179929e-02
1.058486e-02 1.867060e-03 -2.015325e-02
-7.847943e-05 -2.853886e-04 1.933034e-02
1.058482e-02 -1.866696e-03 -2.015304e-02
7.164473e-03 1.680122e-02 -1.204119e-02
-1.649044e-02 4.884897e-03 -1.400681e-02
-1.649061e-02 -4.884519e-03 -1.400769e-02
1.498262e-02 -6.895177e-03 1.127751e-02
1.498264e-02 6.895386e-03 1.127718e-02
-6.194609e-03 -1.699366e-02 -1.255092e-02
1.973975e-03 1.565176e-02 1.162139e-02
-1.918945e-03 1.579018e-02 1.147548e-02
-1.115727e-03 1.582938e-02 1.157548e-02
2.957118e-05 5.083581e-06 1.924770e-02
1.771286e-04 3.195970e-05 1.918100e-02
2.752603e-03 1.571100e-02 1.142162e-02
1.652468e-02 -6.852985e-03 9.542722e-03
1.652469e-02 6.852843e-03 9.542083e-03
2.838416e-03 -5.867488e-03 -2.187395e-02
1.240171e-02 -9.357418e-03 1.187068e-02
1.240135e-02 9.357309e-03 1.187060e-02
6.135172e-03 1.634218e-02 9.912307e-03
-1.266083e-02 1.679589e-02 -2.005582e-03
-1.266013e-02 -1.679644e-02 -2.005711e-03
1.253189e-02 -1.307283e-02 9.076830e-03
-1.235136e-04 2.243619e-04 1.929633e-02
1.366575e-02 -1.163696e-02 9.344809e-03
1.761548e-02 3.745729e-03 9.233231e-03
1.470908e-02 -1.030507e-02 9.073027e-03
1.208618e-02 1.031675e-02 -1.537603e-02
1.208257e-02 -1.032313e-02 -1.537391e-02
-1.528508e-02 -3.756111e-03 1.195935e-02
-1.528468e-02 3.756109e-03 1.195972e-02
1.267256e-02 1.274662e-02 9.050886e-03
1.562888e-02 -8.778245e-03 9.136411e-03
1.800963e-02 1.747312e-03 9.111733e-03
-2.149521e-04 4.999381e-05 1.930191e-02
2.270934e-03 -1.786546e-02 9.006877e-03
3.667194e-04 -1.540109e-02 1.234273e-02
1.548062e-02 1.177013e-04 1.220527e-02
1.420915e-02 -6.201571e-03 1.218967e-02
8.404667e-03 -1.314161e-02 1.215237e-02
5.456974e-03 -1.467793e-02 1.205954e-02
1.182612e-02 1.025988e-02 1.197504e-02
5.981000e-03 1.994167e-02 -5.854521e-03
1.193218e-02 9.867420e-03 1.170900e-02
1.193109e-02 -9.866741e-03 1.170844e-02
1.380253e-04 -3.561780e-04 1.931253e-02
-4.854219e-03 2.025614e-02 -5.846628e-03
-8.237883e-03 -1.453443e-02 1.098975e-02
2.986747e-03 1.974321e-02 -7.433469e-03
-1.925036e-03 1.987039e-02 -7.464746e-03
-1.364600e-02 -2.173866e-03 -1.780215e-02
-1.364920e-02 2.172873e-03 -1.780394e-02
2.752263e-03 -6.422754e-03 -2.157492e-02
5.492729e-03 4.259048e-03 -2.152988e-02
3.484561e-04 -4.049752e-04 -2.325517e-02
1.684676e-02 -5.189617e-03 -1.370387e-02
-2.405771e-05 2.102066e-04 1.918490e-02
1.684484e-02 5.189491e-03 -1.370529e-02
6.627404e-03 3.756139e-03 -2.148604e-02