# vtk DataFile Version 2.0
Electric current density generated by TTH
ASCII
DATASET UNSTRUCTURED_GRID
POINTS 2936 double
-1.667097e-05 2.349553e-05 -3.150850e-22
5.619282e-06 2.666228e-05 -1.256779e-06
7.174577e-06 2.749052e-05 -9.301066e-07
-2.245289e-05 -1.721209e-05 -1.031637e-06
-2.619271e-05 1.624062e-06 1.324112e-07
-5.168374e-06 2.803230e-05 -8.308270e-07
-2.074623e-05 -1.782076e-05 -1.274707e-06
-1.274962e-05 2.306049e-05 5.297426e-07
-8.583028e-06 -2.586346e-05 1.257311e-06
-1.928281e-05 -2.098811e-05 -8.348387e-07
-2.329410e-05 -1.635012e-05 -8.815949e-07
-1.732337e-05 2.301873e-05 -3.150850e-22
-1.825747e-05 -1.955742e-05 1.032284e-06
2.518625e-05 1.353302e-05 -7.153986e-07
2.509047e-05 -1.341113e-05 8.917792e-07
7.701823e-06 -2.508106e-05 4.460955e-08
1.432561e-06 -2.842921e-05 -8.753757e-07
-2.528920e-06 -2.620403e-05 4.716834e-07
-2.398743e-05 1.317998e-05 -1.277330e-06
1.648183e-05 -2.051563e-05 4.466027e-07
1.648183e-05 2.051563e-05 -4.466027e-07
1.266585e-05 2.399669e-05 -1.226394e-06
-1.796215e-05 2.252382e-05 -3.150850e-22
-2.592555e-05 1.163263e-05 9.258988e-07
-2.592571e-05 -1.163245e-05 9.258319e-07
1.076210e-05 2.446478e-05 1.011129e-06
-1.624249e-05 -2.177967e-05 1.236972e-06
-2.780416e-06 2.833190e-05 -8.724395e-07
1.220856e-05 2.328438e-05 3.711997e-07
-1.974595e-05 2.050422e-05 -8.743648e-07
2.172060e-05 -1.590345e-05 -1.136734e-06
2.172060e-05 1.590345e-05 1.136734e-06
-2.476361e-05 9.319288e-06 7.238195e-07
-1.858679e-05 2.201119e-05 -3.150850e-22
-2.476302e-05 -9.321282e-06 7.240398e-07
2.643896e-05 9.849375e-07 -7.211139e-07
2.643896e-05 -9.849375e-07 7.211139e-07
6.219565e-06 -2.602215e-05 -1.032390e-06
-1.571619e-05 2.203523e-05 1.202541e-06
-7.209903e-07 2.845094e-05 8.809497e-07
2.254635e-05 -1.501203e-05 1.210389e-06
2.254635e-05 1.501203e-05 -1.210389e-06
-2.814919e-05 -4.216850e-06 8.775244e-07
-2.686923e-05 4.100015e-06 1.240035e-06
-1.919681e-05 2.148124e-05 -3.150850e-22
2.473205e-05 -1.146787e-05 -1.259643e-06
2.473205e-05 1.146787e-05 1.259643e-06
-1.327317e-05 -2.518761e-05 -8.692721e-07
1.163118e-07 -2.844323e-05 8.982981e-07
-1.817892e-05 -1.892569e-05 -1.246673e-07
-2.190153e-05 -1.446129e-05 1.513393e-07
1.648289e-05 -2.067259e-05 -6.939327e-07
1.648289e-05 2.067259e-05 6.939327e-07
-2.815480e-05 4.227579e-06 8.697990e-07
2.286762e-05 1.287205e-05 1.171588e-07
-1.979173e-05 2.093439e-05 -3.150850e-22
2.286762e-05 -1.287205e-05 -1.171588e-07
-2.598871e-05 -3.642541e-06 -1.296790e-07
-2.599941e-05 3.570445e-06 -1.363313e-07
2.726093e-05 -2.436141e-06 1.277296e-06
2.726093e-05 2.436141e-06 -1.277296e-06
-2.816251e-05 3.982373e-06 -8.990952e-07
1.350815e-05 -2.377501e-05 -1.274041e-06
4.965480e-06 -2.636365e-05 1.082260e-06
1.535567e-05 -2.398348e-05 -8.613264e-07
2.144938e-05 -1.602264e-05 1.045559e-06
-2.037107e-05 2.037107e-05 -3.150850e-22
2.144938e-05 1.602264e-05 -1.045559e-06
2.115773e-05 1.732027e-05 -1.273835e-06
2.115773e-05 -1.732027e-05 1.273835e-06
-6.518256e-07 -2.853496e-05 -7.841809e-07
-1.907630e-05 1.948087e-05 1.260484e-06
-2.400216e-05 -1.313572e-05 -1.276302e-06
-2.303822e-05 -1.458952e-05 -1.261241e-06
-1.906364e-05 -1.940537e-05 1.246037e-06
-3.900691e-06 -2.819560e-05 -8.766081e-07
-1.949402e-05 -2.064488e-05 9.462155e-07
-2.093439e-05 1.979173e-05 -3.150850e-22
-2.643197e-05 1.769188e-07 -6.831541e-07
-1.140806e-06 2.711766e-05 1.228727e-06
-2.429458e-05 -1.491343e-05 -8.284413e-07
2.123343e-05 -1.895979e-05 -8.742475e-07
2.123343e-05 1.895979e-05 8.742475e-07
-1.043467e-05 2.650245e-05 8.562753e-07
1.099516e-05 2.626874e-05 8.625658e-07
2.613415e-05 -5.179010e-06 -9.381242e-07
2.613415e-05 5.179010e-06 9.381242e-07
-1.863262e-05 2.159306e-05 -8.115205e-07
-2.148124e-05 1.919681e-05 -3.150850e-22
-2.262134e-05 1.744618e-05 -7.506004e-07
-1.903955e-05 1.959923e-05 -1.271103e-06
-2.688513e-05 9.369495e-06 -8.691774e-07
-2.688526e-05 -9.369394e-06 -8.690859e-07
-2.761938e-05 6.958655e-06 -8.564542e-07
-4.412642e-06 2.598630e-05 -5.470372e-07
-2.292231e-05 1.448237e-05 -1.219827e-06
2.827401e-05 -3.463197e-06 -8.532933e-07
2.827401e-05 3.463197e-06 8.532933e-07
2.337651e-05 -1.627381e-05 8.555681e-07
-2.201119e-05 1.858679e-05 -3.150850e-22
2.337651e-05 1.627381e-05 -8.555681e-07
1.521660e-05 2.152764e-05 -5.560315e-07
1.521660e-05 -2.152764e-05 5.560315e-07
-2.847657e-05 -4.594988e-07 -8.589503e-07
-2.807228e-05 -1.833689e-07 1.162806e-06
-8.371798e-06 -2.725624e-05 8.210309e-07
-1.149523e-05 -2.471090e-05 -1.258030e-06
2.299049e-05 -1.520271e-05 -1.285817e-06
2.299280e-05 1.519920e-05 1.285817e-06
-5.732752e-06 -2.668266e-05 1.265512e-06
-2.252382e-05 1.796215e-05 -3.150850e-22
-5.627394e-06 2.671263e-05 1.266837e-06
-1.041347e-05 2.527375e-05 1.272680e-06
-2.680743e-05 -4.082170e-06 1.220634e-06
1.521004e-05 -2.317472e-05 -1.271158e-06
-1.040208e-05 -2.651208e-05 8.595751e-07
-2.821666e-05 -4.249341e-06 -7.939261e-07
-1.720248e-05 -1.995368e-05 -5.184880e-07
2.838209e-05 2.544560e-06 8.411752e-07
2.838209e-05 -2.544560e-06 -8.411752e-07
-1.870709e-05 -1.841053e-05 -1.661805e-07
-2.301873e-05 1.732337e-05 -3.150850e-22
2.013786e-05 -1.840161e-05 1.263186e-06
2.013786e-05 1.840161e-05 -1.263186e-06
-2.671727e-05 -4.832901e-06 -1.231549e-06
-2.580290e-05 -4.758777e-06 6.947366e-08
1.528322e-06 2.833597e-05 -9.615950e-07
1.166939e-05 -2.598321e-05 -8.554903e-07
-2.453483e-05 1.081246e-05 1.072152e-06
-2.453476e-05 -1.081307e-05 1.072274e-06
2.685295e-05 5.636044e-06 -1.283649e-06
2.685295e-05 -5.636044e-06 1.283649e-06
-2.349553e-05 1.667097e-05 -3.150850e-22
-1.118875e-05 2.383217e-05 4.771405e-07
-2.695915e-05 6.343538e-06 -1.274773e-06
2.218368e-05 -1.441039e-05 7.151170e-07
2.218368e-05 1.441039e-05 -7.151170e-07
-2.349115e-05 1.620748e-05 -7.876314e-07
-1.474776e-05 2.193335e-05 6.797594e-07
-1.019403e-05 2.659789e-05 -8.542310e-07
-1.319649e-05 -2.435971e-05 -1.273500e-06
1.472092e-05 2.441076e-05 8.293975e-07
-2.580300e-05 4.764593e-06 8.822445e-08
-2.395385e-05 1.600545e-05 -3.150850e-22
-7.417657e-06 2.606212e-05 -1.214040e-06
2.421429e-05 -1.011436e-05 1.201139e-07
2.421429e-05 1.011436e-05 -1.201139e-07
4.377424e-06 2.594133e-05 -4.240154e-07
2.632468e-05 1.084202e-05 -8.703178e-07
2.597306e-05 1.170156e-05 -8.510501e-07
2.632468e-05 -1.084202e-05 8.703178e-07
2.597306e-05 -1.170156e-05 8.510501e-07
2.285289e-05 -1.702820e-05 8.371720e-07
2.285289e-05 1.702820e-05 -8.371720e-07
-2.439332e-05 1.532734e-05 -3.150850e-22
-2.005801e-05 -1.698734e-05 -3.505219e-07
2.408544e-05 1.301143e-05 1.277968e-06
2.408544e-05 -1.301143e-05 -1.277968e-06
-2.318236e-05 -1.243549e-05 4.212127e-07
-2.667500e-05 9.969047e-06 8.626200e-07
-2.667500e-05 -9.969047e-06 8.626200e-07
-7.306945e-06 -2.603610e-05 -1.193280e-06
2.286846e-05 1.698818e-05 8.502812e-07
2.277120e-05 -1.710446e-05 -8.596517e-07
9.635091e-06 -2.450714e-05 -4.899878e-07
-2.481359e-05 1.463717e-05 -3.150850e-22
-2.569954e-05 1.231268e-05 8.401380e-07
-2.569976e-05 -1.231173e-05 8.403887e-07
-6.257330e-06 2.551684e-05 -3.050095e-07
1.007192e-05 -2.663800e-05 8.608876e-07
-2.333885e-05 -1.469107e-05 1.285252e-06
-7.896011e-07 -2.848772e-05 8.379973e-07
-2.736781e-06 2.667202e-05 -1.072390e-06
-1.781518e-05 2.129688e-05 -1.263245e-06
-1.926881e-05 2.102688e-05 8.119147e-07
-1.307289e-05 -2.286848e-05 5.094951e-07
-2.521435e-05 1.393548e-05 -3.150850e-22
-1.617264e-05 -2.176317e-05 -1.219941e-06
-1.501137e-05 -2.186436e-05 8.079188e-07
2.611369e-05 -9.063275e-06 1.280901e-06
2.611369e-05 9.063275e-06 -1.280901e-06
-2.734424e-05 -1.283976e-06 -1.277862e-06
3.237963e-06 2.828022e-05 -8.756967e-07
-1.923349e-05 -1.813378e-05 6.855867e-07
2.544071e-05 1.004885e-05 -1.275256e-06
2.544071e-05 -1.004885e-05 1.275256e-06
1.101862e-05 -2.388555e-05 4.138099e-07
-2.559527e-05 1.322283e-05 -3.150850e-22
-2.330086e-05 1.469287e-05 1.286210e-06
-2.175653e-05 1.550297e-05 1.001292e-06
2.772439e-05 -6.625530e-06 8.304627e-07
2.782558e-05 6.537708e-06 -7.279169e-07
1.035812e-05 -2.657750e-05 -8.067760e-07
-2.693610e-05 8.177617e-06 1.123031e-06
-2.693610e-05 -8.177617e-06 1.123031e-06
7.729395e-06 2.615282e-05 -1.261609e-06
1.094414e-05 -2.521149e-05 1.285865e-06
-7.041636e-06 -2.638757e-05 1.268901e-06
-2.595605e-05 1.249978e-05 -3.150850e-22
-6.993205e-06 2.642468e-05 1.272587e-06
-5.139043e-06 -2.679553e-05 -1.264087e-06
-2.681749e-05 4.191341e-06 -1.229161e-06
-1.993685e-05 1.724784e-05 -5.552970e-07
-1.691782e-05 2.033183e-05 -7.100266e-07
-1.574285e-05 -2.375914e-05 -8.347144e-07
2.825435e-05 -9.208059e-07 -1.047517e-06
2.824867e-05 9.772312e-07 1.050202e-06
-2.830905e-05 -3.159989e-06 8.537982e-07
-1.163054e-05 2.507178e-05 1.281240e-06
-2.629641e-05 1.176689e-05 -3.150850e-22
-2.058441e-05 -1.768006e-05 1.226614e-06
7.757444e-06 2.734331e-05 9.193683e-07
-1.615971e-05 2.182879e-05 -1.234090e-06
-2.543061e-05 6.476336e-06 -1.254077e-07
-2.543061e-05 -6.476336e-06 -1.254047e-07
-1.636200e-05 2.142560e-05 1.156245e-06
-2.314734e-05 1.238206e-05 -1.946624e-07
-2.461878e-05 -1.159495e-05 -1.248525e-06
7.343626e-06 -2.613083e-05 1.229186e-06
2.583988e-05 -4.547835e-06 4.710206e-08
-2.661609e-05 1.102474e-05 -3.150850e-22
2.583988e-05 4.547835e-06 -4.710206e-08
1.157402e-05 2.478833e-05 1.275760e-06
-8.310679e-06 2.727428e-05 8.217905e-07
1.758432e-05 -1.961672e-05 5.163065e-07
1.758432e-05 1.961672e-05 -5.163065e-07
-2.745090e-05 7.724233e-06 -8.162319e-07
-2.641434e-05 -1.079126e-05 -7.954397e-07
-2.462651e-05 1.159424e-05 -1.250169e-06
-7.933238e-06 2.501049e-05 -7.791136e-08
2.470141e-05 9.034135e-06 -4.050636e-07
-2.691482e-05 1.027393e-05 -3.150850e-22
2.470141e-05 -9.034135e-06 4.050636e-07
9.445989e-06 2.565057e-05 -1.272613e-06
-2.641884e-05 1.078344e-05 -7.938992e-07
5.169737e-07 2.756281e-05 1.285643e-06
5.661350e-06 -2.671027e-05 1.267661e-06
8.439795e-06 2.512432e-05 7.856983e-07
2.104088e-05 -1.578266e-05 4.071089e-07
2.104088e-05 1.578266e-05 -4.071089e-07
3.648868e-06 -2.598269e-05 -6.150903e-08
2.190903e-05 1.830908e-05 -7.712697e-07
-2.719238e-05 9.515024e-06 -3.150850e-22
[...]
POINT_DATA 2936
VECTORS 10.000GHz_fone_imag double
1.796645e+10 1.347282e+10 -2.246342e+08
2.714308e+10 -5.770340e+09 -7.688629e+08
2.190022e+10 -6.619082e+09 5.080160e+08
-1.585012e+10 1.972809e+10 1.113886e+08
2.268064e+09 3.121871e+10 1.245985e+09
2.243594e+10 4.506656e+09 7.765024e+08
-2.052312e+10 2.195330e+10 -8.624403e+07
2.840151e+10 1.356692e+10 -3.314677e+08
-2.621867e+10 8.982099e+09 -1.476806e+09
-1.767006e+10 1.597143e+10 -6.669799e+08
-1.363852e+10 1.850652e+10 2.960312e+08
1.849002e+10 1.336733e+10 5.314095e+08
-2.155657e+10 2.012955e+10 -8.440076e+07
1.061647e+10 -2.058320e+10 -5.305233e+08
-1.150309e+10 -2.100839e+10 3.258891e+08
-2.962562e+10 -1.015381e+10 -2.107712e+07
-2.330147e+10 -2.040990e+09 7.517909e+08
-3.060206e+10 3.444921e+09 1.409242e+08
1.543146e+10 2.491289e+10 7.261275e+08
-2.551144e+10 -1.908783e+10 -2.084752e+09
2.608513e+10 -1.984368e+10 1.927843e+09
2.520513e+10 -1.421817e+10 -4.686759e+08
1.694368e+10 1.397150e+10 7.529449e+07
9.046945e+09 2.210370e+10 1.438194e+09
-1.095733e+10 2.165658e+10 -4.137719e+08
2.701958e+10 -1.136038e+10 -3.456877e+08
-2.266333e+10 1.603393e+10 -2.481100e+08
2.328449e+10 2.165990e+09 5.647753e+08
2.819928e+10 -1.536943e+10 -4.221790e+08
1.564845e+10 1.615962e+10 -3.072898e+07
-1.918898e+10 -2.552520e+10 -3.534807e+08
1.775871e+10 -2.241878e+10 -7.795781e+08
1.071200e+10 2.907417e+10 5.612780e+07
1.680961e+10 1.403672e+10 -3.419912e+08
-1.143054e+10 2.869840e+10 1.147432e+09
-9.961621e+08 -3.044399e+10 -5.502986e+07
1.457230e+09 -3.011682e+10 -2.518591e+08
-2.814494e+10 -4.462822e+09 4.355389e+08
2.344682e+10 1.752248e+10 6.300250e+08
2.425438e+10 1.269224e+09 -5.933165e+08
-1.563453e+10 -2.313613e+10 2.982410e+08
1.548892e+10 -2.382502e+10 7.676608e+08
-4.598566e+09 2.350911e+10 -6.873265e+08
5.367078e+09 2.986796e+10 -3.103053e+08
1.751635e+10 1.575776e+10 -5.373782e+07
-1.035705e+10 -2.663730e+10 2.171735e+09
1.023571e+10 -2.536917e+10 6.954301e+08
-2.201347e+10 1.124655e+10 -4.699783e+08
-2.331589e+10 -1.210478e+09 -5.200430e+08
-2.318698e+10 1.986004e+10 -2.158603e+08
-1.778574e+10 2.514817e+10 6.532220e+08
-2.642027e+10 -1.849756e+10 9.652510e+08
2.441798e+10 -1.793827e+10 8.831794e+07
3.819256e+09 2.522075e+10 -8.859149e+08
1.465420e+10 -2.850021e+10 9.144605e+08
1.534773e+10 1.563689e+10 -1.339722e+08
-1.459664e+10 -2.802345e+10 8.180967e+08
-6.044269e+09 3.211269e+10 -1.674295e+09
4.251989e+09 3.066029e+10 5.964935e+07
-2.016160e+09 -2.721569e+10 2.235466e+08
1.449020e+09 -2.760809e+10 5.912474e+08
3.463727e+09 2.305776e+10 8.110000e+08
-2.555918e+10 -1.425094e+10 5.684022e+08
-2.978209e+10 -6.470943e+09 1.059896e+07
-1.949550e+10 -1.277217e+10 -1.038665e+08
-1.735406e+10 -2.393138e+10 6.226836e+08
1.628499e+10 1.421497e+10 2.524963e+08
1.879667e+10 -2.367377e+10 -3.198399e+08
1.782524e+10 -2.073500e+10 2.532482e+07
-1.814459e+10 -2.058321e+10 6.528011e+08
-2.572261e+10 -1.091079e+08 9.782554e+08
2.097204e+10 2.126170e+10 6.606288e+08
-1.498775e+10 2.466193e+10 1.743411e+09
-1.452645e+10 2.495939e+10 -1.173871e+09
-2.122855e+10 2.075845e+10 1.898523e+08
-2.348479e+10 3.045290e+09 2.617121e+07
-1.700133e+10 1.652386e+10 -1.477361e+08
1.658548e+10 1.752112e+10 -1.073330e+09
1.577713e+09 2.838213e+10 -1.326065e+09
2.922443e+10 1.330166e+09 -1.085431e+09
-1.178647e+10 2.021663e+10 -6.042391e+07
-1.572686e+10 -1.640142e+10 1.552910e+09
1.542089e+10 -1.673909e+10 1.144269e+09
2.273356e+10 9.168146e+09 4.248962e+08
2.283462e+10 -8.990366e+09 -1.090514e+09
-6.254602e+09 -3.127710e+10 3.032114e+07
6.566976e+09 -3.064827e+10 4.342555e+08
1.754887e+10 1.471581e+10 -2.569344e+08
1.414053e+10 1.720389e+10 -5.017969e+08
1.463516e+10 1.834232e+10 3.936343e+08
2.109526e+10 2.129335e+10 5.629346e+08
7.862750e+09 2.200391e+10 -5.304964e+08
-7.879303e+09 2.157154e+10 -1.243321e+09
5.137684e+09 2.250441e+10 -4.842479e+08
3.026175e+10 5.340804e+09 1.756118e+09
1.662476e+10 2.197436e+10 6.172253e+08
-2.711937e+09 -2.272991e+10 8.254943e+08
3.023088e+09 -2.320474e+10 -1.208904e+09
-1.284664e+10 -1.921801e+10 -8.797403e+08
1.414634e+10 1.692951e+10 -7.280147e+08
1.361545e+10 -1.915874e+10 5.078307e+07
2.450754e+10 -1.943952e+10 -1.571283e+09
-2.600537e+10 -1.700105e+10 -5.800550e+08
-1.601938e+09 2.455690e+10 -1.589456e+09
1.097126e+09 2.687746e+10 2.120036e+08
-2.213486e+10 6.294180e+09 8.123966e+08
-2.709315e+10 1.244048e+10 -7.900613e+08
-1.606420e+10 -2.326560e+10 -4.369728e+08
1.574083e+10 -2.312396e+10 -3.754915e+08
-2.903288e+10 6.581609e+09 -6.197550e+08
1.384263e+10 1.795979e+10 -5.767201e+08
2.612478e+10 6.788173e+09 -3.411491e+08
2.565715e+10 1.186018e+10 3.200435e+08
-7.108801e+09 3.241746e+10 9.190763e+08
-2.351840e+10 -1.453723e+10 -3.242518e+08
-2.416702e+10 1.000265e+10 -2.156574e+08
-3.026886e+09 2.212773e+10 2.518323e+08
-2.379388e+10 2.064365e+10 -4.444873e+08
1.195139e+09 -2.277725e+10 1.053969e+09
-1.260331e+09 -2.351591e+10 1.337469e+09
-2.166112e+10 2.365037e+10 -1.778383e+08
1.336115e+10 1.751527e+10 9.665827e+06
-1.898179e+10 -2.173858e+10 -1.403266e+09
1.971464e+10 -2.222348e+10 3.443825e+07
-7.251545e+09 2.885075e+10 -4.999400e+08
-5.044399e+09 3.253892e+10 6.148908e+08
2.382294e+10 -1.631162e+09 1.132208e+09
-2.501959e+10 -9.202840e+09 2.270988e+09
1.205604e+10 2.764192e+10 -1.498277e+08
-1.143365e+10 2.774492e+10 -6.564826e+08
4.636762e+09 -2.582600e+10 5.539638e+08
-5.214449e+09 -2.596636e+10 3.389535e+08
1.145152e+10 1.814129e+10 -7.000515e+08
2.729026e+10 1.515434e+10 -5.315546e+08
6.726298e+09 2.511022e+10 -9.831280e+07
-1.784116e+10 -2.624364e+10 -1.020975e+09
1.770716e+10 -2.638795e+10 -7.529516e+08
1.214995e+10 1.865623e+10 -7.209322e+08
2.613003e+10 1.551256e+10 5.070188e+08
2.140458e+10 8.637165e+09 -2.699914e+08
-2.232776e+10 1.208731e+10 -4.059718e+08
1.925033e+10 -1.132863e+10 5.067909e+08
5.799180e+09 3.093667e+10 -8.358064e+07
1.395518e+10 1.675987e+10 4.592409e+08
2.675981e+10 8.098913e+09 -3.680137e+08
-1.696845e+10 -3.975206e+10 3.508800e+08
1.201424e+10 -2.968998e+10 4.676916e+07
3.209255e+10 -4.495093e+09 6.146371e+08
7.980807e+09 -2.126789e+10 2.013627e+08
9.452208e+09 -2.143434e+10 2.919694e+08
-9.353944e+09 -2.469552e+10 2.168110e+08
-1.148715e+10 -2.334999e+10 3.264043e+08
-1.400040e+10 -1.884380e+10 1.185529e+08
1.428553e+10 -1.831787e+10 5.837020e+08
1.371143e+10 2.272443e+10 1.013963e+09
-1.771184e+10 2.480255e+10 -2.207295e+08
1.222187e+10 -2.404822e+10 -6.070835e+08
-1.275861e+10 -2.309784e+10 -6.123934e+08
-1.306770e+10 2.853734e+10 1.519761e+08
8.764353e+09 2.279480e+10 -4.513385e+08
-7.853685e+09 2.218420e+10 1.597461e+08
-2.773687e+10 7.776256e+09 -5.513481e+08
1.419838e+10 -1.792928e+10 -4.246707e+08
-1.366897e+10 -1.878257e+10 3.737262e+08
-2.817025e+10 -1.066176e+10 1.037513e+08
1.080929e+10 2.052094e+10 -2.610266e+08
1.162019e+10 2.217011e+10 8.396846e+07
-1.078903e+10 2.059468e+10 -5.724790e+08
3.091413e+10 7.635661e+09 1.014133e+08
-2.232781e+10 -8.384430e+09 3.331418e+08
-1.304818e+10 2.355386e+10 -4.877938e+08
-2.250195e+10 5.998438e+08 6.298303e+06
2.944596e+10 1.401125e+09 4.161412e+08
1.866244e+10 1.611831e+10 6.977913e+08
1.922055e+10 1.664262e+10 3.599189e+08
-2.848955e+10 1.337559e+10 3.022586e+08
1.196888e+10 1.963842e+10 9.612648e+08
-2.311508e+10 1.613517e+10 2.232839e+08
-2.468444e+10 1.771589e+10 8.092368e+08
-8.832837e+09 -2.449044e+10 1.194141e+09
7.964155e+09 -2.636154e+10 -2.920520e+08
-1.453788e+09 2.703066e+10 -9.615642e+07
2.264986e+10 -2.922115e+09 -7.873159e+08
-2.171858e+10 2.395891e+10 -4.286474e+08
1.052315e+10 -2.791838e+10 2.807352e+08
-1.383567e+10 -3.133652e+10 3.882878e+09
-3.256959e+10 -1.427957e+10 -2.349258e+08
1.003191e+10 2.061406e+10 -2.479671e+09
1.401155e+10 2.189944e+10 1.165541e+09
1.592996e+10 2.499626e+10 -6.779223e+08
-4.803517e+09 -2.179047e+10 -3.666976e+08
4.710993e+09 -2.166357e+10 -3.427345e+08
-2.165984e+10 -8.338589e+09 -1.113944e+07
6.429812e+09 2.308864e+10 8.459556e+08
-7.015258e+09 2.224470e+10 -5.243940e+08
2.679207e+10 -7.439704e+09 -9.179848e+07
-2.392076e+10 -1.136200e+10 8.751121e+08
-2.659745e+10 7.446838e+09 1.264265e+09
1.070955e+10 1.941631e+10 -1.053035e+08
2.728246e+10 7.820137e+09 -6.366594e+08
-2.626432e+10 4.914593e+09 2.640975e+08
3.666702e+09 2.723198e+10 3.103249e+09
2.064024e+10 2.384628e+10 5.401999e+08
2.432547e+10 2.115799e+10 -1.366789e+08
-1.936572e+10 1.274245e+10 1.678913e+07
-1.311102e+09 -2.671791e+10 -1.979394e+08
-6.818340e+08 -2.451940e+10 1.059200e+09
-2.034977e+09 2.335460e+10 4.902104e+08
2.463277e+10 1.297804e+10 -5.723987e+08
9.795831e+09 2.148353e+10 -1.446416e+09
-1.804024e+10 2.227595e+10 -8.071316e+08
2.548903e+10 -6.542717e+09 -5.409445e+08
2.244755e+10 1.641505e+10 -1.336661e+09
9.125192e+09 3.076620e+10 3.173972e+08
-9.071888e+09 3.435849e+10 -5.145811e+08
2.233867e+10 1.876231e+10 -4.865583e+08
1.438353e+10 2.690420e+10 -4.506386e+07
-1.296972e+10 2.464068e+10 2.600802e+08
-2.671990e+10 -6.843904e+09 1.724645e+09
-4.221394e+09 -3.121707e+10 -8.047426e+08
8.186978e+09 2.053022e+10 -7.760998e+08
5.062746e+09 -3.125641e+10 -4.005726e+08
2.519586e+10 -1.218526e+10 2.983858e+07
2.330944e+10 6.680243e+09 -6.453558e+08
-2.465675e+10 -2.063671e+10 -3.584664e+08
2.365573e+10 -2.067159e+10 1.255023e+09
6.058829e+09 2.354325e+10 7.548868e+07
-8.707521e+09 2.153817e+10 5.940249e+08
1.201290e+10 2.429937e+10 2.223781e+08
2.967880e+10 9.731392e+09 -2.787234e+08
1.112230e+10 -2.896216e+10 4.971014e+08
8.289909e+09 2.094704e+10 -8.697726e+08
-9.500427e+09 -2.795215e+10 3.096770e+08
2.594236e+10 -8.143914e+09 7.529195e+08
9.051379e+09 2.103280e+10 -6.043460e+07
2.708541e+10 1.881727e+08 8.490994e+07
-2.613956e+10 -5.848498e+09 1.134610e+08
2.875199e+10 -9.559864e+09 6.652509e+08
-1.740361e+10 -2.501028e+10 3.877809e+07
1.883587e+10 -2.554586e+10 3.557976e+08
-3.340406e+10 -4.417006e+09 2.715978e+07
1.551647e+10 -1.855234e+10 -7.694801e+08
7.642212e+09 2.084904e+10 -1.469639e+08
-1.504000e+10 -1.726668e+10 7.581188e+08
-2.773424e+10 -1.593157e+10 3.389925e+08
-2.590514e+10 -9.295402e+09 -8.632589e+08
-2.433182e+10 -2.129197e+10 -1.294316e+08
2.381734e+10 -2.095717e+10 1.668720e+08
1.107206e+10 2.139049e+10 -3.285541e+08
-2.028507e+10 1.602883e+10 4.179403e+08
1.642526e+10 -2.460750e+10 3.296537e+08
-1.635842e+10 -2.458150e+10 3.286586e+08
1.034337e+10 -2.048529e+10 8.275743e+08
7.543550e+09 2.090821e+10 -1.034448e+08
-1.032465e+10 -2.124279e+10 -6.177148e+08
2.357030e+10 -2.243730e+09 1.130169e+09
-9.940596e+09 -3.026436e+10 -1.225163e+09
1.001633e+10 -2.941225e+10 -1.156288e+09
1.098636e+10 -1.944131e+10 1.472434e+09
-1.109422e+10 -1.950597e+10 1.401565e+09
-1.195535e+09 2.307956e+10 -1.062706e+09
2.848887e+10 1.165499e+10 4.425163e+08
-2.354389e+10 1.182149e+09 2.550642e+08
1.596100e+10 2.660155e+10 -9.446271e+08
5.622350e+09 2.252338e+10 2.214509e+07
-1.842432e+10 -1.273212e+10 -9.812594e+08
-1.802784e+10 -1.574067e+10 -9.212732e+08
2.074091e+10 -1.586804e+10 -7.396675e+08
1.780668e+10 -1.543157e+10 9.059605e+08
-3.015311e+10 6.258589e+09 1.303653e+09
1.179411e+10 2.097987e+10 -1.417803e+09
-1.188600e+10 1.976978e+10 -5.778261e+08
-2.204835e+10 -6.949369e+09 -4.614834e+08
-3.020226e+10 9.437713e+08 2.764866e+08
2.261647e+09 2.642685e+10 1.254814e+09
5.445011e+09 2.177359e+10 9.503943e+08
2.196045e+10 -7.446634e+09 3.298029e+08
-2.986192e+10 9.864302e+09 1.480913e+09
-4.097826e+08 -2.587065e+10 -3.079367e+08
-6.523617e+08 -2.559025e+10 -1.124683e+09
-6.733391e+09 2.564264e+10 -1.592594e+09
-1.377420e+10 -2.678401e+10 -3.165095e+08
1.440785e+10 -2.719692e+10 -4.762311e+08
5.849351e+09 -2.316698e+10 -1.122659e+09
-5.595998e+09 -2.137328e+10 -2.862943e+08
-2.164842e+10 -1.834243e+10 -1.202520e+08
5.333408e+09 2.152757e+10 1.211496e+09
2.063980e+10 -1.794724e+10 8.397671e+07
2.251234e+10 6.990200e+09 1.052751e+08
2.414706e+10 2.046547e+10 1.477003e+09
2.588801e+10 -1.912269e+10 3.413210e+08
-2.358962e+10 -1.706237e+10 -3.696678e+07
-1.325159e+10 1.778055e+10 8.994866e+08
1.247366e+10 2.855415e+10 -3.676459e+08
5.983925e+09 -2.301357e+10 5.256259e+08
-5.743176e+09 -2.212144e+10 -7.415588e+08
-1.055825e+10 2.960781e+10 3.321600e+08
4.179991e+09 2.257140e+10 8.124339e+08
-2.589303e+10 8.579417e+09 6.947441e+08
2.756425e+10 -1.465988e+10 1.787054e+09
1.390854e+10 -1.856961e+10 -3.290202e+08
-1.480069e+10 -1.921630e+10 -7.841941e+08
-2.800509e+10 1.415808e+10 1.270645e+08
1.424491e+10 1.795771e+10 6.874091e+08
-2.233097e+10 -3.715750e+09 -1.628167e+09
2.557372e+10 8.601534e+09 2.293715e+08
2.359559e+10 1.233304e+10 -1.540145e+09
2.110946e+10 -9.229483e+09 -1.624715e+08
3.306500e+09 2.225295e+10 -6.184420e+08
2.097282e+10 -2.068343e+10 -1.062109e+08
-2.153502e+10 -2.116307e+10 -1.474596e+08
-2.528619e+10 -1.256181e+10 4.287173e+08
2.073517e+10 -2.318728e+10 -1.929323e+08
-2.110105e+10 -2.172593e+10 -3.567303e+07
-8.030511e+08 -2.682263e+10 -6.346569e+07
2.394712e+09 -2.886325e+10 -1.433455e+08
4.194938e+07 3.558966e+10 9.614017e+08
2.865666e+10 1.123062e+10 -2.707601e+08
-1.870475e+10 1.814969e+10 -6.491460e+08
3.934111e+09 2.150043e+10 4.434978e+08
6.328386e+09 -2.636303e+10 -1.593725e+08
-6.784137e+09 -2.639186e+10 -2.013506e+08
1.923254e+10 -2.420898e+10 -6.112414e+08
-2.128276e+10 -2.362005e+10 1.200977e+09
2.731417e+10 -1.718477e+10 6.145506e+08
-2.214991e+10 6.463175e+09 1.691074e+08
-2.818138e+10 1.303801e+10 1.315844e+09
3.106737e+10 -1.585022e+09 4.832584e+08
-2.678498e+10 5.747073e+09 -1.229802e+09
-4.544958e+09 -2.544364e+10 -3.222598e+07
3.287003e+09 2.189800e+10 -4.247825e+08
3.494781e+09 -2.629662e+10 -1.622008e+09
1.815134e+07 -2.994342e+10 -3.505941e+08
8.477865e+07 -2.901215e+10 4.977410e+08
-2.161080e+10 8.859407e+09 -2.317003e+08
-2.660940e+10 1.607452e+10 7.604461e+08
9.664573e+08 2.352819e+10 -2.545012e+07
-2.858318e+10 -1.465613e+10 2.230831e+08
1.792884e+10 -1.634224e+10 1.810975e+08
-1.795405e+10 -1.615026e+10 3.238573e+08
-2.277066e+10 -2.476413e+09 4.348317e+08
1.753876e+09 2.368766e+10 1.162840e+09
-2.974752e+09 -3.142807e+10 4.084860e+08
3.074754e+09 -3.223319e+10 8.706531e+08
-2.958980e+10 -3.051125e+09 -2.517488e+08
2.919230e+09 2.746737e+10 -8.532128e+08
2.485513e+10 6.444165e+09 4.084956e+08
-8.026764e+09 -3.200511e+10 1.343375e+09
7.636069e+09 -3.071722e+10 1.274049e+09
-2.683468e+10 1.115735e+10 5.599711e+08
-4.872467e+09 2.351348e+10 1.102185e+09
-2.279956e+08 2.917867e+10 -1.463179e+09
4.749114e+08 2.213815e+10 2.622815e+07
2.263291e+10 -4.449487e+09 1.093740e+09
-2.381088e+10 -1.174885e+09 -3.517508e+08
-2.011204e+10 -1.753968e+10 6.232443e+08
1.976963e+10 -1.757375e+10 3.652448e+08
2.838930e+09 2.257318e+10 -1.916380e+08
-1.533959e+10 1.750651e+10 -8.583480e+08
-2.804239e+10 1.264974e+09 1.361254e+09
2.870648e+10 -1.214825e+10 6.556449e+07
-1.770418e+10 -1.462982e+10 2.289603e+08
1.778649e+10 -1.421045e+10 9.341608e+08
3.224262e+09 2.425704e+10 1.794597e+09
-1.324443e+09 2.318584e+10 1.053455e+08
1.175299e+09 2.227370e+10 9.056452e+08
-2.893532e+10 -8.221464e+09 -1.202249e+09
-6.643136e+09 2.915872e+10 -4.089175e+08
6.751814e+09 2.970510e+10 -1.329281e+08
-1.686335e+10 2.551403e+10 1.089154e+08
2.544063e+10 1.636037e+10 2.814918e+08
2.889089e+10 1.112574e+10 -6.644382e+08
-3.531977e+09 2.719108e+10 1.116366e+09
2.701015e+10 -1.181286e+09 -4.161451e+08
-2.917150e+09 2.356794e+10 -2.554867e+09
2.227615e+10 5.008337e+09 -4.428655e+08
2.014221e+10 -2.233594e+10 5.881463e+08
-2.040275e+10 -2.295712e+10 -3.410659e+08
-2.031042e+10 -1.351455e+10 1.193615e+08
1.894378e+10 -1.160804e+10 6.524930e+08
-7.852929e+09 2.475319e+10 -1.586022e+09
8.475154e+09 2.472750e+10 -4.598955e+08
-2.722584e+10 1.350197e+09 1.975819e+09
-1.189547e+10 2.159771e+10 -2.703355e+08
1.154302e+10 2.028759e+10 -1.894747e+08
2.644647e+08 2.178596e+10 1.073011e+09
-2.520417e+10 2.438993e+09 5.576994e+07
-3.174725e+10 -4.321531e+08 -3.290683e+08
-9.782678e+09 2.814349e+10 -1.373153e+09
9.909314e+09 2.791041e+10 8.802494e+08
-2.935627e+10 -5.340390e+09 5.964152e+08
1.440030e+10 1.744530e+10 2.821417e+08
-1.232493e+10 -2.583892e+10 -1.087722e+09
1.266073e+10 -2.596087e+10 -3.038839e+08
-2.236527e+10 4.612992e+09 -5.497987e+08
2.480164e+10 -1.055812e+10 1.195568e+08
-1.087437e+09 2.230961e+10 6.473199e+07
-2.880707e+10 -1.537283e+09 7.149393e+07
-1.800812e+10 2.061716e+10 -2.836601e+08
1.836363e+10 1.400785e+10 -5.960193e+08
1.770746e+10 1.371140e+10 2.590689e+08
2.466657e+10 -1.540688e+10 3.294360e+08
-2.017138e+10 -1.168406e+10 -5.877739e+07
1.945310e+10 -1.271586e+10 3.788913e+08
-2.125712e+10 7.305452e+09 -9.782418e+07
3.129250e+10 -2.202444e+09 1.188324e+09
-1.842718e+10 -1.428236e+10 2.950285e+08
-2.389005e+09 2.378636e+10 1.473471e+09
2.564922e+10 -1.720512e+10 1.310950e+09
-2.569968e+10 -6.988798e+08 -7.272615e+08
2.116528e+10 1.055604e+10 -1.085379e+09
-7.579303e+09 2.841941e+10 -9.897063e+08
1.670467e+10 1.863558e+10 -1.357305e+09
2.954894e+10 -1.812457e+09 1.099277e+07
1.575384e+10 1.698400e+10 -4.342845e+08
-1.365367e+09 3.301993e+10 -1.142469e+09
7.536054e+09 2.898781e+10 1.253882e+09
1.964916e+10 2.095698e+10 1.018184e+09
-2.616616e+09 2.240219e+10 8.291385e+08
-2.217219e+10 -8.178222e+09 -7.749977e+07
-1.657269e+10 2.294573e+10 -2.383802e+08
1.913845e+10 -1.949002e+10 -4.251214e+08
-2.001737e+10 -2.007420e+10 2.070491e+08
-3.022776e+10 5.935547e+08 2.325926e+08
-1.854931e+10 1.376044e+10 4.011278e+07
2.064544e+10 -1.101928e+10 4.637407e+08
-2.926708e+10 -1.137612e+10 7.042224e+08
2.604248e+10 3.863918e+09 -5.431398e+08
2.869324e+10 -8.620791e+09 -1.929689e+09
-3.564079e+09 2.126068e+10 -8.448602e+08
-7.679394e+09 -3.191490e+10 -6.811778e+08
7.631803e+09 -3.179510e+10 -5.985755e+08
1.857779e+10 2.536873e+10 -5.452829e+08
-2.960190e+10 -4.947052e+08 -1.415808e+08
-1.880641e+10 1.722948e+10 4.192826e+08
-3.153521e+10 9.447476e+08 -2.407370e+08
-7.351593e+09 2.817027e+10 1.253777e+08
6.287047e+09 2.655283e+10 2.790852e+08
-1.628898e+10 2.119511e+10 -1.412852e+09
-1.653794e+10 -1.533198e+10 1.237349e+08
-3.317466e+09 2.104002e+10 8.889011e+08
1.704370e+10 -1.554738e+10 -2.586939e+08
-1.663107e+10 -1.491028e+10 -6.571397e+07
1.677959e+10 -1.521361e+10 7.876797e+07
2.744278e+10 -1.755609e+10 1.729249e+09
-2.794488e+10 -1.727729e+10 -1.141291e+09
1.952785e+10 1.169435e+10 -5.652581e+07
1.547784e+10 -1.618088e+10 -2.622551e+08
-1.597633e+10 -1.617603e+10 3.077947e+08
1.991967e+10 1.030842e+10 -3.971545e+07
2.091816e+10 8.845505e+09 8.890850e+07
-2.997885e+09 2.316163e+10 -5.039679e+08
2.020675e+10 1.047397e+10 7.190807e+07
1.990942e+10 1.223828e+10 3.851436e+08
-1.643935e+10 2.459685e+10 -1.310978e+09
3.090189e+10 -5.255591e+09 2.383329e+08
2.955528e+09 -2.419221e+10 -3.821084e+08
-4.033229e+09 -2.620203e+10 -2.269996e+08
-3.042698e+10 -3.288345e+09 9.017452e+08
-1.475266e+10 2.672168e+10 -1.002377e+09
-7.361302e+09 -2.508468e+10 1.265549e+08
6.168624e+09 -2.517593e+10 4.851358e+07
-6.154895e+09 2.586485e+10 3.007848e+08
3.488426e+09 3.058603e+10 -8.638993e+08
-2.739920e+10 -1.265206e+10 1.910684e+08
1.621503e+10 2.333333e+10 7.971091e+08
-2.584957e+10 1.571059e+09 3.721433e+08
-2.183338e+10 -1.420033e+10 -2.899658e+08
2.148796e+10 -1.415729e+10 9.985028e+08
-1.225649e+10 2.010016e+10 -5.453237e+08
2.235128e+09 -2.926527e+10 8.378786e+08
-3.387375e+09 -2.930002e+10 -1.202899e+09
-2.333274e+10 -3.676584e+09 -3.674471e+08
-5.881865e+09 2.242934e+10 2.366148e+08
-2.232237e+10 5.726358e+09 -8.578185e+08
2.173713e+10 5.071517e+09 6.519830e+08
-1.765059e+10 -2.683037e+10 -1.953094e+08
1.730969e+10 -2.553346e+10 1.125085e+09
9.767157e+09 2.188914e+10 -1.120533e+09
-8.009067e+09 -2.408988e+10 5.019319e+07
7.236883e+09 -2.397881e+10 -1.348487e+08
2.843836e+10 -4.439424e+09 8.286561e+08
-1.691948e+10 1.490728e+10 9.922900e+08
-2.356209e+10 1.752712e+10 2.009316e+07
-6.985920e+09 2.617354e+10 3.178701e+08
-1.085297e+10 2.525930e+10 -9.826323e+07
1.207945e+10 2.424953e+10 -7.254393e+07
-1.977777e+10 1.215458e+10 -5.272204e+07
3.805936e+09 2.243605e+10 -8.214615e+08
2.857893e+10 4.728947e+09 3.880386e+08
-2.673187e+10 -1.514462e+10 -4.358145e+08
2.447924e+10 -1.511789e+10 -7.295147e+08
2.864285e+10 1.128421e+09 3.472797e+08