# vtk DataFile Version 2.0
Electric current density generated by TTH
ASCII
DATASET UNSTRUCTURED_GRID
POINTS 2782 double
2.880905e-05 -7.056181e-21 -3.150850e-22
2.789590e-05 7.195822e-06 -3.150850e-22
-2.691482e-05 1.027393e-05 -3.150850e-22
-2.592571e-05 -1.163245e-05 9.258319e-07
1.076210e-05 2.446478e-05 1.011129e-06
-1.624249e-05 -2.177967e-05 1.236972e-06
-2.780416e-06 2.833190e-05 -8.724395e-07
1.220856e-05 2.328438e-05 3.711997e-07
-1.974595e-05 2.050422e-05 -8.743648e-07
2.172060e-05 -1.590345e-05 -1.136734e-06
2.172060e-05 1.590345e-05 1.136734e-06
-2.476361e-05 9.319288e-06 7.238195e-07
-2.476302e-05 -9.321282e-06 7.240398e-07
-2.719238e-05 9.515024e-06 -3.150850e-22
2.643896e-05 9.849375e-07 -7.211139e-07
2.643896e-05 -9.849375e-07 7.211139e-07
6.219565e-06 -2.602215e-05 -1.032390e-06
-1.571619e-05 2.203523e-05 1.202541e-06
-7.209903e-07 2.845094e-05 8.809497e-07
2.254635e-05 -1.501203e-05 1.210389e-06
2.254635e-05 1.501203e-05 -1.210389e-06
-2.814919e-05 -4.216850e-06 8.775244e-07
-2.686923e-05 4.100015e-06 1.240035e-06
2.473205e-05 -1.146787e-05 -1.259643e-06
-2.744854e-05 8.748637e-06 -3.150850e-22
2.473205e-05 1.146787e-05 1.259643e-06
-1.327317e-05 -2.518761e-05 -8.692721e-07
1.163118e-07 -2.844323e-05 8.982981e-07
-1.817892e-05 -1.892569e-05 -1.246673e-07
-2.190153e-05 -1.446129e-05 1.513393e-07
1.648289e-05 -2.067259e-05 -6.939327e-07
1.648289e-05 2.067259e-05 6.939327e-07
-2.815480e-05 4.227579e-06 8.697990e-07
2.286762e-05 1.287205e-05 1.171588e-07
2.286762e-05 -1.287205e-05 -1.171588e-07
-2.768311e-05 7.975367e-06 -3.150850e-22
-2.598871e-05 -3.642541e-06 -1.296790e-07
-2.599941e-05 3.570445e-06 -1.363313e-07
2.726093e-05 -2.436141e-06 1.277296e-06
2.726093e-05 2.436141e-06 -1.277296e-06
-2.816251e-05 3.982373e-06 -8.990952e-07
1.350815e-05 -2.377501e-05 -1.274041e-06
4.965480e-06 -2.636365e-05 1.082260e-06
1.535567e-05 -2.398348e-05 -8.613264e-07
2.144938e-05 -1.602264e-05 1.045559e-06
2.144938e-05 1.602264e-05 -1.045559e-06
-2.789590e-05 7.195822e-06 -3.150850e-22
2.115773e-05 1.732027e-05 -1.273835e-06
2.115773e-05 -1.732027e-05 1.273835e-06
-6.518256e-07 -2.853496e-05 -7.841809e-07
-1.907630e-05 1.948087e-05 1.260484e-06
-2.400216e-05 -1.313572e-05 -1.276302e-06
-2.303822e-05 -1.458952e-05 -1.261241e-06
-1.906364e-05 -1.940537e-05 1.246037e-06
-3.900691e-06 -2.819560e-05 -8.766081e-07
-1.949402e-05 -2.064488e-05 9.462155e-07
-2.643197e-05 1.769188e-07 -6.831541e-07
-2.808674e-05 6.410616e-06 -3.150850e-22
-1.140806e-06 2.711766e-05 1.228727e-06
-2.429458e-05 -1.491343e-05 -8.284413e-07
2.123343e-05 -1.895979e-05 -8.742475e-07
2.123343e-05 1.895979e-05 8.742475e-07
-1.043467e-05 2.650245e-05 8.562753e-07
1.099516e-05 2.626874e-05 8.625658e-07
2.613415e-05 -5.179010e-06 -9.381242e-07
2.613415e-05 5.179010e-06 9.381242e-07
-1.863262e-05 2.159306e-05 -8.115205e-07
-2.262134e-05 1.744618e-05 -7.506004e-07
-2.825549e-05 5.620366e-06 -3.150850e-22
-1.903955e-05 1.959923e-05 -1.271103e-06
-2.688513e-05 9.369495e-06 -8.691774e-07
-2.688526e-05 -9.369394e-06 -8.690859e-07
-2.761938e-05 6.958655e-06 -8.564542e-07
-4.412642e-06 2.598630e-05 -5.470372e-07
-2.292231e-05 1.448237e-05 -1.219827e-06
2.827401e-05 -3.463197e-06 -8.532933e-07
2.827401e-05 3.463197e-06 8.532933e-07
2.337651e-05 -1.627381e-05 8.555681e-07
2.337651e-05 1.627381e-05 -8.555681e-07
-2.840200e-05 4.825694e-06 -3.150850e-22
1.521660e-05 2.152764e-05 -5.560315e-07
1.521660e-05 -2.152764e-05 5.560315e-07
-2.847657e-05 -4.594988e-07 -8.589503e-07
-2.807228e-05 -1.833689e-07 1.162806e-06
-8.371798e-06 -2.725624e-05 8.210309e-07
-1.149523e-05 -2.471090e-05 -1.258030e-06
2.299049e-05 -1.520271e-05 -1.285817e-06
2.299280e-05 1.519920e-05 1.285817e-06
-5.732752e-06 -2.668266e-05 1.265512e-06
-5.627394e-06 2.671263e-05 1.266837e-06
-2.852617e-05 4.027226e-06 -3.150850e-22
-1.041347e-05 2.527375e-05 1.272680e-06
-2.680743e-05 -4.082170e-06 1.220634e-06
1.521004e-05 -2.317472e-05 -1.271158e-06
-1.040208e-05 -2.651208e-05 8.595751e-07
-2.821666e-05 -4.249341e-06 -7.939261e-07
-1.720248e-05 -1.995368e-05 -5.184880e-07
2.838209e-05 2.544560e-06 8.411752e-07
2.838209e-05 -2.544560e-06 -8.411752e-07
-1.870709e-05 -1.841053e-05 -1.661805e-07
2.013786e-05 -1.840161e-05 1.263186e-06
-2.862790e-05 3.225590e-06 -3.150850e-22
2.013786e-05 1.840161e-05 -1.263186e-06
-2.671727e-05 -4.832901e-06 -1.231549e-06
-2.580290e-05 -4.758777e-06 6.947366e-08
1.528322e-06 2.833597e-05 -9.615950e-07
1.166939e-05 -2.598321e-05 -8.554903e-07
-2.453483e-05 1.081246e-05 1.072152e-06
-2.453476e-05 -1.081307e-05 1.072274e-06
2.685295e-05 5.636044e-06 -1.283649e-06
2.685295e-05 -5.636044e-06 1.283649e-06
-1.118875e-05 2.383217e-05 4.771405e-07
2.768311e-05 7.975367e-06 -3.150850e-22
-2.870710e-05 2.421415e-06 -3.150850e-22
-2.695915e-05 6.343538e-06 -1.274773e-06
2.218368e-05 -1.441039e-05 7.151170e-07
2.218368e-05 1.441039e-05 -7.151170e-07
-2.349115e-05 1.620748e-05 -7.876314e-07
-1.474776e-05 2.193335e-05 6.797594e-07
-1.019403e-05 2.659789e-05 -8.542310e-07
-1.319649e-05 -2.435971e-05 -1.273500e-06
1.472092e-05 2.441076e-05 8.293975e-07
-2.580300e-05 4.764593e-06 8.822445e-08
-7.417657e-06 2.606212e-05 -1.214040e-06
-2.876372e-05 1.615336e-06 -3.150850e-22
2.421429e-05 -1.011436e-05 1.201139e-07
2.421429e-05 1.011436e-05 -1.201139e-07
4.377424e-06 2.594133e-05 -4.240154e-07
2.632468e-05 1.084202e-05 -8.703178e-07
2.597306e-05 1.170156e-05 -8.510501e-07
2.632468e-05 -1.084202e-05 8.703178e-07
2.597306e-05 -1.170156e-05 8.510501e-07
2.285289e-05 -1.702820e-05 8.371720e-07
2.285289e-05 1.702820e-05 -8.371720e-07
-2.005801e-05 -1.698734e-05 -3.505219e-07
-2.879771e-05 8.079859e-07 -3.150850e-22
2.408544e-05 1.301143e-05 1.277968e-06
2.408544e-05 -1.301143e-05 -1.277968e-06
-2.318236e-05 -1.243549e-05 4.212127e-07
-2.667500e-05 9.969047e-06 8.626200e-07
-2.667500e-05 -9.969047e-06 8.626200e-07
-7.306945e-06 -2.603610e-05 -1.193280e-06
2.286846e-05 1.698818e-05 8.502812e-07
2.277120e-05 -1.710446e-05 -8.596517e-07
9.635091e-06 -2.450714e-05 -4.899878e-07
-2.569954e-05 1.231268e-05 8.401380e-07
-2.880905e-05 -7.323463e-20 -3.150850e-22
-2.569976e-05 -1.231173e-05 8.403887e-07
-6.257330e-06 2.551684e-05 -3.050095e-07
1.007192e-05 -2.663800e-05 8.608876e-07
-2.333885e-05 -1.469107e-05 1.285252e-06
-7.896011e-07 -2.848772e-05 8.379973e-07
-2.736781e-06 2.667202e-05 -1.072390e-06
-1.781518e-05 2.129688e-05 -1.263245e-06
-1.926881e-05 2.102688e-05 8.119147e-07
-1.307289e-05 -2.286848e-05 5.094951e-07
-1.617264e-05 -2.176317e-05 -1.219941e-06
-2.879771e-05 -8.079859e-07 -3.150850e-22
-1.501137e-05 -2.186436e-05 8.079188e-07
2.611369e-05 -9.063275e-06 1.280901e-06
2.611369e-05 9.063275e-06 -1.280901e-06
-2.734424e-05 -1.283976e-06 -1.277862e-06
3.237963e-06 2.828022e-05 -8.756967e-07
-1.923349e-05 -1.813378e-05 6.855867e-07
2.544071e-05 1.004885e-05 -1.275256e-06
2.544071e-05 -1.004885e-05 1.275256e-06
1.101862e-05 -2.388555e-05 4.138099e-07
-2.330086e-05 1.469287e-05 1.286210e-06
-2.876372e-05 -1.615336e-06 -3.150850e-22
-2.175653e-05 1.550297e-05 1.001292e-06
2.772439e-05 -6.625530e-06 8.304627e-07
2.782558e-05 6.537708e-06 -7.279169e-07
1.035812e-05 -2.657750e-05 -8.067760e-07
-2.693610e-05 8.177617e-06 1.123031e-06
-2.693610e-05 -8.177617e-06 1.123031e-06
7.729395e-06 2.615282e-05 -1.261609e-06
1.094414e-05 -2.521149e-05 1.285865e-06
-7.041636e-06 -2.638757e-05 1.268901e-06
-6.993205e-06 2.642468e-05 1.272587e-06
-2.870710e-05 -2.421415e-06 -3.150850e-22
-5.139043e-06 -2.679553e-05 -1.264087e-06
-2.681749e-05 4.191341e-06 -1.229161e-06
-1.993685e-05 1.724784e-05 -5.552970e-07
-1.691782e-05 2.033183e-05 -7.100266e-07
-1.574285e-05 -2.375914e-05 -8.347144e-07
2.825435e-05 -9.208059e-07 -1.047517e-06
2.824867e-05 9.772312e-07 1.050202e-06
-2.830905e-05 -3.159989e-06 8.537982e-07
-1.163054e-05 2.507178e-05 1.281240e-06
-2.058441e-05 -1.768006e-05 1.226614e-06
-2.862790e-05 -3.225590e-06 -3.150850e-22
7.757444e-06 2.734331e-05 9.193683e-07
-1.615971e-05 2.182879e-05 -1.234090e-06
-2.543061e-05 6.476336e-06 -1.254077e-07
-2.543061e-05 -6.476336e-06 -1.254047e-07
-1.636200e-05 2.142560e-05 1.156245e-06
-2.314734e-05 1.238206e-05 -1.946624e-07
-2.461878e-05 -1.159495e-05 -1.248525e-06
7.343626e-06 -2.613083e-05 1.229186e-06
2.583988e-05 -4.547835e-06 4.710206e-08
2.583988e-05 4.547835e-06 -4.710206e-08
-2.852617e-05 -4.027226e-06 -3.150850e-22
1.157402e-05 2.478833e-05 1.275760e-06
-8.310679e-06 2.727428e-05 8.217905e-07
1.758432e-05 -1.961672e-05 5.163065e-07
1.758432e-05 1.961672e-05 -5.163065e-07
-2.745090e-05 7.724233e-06 -8.162319e-07
-2.641434e-05 -1.079126e-05 -7.954397e-07
-2.462651e-05 1.159424e-05 -1.250169e-06
-7.933238e-06 2.501049e-05 -7.791136e-08
2.470141e-05 9.034135e-06 -4.050636e-07
2.470141e-05 -9.034135e-06 4.050636e-07
-2.840200e-05 -4.825694e-06 -3.150850e-22
9.445989e-06 2.565057e-05 -1.272613e-06
-2.641884e-05 1.078344e-05 -7.938992e-07
5.169737e-07 2.756281e-05 1.285643e-06
5.661350e-06 -2.671027e-05 1.267661e-06
8.439795e-06 2.512432e-05 7.856983e-07
2.104088e-05 -1.578266e-05 4.071089e-07
2.104088e-05 1.578266e-05 -4.071089e-07
3.648868e-06 -2.598269e-05 -6.150903e-08
2.190903e-05 1.830908e-05 -7.712697e-07
2.186048e-05 -1.829463e-05 8.297456e-07
2.744854e-05 8.748637e-06 -3.150850e-22
-2.825549e-05 -5.620366e-06 -3.150850e-22
1.338746e-05 -2.258759e-05 -2.297653e-07
9.425431e-06 -2.565565e-05 1.272268e-06
1.779416e-05 -1.931587e-05 -2.603520e-07
1.779416e-05 1.931587e-05 2.603520e-07
-2.457857e-05 1.440589e-05 -8.488688e-07
-1.745762e-05 -2.138706e-05 -1.283627e-06
2.351455e-05 1.377551e-05 1.257754e-06
2.351455e-05 -1.377551e-05 -1.257754e-06
2.531030e-05 1.309296e-05 8.407851e-07
2.532102e-05 -1.306678e-05 -8.436603e-07
-2.808674e-05 -6.410616e-06 -3.150850e-22
4.492478e-06 2.817443e-05 -7.996074e-07
2.523314e-05 -7.571373e-06 -5.168585e-07
2.523314e-05 7.571373e-06 5.168585e-07
2.454550e-05 1.446683e-05 8.461604e-07
2.453424e-05 -1.448937e-05 -8.441477e-07
-2.845517e-05 -1.592838e-06 8.367710e-07
-1.044294e-05 2.416243e-05 4.634927e-07
[...]
POINT_DATA 2782
VECTORS 10.000GHz_fone_imag double
3.442827e-05 -1.512338e-04 1.737709e-02
-2.551099e-06 9.550030e-05 1.741249e-02
-3.440412e-05 4.507695e-05 1.748329e-02
1.296164e-02 6.037373e-03 1.191496e-02
-7.050371e-03 -1.644051e-02 -1.480693e-02
1.259549e-02 1.685366e-02 -6.111004e-03
-1.281375e-03 1.288431e-02 1.307883e-02
-3.134977e-03 -5.766965e-03 -2.363799e-02
-8.603968e-03 8.537031e-03 1.332233e-02
1.620454e-02 -1.170197e-02 -1.154133e-02
-1.600761e-02 -1.140979e-02 -1.143720e-02
1.228991e-02 -4.731321e-03 -2.021405e-02
1.246806e-02 4.697694e-03 -2.010233e-02
-4.694214e-04 2.158404e-04 1.744995e-02
1.316829e-02 5.747184e-04 -1.996619e-02
-1.303824e-02 4.987071e-04 -2.001710e-02
3.957162e-03 -1.737000e-02 -1.420444e-02
1.176125e-02 -1.675882e-02 -9.108167e-03
6.600166e-04 -1.282499e-02 1.327560e-02
-1.718761e-02 1.112122e-02 -8.351628e-03
1.731449e-02 1.104189e-02 -8.458263e-03
1.171838e-02 1.990472e-03 1.379283e-02
2.085228e-02 -3.193570e-03 -6.328025e-03
1.932586e-02 -8.019130e-03 -4.893490e-03
-1.352259e-04 9.862038e-06 1.739621e-02
-1.905886e-02 -8.661559e-03 -5.054659e-03
-5.868814e-03 -1.135844e-02 1.331776e-02
-1.072199e-06 1.352998e-02 1.258957e-02
-1.232366e-03 -1.731788e-03 -2.457443e-02
2.253296e-03 2.139477e-03 -2.455551e-02
8.240678e-03 -1.040941e-02 -2.037018e-02
-7.493959e-03 -9.830787e-03 -2.055542e-02
1.209925e-02 -2.013296e-03 1.388222e-02
-2.209806e-03 -1.185640e-03 -2.459588e-02
2.221100e-03 -1.138697e-03 -2.454115e-02
-2.748287e-04 2.037444e-04 1.757095e-02
-3.207841e-03 -1.014560e-03 -2.452524e-02
-2.927846e-03 1.107549e-03 -2.428001e-02
-2.094444e-02 1.932814e-03 -2.847240e-03
2.101393e-02 1.496211e-03 -2.770993e-03
-1.294163e-02 1.515759e-03 1.285469e-02
1.030155e-02 -1.813047e-02 -4.157949e-03
-3.537634e-03 1.891737e-02 -1.244278e-02
6.920679e-03 -1.034689e-02 1.337690e-02
-1.433829e-02 1.021845e-02 -1.451293e-02
1.420108e-02 1.116590e-02 -1.429999e-02
-5.156821e-04 3.884089e-04 1.749312e-02
1.642625e-02 1.299104e-02 -3.819184e-03
-1.627630e-02 1.372533e-02 -3.906676e-03
-2.119067e-06 -1.119927e-02 1.445226e-02
1.476224e-02 -1.518114e-02 -5.154696e-03
-1.850281e-02 -1.043610e-02 -4.199826e-03
-1.797870e-02 -1.153430e-02 -4.928782e-03
1.485622e-02 1.504846e-02 -6.528394e-03
-1.633348e-03 -1.255058e-02 1.320454e-02
9.538559e-03 9.830722e-03 1.255664e-02
-1.244640e-02 -3.273251e-04 -1.999921e-02
-1.374072e-04 2.210340e-04 1.737267e-02
8.921481e-04 -2.082603e-02 -7.399455e-03
-1.018259e-02 -6.193405e-03 1.377932e-02
9.342092e-03 -8.374399e-03 1.322009e-02
-9.186489e-03 -8.418842e-03 1.324006e-02
4.445273e-03 -1.129814e-02 1.388938e-02
-4.693037e-03 -1.133477e-02 1.366992e-02
1.685595e-02 -3.383057e-03 -1.645294e-02
-1.681733e-02 -3.430936e-03 -1.640167e-02
-7.815224e-03 8.900081e-03 1.370463e-02
-8.711223e-03 6.342378e-03 1.459998e-02
-1.232535e-04 5.692930e-05 1.746608e-02
-1.473397e-02 1.526040e-02 -4.287327e-03
-1.181978e-02 3.984736e-03 1.338109e-02
-1.174282e-02 -4.290175e-03 1.336149e-02
-1.211903e-02 3.016070e-03 1.330835e-02
-1.399206e-03 9.945164e-03 -2.207959e-02
-1.687834e-02 1.143543e-02 -7.654890e-03
1.202348e-02 -1.759780e-03 1.376333e-02
-1.237813e-02 -2.010578e-03 1.343401e-02
-1.031082e-02 6.954132e-03 1.348586e-02
1.027036e-02 7.019843e-03 1.357128e-02
-1.941407e-04 4.684222e-06 1.746473e-02
5.235216e-03 8.903630e-03 -2.186712e-02
-6.346928e-03 8.769148e-03 -2.179819e-02
-1.263420e-02 -1.493921e-05 1.361595e-02
1.773158e-02 -6.662102e-05 8.041596e-03
3.583289e-03 1.141896e-02 1.378877e-02
-9.038511e-03 -1.913327e-02 -5.751601e-03
1.759226e-02 -1.161227e-02 -8.125152e-06
-1.755670e-02 -1.150363e-02 -7.953346e-05
4.624773e-03 2.067514e-02 -4.349102e-03
4.429732e-03 -2.050079e-02 -4.442746e-03
-5.614613e-04 -2.457400e-04 1.736931e-02
7.994493e-03 -1.950870e-02 -4.151326e-03
2.080646e-02 3.447617e-03 -7.286604e-03
1.107051e-02 -1.691599e-02 2.764729e-03
4.492214e-03 1.224709e-02 1.342859e-02
-1.136412e-02 -1.557197e-03 1.405866e-02
-6.919697e-03 -8.281459e-03 -2.201507e-02
-1.191740e-02 -4.286034e-04 1.358245e-02
1.211176e-02 -1.021368e-03 1.369966e-02
-1.585103e-03 -1.860034e-03 -2.461583e-02
-1.581740e-02 1.404248e-02 -4.977097e-03
4.339082e-04 2.271594e-04 1.732200e-02
1.575519e-02 1.430580e-02 -4.892544e-03
-2.056376e-02 -3.761747e-03 -6.917060e-03
6.852104e-04 1.037766e-03 -2.468603e-02
8.978941e-04 1.415639e-02 1.220379e-02
5.084113e-03 -1.116886e-02 1.379381e-02
1.702563e-02 -7.446083e-03 -1.367324e-02
1.693816e-02 7.313439e-03 -1.389014e-02
2.035415e-02 4.566915e-03 -2.965832e-03
-2.035769e-02 4.750208e-03 -2.961691e-03
4.098373e-03 -7.707640e-03 -2.295653e-02
3.280361e-04 9.215769e-05 1.756950e-02
-2.755361e-04 -5.664044e-05 1.749171e-02
-1.951251e-02 4.926532e-03 2.260670e-03
-1.130482e-02 7.468295e-03 -1.989084e-02
1.133037e-02 7.353471e-03 -1.994662e-02
-9.196202e-03 6.425382e-03 1.420917e-02
6.654091e-03 -1.039721e-02 -2.053017e-02
-4.420604e-03 1.163433e-02 1.343457e-02
-9.809003e-03 -1.756785e-02 2.204382e-03
-6.451539e-03 -1.012638e-02 1.347639e-02
9.055139e-04 -9.735217e-04 -2.457685e-02
-5.358576e-03 1.972237e-02 -8.272929e-03
1.386356e-04 -3.790893e-04 1.735754e-02
-3.225685e-03 1.276632e-03 -2.502745e-02
2.492793e-03 1.250120e-03 -2.459100e-02
1.121968e-03 7.324578e-03 -2.347033e-02
1.159394e-02 4.647300e-03 1.325392e-02
1.171865e-02 5.040833e-03 1.325449e-02
-1.112197e-02 4.553532e-03 1.385395e-02
-1.171638e-02 5.111803e-03 1.347969e-02
-9.182060e-03 7.503954e-03 1.371921e-02
9.531791e-03 7.298230e-03 1.377419e-02
-5.303423e-03 -4.162192e-03 -2.350736e-02
8.958859e-04 -6.332706e-04 1.687357e-02
-1.863874e-02 -9.964390e-03 -3.357818e-03
1.856366e-02 -1.000210e-02 -3.392674e-03
6.871792e-03 3.614103e-03 -2.323341e-02
1.171654e-02 -4.492247e-03 1.351117e-02
1.164566e-02 4.551513e-03 1.346936e-02
-5.520892e-03 -1.959405e-02 -9.211494e-03
-9.826963e-03 -7.829597e-03 1.312188e-02
1.000659e-02 -7.741426e-03 1.316835e-02
3.286049e-03 -8.378538e-03 -2.261844e-02
1.055264e-02 -5.342948e-03 1.403780e-02
-9.870541e-05 1.017150e-03 1.699591e-02
1.073597e-02 5.212410e-03 1.385462e-02
-1.454538e-03 5.654821e-03 -2.396363e-02
-4.115928e-03 1.155413e-02 1.350583e-02
1.720586e-02 1.083787e-02 4.888945e-04
8.513847e-04 1.226850e-02 1.330803e-02
-1.386599e-03 1.863490e-02 -1.312994e-02
-1.266408e-02 1.506797e-02 3.326735e-03
8.218669e-03 -8.911280e-03 1.403110e-02
4.384798e-03 7.778259e-03 -2.226735e-02
-1.270768e-02 -1.637839e-02 -7.573985e-03
-4.116234e-04 -1.149721e-04 1.733787e-02
7.963076e-03 1.204448e-02 -1.893871e-02
-1.948263e-02 6.775333e-03 8.840615e-04
1.957097e-02 6.723769e-03 1.186966e-03
-2.100559e-02 -8.427590e-04 -3.235662e-03
2.130665e-03 1.292740e-02 1.251864e-02
9.333038e-03 8.369789e-03 -2.079803e-02
1.976082e-02 7.866821e-03 -3.802783e-03
-1.997972e-02 8.241759e-03 -4.297425e-03
-3.372156e-03 7.495640e-03 -2.349369e-02
1.669842e-02 -1.130130e-02 8.219626e-06
-3.060852e-04 5.089419e-05 1.744972e-02
1.449898e-02 -1.062294e-02 -1.451200e-02
-1.132564e-02 2.812586e-03 1.361074e-02
1.006558e-02 2.522564e-03 1.447160e-02
4.268838e-03 -1.094545e-02 1.397634e-02
1.627603e-02 -4.401457e-03 8.934616e-03
1.622743e-02 5.101103e-03 8.467178e-03
5.743659e-03 2.032546e-02 -4.858493e-03
-8.430882e-03 1.913956e-02 -1.466436e-03
5.383431e-03 2.046734e-02 -4.648384e-03
4.739085e-03 -2.065249e-02 -3.763854e-03
-1.719607e-05 -2.303990e-04 1.761336e-02
-4.222341e-03 -2.034925e-02 -5.488510e-03
-2.043117e-02 3.382306e-03 -7.023492e-03
-7.502953e-03 6.658449e-03 -2.221418e-02
-8.509773e-03 1.020772e-02 -2.036550e-02
-6.710140e-03 -1.006354e-02 1.363512e-02
1.622147e-02 -5.004024e-04 1.014947e-02
-1.599196e-02 -5.943498e-04 1.010723e-02
1.201159e-02 1.698423e-03 1.364920e-02
9.052692e-03 -1.869991e-02 9.937124e-04
1.559771e-02 1.353698e-02 -7.325406e-03
5.090157e-04 3.038899e-04 1.737624e-02
-3.476307e-03 -1.309287e-02 1.319126e-02
-1.261786e-02 1.658676e-02 -6.906355e-03
-2.919583e-03 7.000629e-04 -2.450712e-02
-3.023670e-03 -8.188425e-04 -2.467299e-02
1.217317e-02 -1.573183e-02 -1.075271e-02
-3.209368e-03 1.387328e-03 -2.432992e-02
-1.885095e-02 -9.129215e-03 -6.218088e-03
-5.604774e-03 1.999000e-02 -7.140987e-03
-1.242454e-03 7.863481e-04 -2.476034e-02
1.485881e-03 2.135093e-05 -2.458462e-02
4.974101e-05 3.071975e-04 1.733904e-02
-9.034408e-03 -1.894533e-02 -4.128520e-03
3.352855e-03 -1.144618e-02 1.388600e-02
-6.476096e-03 7.141286e-03 -2.247056e-02
6.525496e-03 6.976172e-03 -2.243512e-02
-1.163795e-02 3.184265e-03 1.379688e-02
-1.059009e-02 -4.244975e-03 1.415410e-02
-1.886354e-02 8.920079e-03 -6.048016e-03
-5.713456e-05 1.040685e-03 -2.458980e-02
7.408476e-03 2.692793e-03 -2.316832e-02
-7.285066e-03 2.622879e-03 -2.302941e-02
-8.758298e-05 -4.841593e-04 1.718576e-02
7.218618e-03 1.988172e-02 -4.059094e-03
-1.063016e-02 4.168514e-03 1.407880e-02
-3.087819e-04 -2.087344e-02 -6.185587e-06
-3.850520e-03 2.029788e-02 -4.541738e-03
-4.341364e-03 -1.362807e-02 -1.930922e-02
-5.848598e-03 4.149726e-03 -2.328863e-02
5.822415e-03 4.306893e-03 -2.356680e-02
-9.328995e-05 -1.337385e-03 -2.501286e-02
8.596689e-03 7.043422e-03 1.432734e-02
-8.701597e-03 7.777846e-03 1.373474e-02
-1.368671e-05 2.852852e-05 1.738489e-02
-9.625117e-05 8.123122e-05 1.759133e-02
3.240274e-03 -4.487057e-03 -2.419458e-02
-7.166897e-03 1.981027e-02 -4.117152e-03
3.127032e-03 -3.322975e-03 -2.428163e-02
-3.064051e-03 -3.282213e-03 -2.421977e-02
-1.067013e-02 5.982771e-03 1.385320e-02
-1.299243e-02 -1.554936e-02 9.471799e-04
-1.814571e-02 -1.083082e-02 -5.743689e-03
1.813969e-02 -1.085180e-02 -5.739479e-03
-1.063286e-02 -5.806406e-03 1.358935e-02
1.093265e-02 -5.799464e-03 1.341707e-02
1.112719e-04 -8.171935e-07 1.782764e-02
1.767594e-03 1.160014e-02 1.402309e-02
8.953955e-03 -2.346252e-03 -2.281034e-02
-8.814456e-03 -2.361358e-03 -2.280582e-02
-1.053837e-02 -6.057368e-03 1.336210e-02
1.052531e-02 -6.086880e-03 1.336705e-02
1.280336e-02 6.604082e-04 1.310292e-02
3.150810e-03 -7.494737e-03 -2.308951e-02
-1.006134e-03 -1.202730e-02 1.360117e-02
4.135290e-03 -2.629685e-03 -2.399641e-02
-6.885092e-03 9.646736e-03 1.371583e-02
-1.747883e-04 -1.984129e-04 1.781489e-02
-7.497627e-03 9.110160e-03 1.381317e-02
6.861998e-03 9.361300e-03 1.415955e-02
7.032817e-03 9.657948e-03 1.344356e-02
-1.728289e-04 8.698341e-04 -2.484228e-02
9.768856e-03 -5.661291e-03 1.409082e-02
9.138802e-03 6.110774e-03 1.436915e-02
-3.951696e-03 1.215611e-02 1.319330e-02
9.818810e-04 2.129473e-02 -3.923885e-03
2.083716e-02 -2.126921e-03 -1.913474e-03
-4.190604e-03 -1.243971e-02 1.270309e-02
2.718548e-04 -3.483639e-05 1.790675e-02
-8.558587e-04 -2.747387e-03 -2.460730e-02
2.050765e-02 5.000735e-04 5.048790e-05
-2.052979e-02 3.715838e-04 -5.551947e-04
-2.008248e-02 -5.183654e-03 -5.393084e-03
1.419798e-03 -7.323459e-04 -2.456033e-02
-1.404035e-03 -7.020674e-04 -2.460094e-02
1.053760e-02 2.998455e-03 1.445275e-02
-1.050222e-02 3.065299e-03 1.423619e-02
-1.346283e-02 1.618859e-02 -1.928438e-03
1.338679e-02 1.616814e-02 -1.983031e-03
-5.723879e-05 2.143164e-04 1.759196e-02
-3.141971e-03 1.032900e-02 1.463813e-02
9.462086e-03 -1.146339e-02 -1.870904e-02
1.249569e-02 1.716169e-02 -6.202636e-03
-1.243563e-02 1.694720e-02 -6.026879e-03
8.829621e-03 5.812208e-03 1.452059e-02
9.808522e-04 -1.367813e-04 -2.453279e-02
-1.062142e-02 -3.095699e-03 1.444011e-02
1.046858e-02 -3.130146e-03 1.443330e-02
1.006237e-03 2.280236e-04 -2.458460e-02
-6.759620e-03 -1.989218e-02 -4.685047e-03
-7.242731e-04 7.666085e-05 1.742707e-02
6.899969e-03 1.362783e-02 -1.805031e-02
-9.422940e-03 -7.071145e-03 1.381384e-02
8.920360e-03 -7.471376e-03 1.395832e-02
-2.012066e-03 -4.483518e-03 -2.426444e-02
9.151340e-03 -6.988421e-03 1.405465e-02
-2.412178e-03 1.206892e-02 1.330450e-02
-6.702919e-03 1.997778e-02 -4.232040e-03
9.686162e-03 -1.847130e-02 -5.339068e-03
3.505732e-03 8.624662e-03 1.526016e-02
1.427155e-02 1.445731e-02 -9.847231e-03
-3.239070e-05 1.832759e-05 1.747987e-02
-1.426651e-02 1.449955e-02 -9.890832e-03
9.956543e-03 -1.826650e-02 -5.321877e-03
1.133384e-03 1.044519e-03 -2.461148e-02
-1.322727e-03 9.016914e-04 -2.448332e-02
2.063707e-02 -1.680143e-03 -2.521057e-04
-2.066508e-02 -1.659409e-03 1.066656e-06
1.236339e-02 2.784025e-05 -2.134561e-02
-4.869920e-03 1.355094e-02 -1.909841e-02
-1.366971e-02 -1.514665e-02 1.752408e-03
-2.039114e-02 -5.303995e-03 -3.350978e-03
-2.478777e-04 -8.619108e-05 1.745429e-02
2.038804e-02 -5.399595e-03 -3.322086e-03
6.628967e-03 5.838805e-03 -2.293434e-02
-6.420678e-03 4.938485e-03 -2.304748e-02
-2.509908e-03 -3.766306e-03 -2.439806e-02
-3.504515e-03 -1.165078e-02 1.363268e-02
-2.746822e-04 -1.331535e-03 -2.476246e-02
6.828913e-04 1.139546e-02 -2.172945e-02
-4.748894e-03 -2.027919e-02 -6.729005e-03
-2.057364e-02 2.748001e-03 -3.387057e-03
2.056350e-02 3.386345e-03 -3.999319e-03
-3.263158e-04 -1.131738e-04 1.757563e-02
-1.664661e-02 -2.340956e-04 -1.696744e-02
1.674157e-02 -5.204560e-05 -1.655971e-02
-4.604966e-03 -9.908583e-03 1.450535e-02
-8.020270e-03 -1.176716e-02 -1.942208e-02
1.089129e-02 -5.365775e-04 1.427439e-02
2.061681e-03 -3.996409e-03 -2.457943e-02
8.003752e-03 9.038814e-03 1.380813e-02
-7.954250e-03 9.012787e-03 1.382715e-02
1.576487e-03 -1.154042e-02 1.400593e-02
-1.251451e-02 1.800236e-03 -2.062498e-02
1.204814e-04 -1.619598e-04 1.750846e-02
1.198607e-02 1.240286e-03 -2.103200e-02
1.596840e-03 -1.497708e-02 -1.827888e-02
-2.112935e-02 1.802568e-03 -2.527375e-03
-4.778526e-03 1.960011e-02 1.926214e-03
-8.778763e-03 2.512736e-03 -2.268428e-02
8.680290e-03 2.468155e-03 -2.259955e-02
-7.657199e-03 -1.928763e-02 -7.862835e-03
-1.045100e-02 -2.875133e-03 1.458486e-02
2.038325e-02 -1.531726e-04 -9.060864e-03
-2.518163e-03 -1.100090e-02 1.423332e-02
3.824980e-05 6.778027e-05 1.742667e-02
8.975840e-05 -1.513784e-04 1.740698e-02
-7.051771e-04 1.143043e-02 1.414254e-02
-1.389982e-02 1.591631e-02 -9.971163e-04
1.388515e-02 1.587481e-02 -1.094654e-03
1.211142e-02 -1.725017e-03 1.364689e-02
8.617535e-03 7.471705e-03 1.412192e-02
-1.443759e-04 1.915797e-02 -1.236331e-02
-2.200668e-03 -4.272801e-03 -2.399135e-02
6.231039e-03 -8.905196e-03 1.423286e-02
-6.603674e-03 -8.190649e-03 1.439904e-02
-1.094592e-02 -5.791341e-04 1.439596e-02
-2.632446e-05 2.803063e-05 1.747485e-02
-1.047830e-02 2.421813e-04 1.466887e-02
-2.786126e-03 1.214069e-02 -2.049775e-02
-1.098790e-02 -2.849797e-03 -2.113613e-02
-1.157844e-02 2.493194e-03 -2.099561e-02
7.931553e-03 6.195976e-03 -2.188742e-02
-7.931892e-03 1.236426e-02 -1.893589e-02
2.738025e-03 -7.829979e-03 -2.279635e-02
-2.095789e-02 -2.282026e-03 -4.156259e-03
-1.357704e-03 -2.098957e-02 -3.496345e-03
-1.955754e-03 9.963449e-03 1.469923e-02
2.330836e-05 5.164514e-05 1.758798e-02
-1.084859e-02 -9.801007e-03 -1.889974e-02
1.142380e-02 -9.349031e-03 -1.836271e-02
-6.345382e-03 9.854269e-03 1.402114e-02
6.095282e-03 9.764858e-03 1.390537e-02
1.964262e-02 6.693039e-03 -4.770880e-04
1.992804e-02 -6.100930e-03 -8.579131e-04
-1.084814e-03 -2.113350e-02 -2.735642e-03
1.033401e-02 5.484032e-03 1.412398e-02
1.053848e-02 -5.863309e-03 1.364989e-02
1.973337e-03 2.007504e-02 1.411354e-03
-4.036616e-04 6.962668e-06 1.742074e-02
3.197338e-04 6.750462e-03 -2.362136e-02
-1.544428e-02 -5.491215e-03 -1.690128e-02
-1.518963e-02 5.516799e-03 -1.709259e-02
3.443452e-03 -1.842896e-02 -1.327885e-02
8.586077e-03 -7.313500e-03 1.419783e-02
-1.707699e-02 8.828640e-03 -1.209936e-02
1.714364e-02 8.887918e-03 -1.189388e-02
-2.640241e-03 -1.114152e-02 1.403305e-02
-7.579897e-03 -1.965376e-02 -2.753198e-03
-2.124564e-03 2.100196e-02 -4.313246e-03
1.802473e-04 -3.735323e-04 1.730516e-02
1.584546e-02 1.330313e-02 -5.771158e-03
-6.322644e-03 8.865813e-03 1.447963e-02
-6.402652e-03 8.371772e-03 1.458345e-02
-1.076897e-02 -1.785403e-02 -6.697134e-03
-5.444757e-03 9.076090e-03 1.465596e-02
5.916792e-03 8.826412e-03 1.444654e-02
-3.318534e-03 -1.082087e-02 1.408857e-02
1.407408e-04 -6.828967e-03 -2.374741e-02
5.661606e-03 -7.754322e-03 1.504045e-02
-7.896770e-03 -1.291904e-02 -1.856712e-02
5.812053e-05 3.373661e-05 1.749802e-02
-3.581376e-04 2.093262e-02 -1.045286e-03
5.671168e-03 -1.041360e-02 1.367995e-02
1.641713e-02 3.488606e-03 -1.668361e-02
8.601318e-03 -7.978269e-03 1.404449e-02
1.157187e-03 1.883278e-02 -1.313223e-02
-7.864525e-03 6.572055e-03 1.483436e-02
-8.086388e-03 -3.111763e-04 -2.330682e-02
1.630700e-02 -3.814631e-03 -1.681177e-02
-1.372968e-02 1.507691e-02 -8.826581e-03
-4.089026e-03 1.026586e-02 1.430482e-02
-9.848230e-05 1.487723e-04 1.733434e-02
1.717200e-02 1.221886e-02 -4.372001e-03
-1.514815e-02 -1.450237e-02 -5.235883e-03
1.509173e-02 -1.472126e-02 -5.240009e-03
2.422477e-04 -1.299569e-02 -2.011316e-02
-6.221813e-03 -8.966545e-03 1.439559e-02
-4.663234e-03 -9.833963e-03 1.453425e-02
-3.646869e-03 1.007524e-02 -2.176070e-02
-3.176478e-03 2.065371e-02 -1.248883e-03
2.878234e-03 9.478385e-03 -2.159968e-02
-4.326035e-03 9.016482e-04 -2.444094e-02
1.326221e-04 2.747032e-07 1.751680e-02
4.315189e-03 8.755288e-04 -2.441065e-02
4.284618e-03 -3.032026e-03 -2.398020e-02
-9.102864e-04 2.123878e-02 -4.011939e-03
-6.532186e-03 -7.487518e-03 1.509197e-02
-1.765731e-04 -3.641660e-03 -2.446241e-02
2.029774e-02 5.252445e-03 -1.196190e-03
2.045953e-02 -5.010095e-03 -1.516432e-03
-1.685943e-02 -1.234127e-02 -1.196552e-03
6.975912e-03 -7.964699e-03 1.452532e-02
-6.944885e-03 -8.027494e-03 1.458593e-02
4.280932e-04 1.567212e-04 1.763926e-02
7.050859e-03 -7.776837e-03 1.454774e-02
-7.080768e-03 -7.776255e-03 1.458796e-02
6.284687e-03 8.412884e-03 -2.212920e-02
-6.081006e-03 8.625727e-03 -2.215588e-02
-5.311003e-03 9.032071e-03 1.465202e-02
-7.339048e-03 -7.341897e-03 1.453695e-02
7.510860e-03 -7.339943e-03 1.451739e-02
-4.963729e-03 9.084966e-03 1.465252e-02
-4.145715e-03 9.358907e-03 1.473943e-02
-4.649455e-03 9.314266e-03 1.467452e-02
1.444786e-04 4.005251e-04 1.741694e-02
-5.750128e-03 8.857866e-03 1.472520e-02
1.224455e-02 7.042546e-03 -1.907830e-02
-1.030588e-03 -5.637183e-03 -2.401262e-02
1.989512e-02 3.387147e-03 1.795630e-03
-2.003730e-02 3.303964e-03 1.665152e-03
3.929097e-04 -6.115005e-03 -2.383267e-02
-3.464356e-03 -2.262216e-03 -2.418367e-02
-1.992816e-02 5.525033e-03 6.973797e-04
1.992844e-02 5.378959e-03 8.288390e-04
1.085655e-02 -1.135554e-03 -2.174855e-02
-1.051178e-04 1.683669e-05 1.732604e-02
1.952556e-04 2.647944e-04 1.746608e-02
-7.023068e-03 1.602865e-02 -1.530465e-02
-1.722842e-02 1.212940e-02 -5.756561e-03
-1.624434e-03 -1.964703e-02 3.769558e-03
-1.137268e-02 1.701243e-02 1.262068e-03
1.098163e-02 1.725512e-02 1.506517e-03
-9.600237e-03 -5.456913e-03 1.439416e-02
-1.975021e-02 -1.586757e-03 -1.119207e-02
1.974342e-02 -1.759010e-03 -1.140479e-02
1.850798e-03 -1.034307e-02 1.483917e-02
2.147604e-03 9.962205e-03 1.476165e-02
3.583312e-04 2.405085e-04 1.733914e-02
2.406952e-03 -9.598915e-03 1.475896e-02
9.936486e-03 -7.070043e-03 -2.103871e-02
-9.823243e-03 -7.216358e-03 -2.087026e-02
-9.584729e-03 5.371931e-03 1.444949e-02
1.814019e-02 -5.076348e-03 5.478670e-03
-1.814770e-02 -5.694492e-03 5.219025e-03
3.509678e-03 2.072064e-02 -5.865466e-03
5.956980e-03 7.419992e-03 1.490172e-02
1.243659e-02 1.706118e-02 -5.996509e-03
1.934500e-02 8.485264e-03 -8.674411e-04
-1.832748e-04 4.710445e-04 1.750770e-02
1.926062e-02 -8.502811e-03 -6.599739e-04
-5.632020e-03 -9.142644e-03 1.459778e-02
-1.013721e-02 2.015113e-03 1.464669e-02
3.211237e-03 -2.042081e-02 1.843692e-03
-1.111599e-02 1.807997e-02 -3.781485e-03
1.120555e-02 1.779340e-02 -5.024054e-03
-2.058600e-05 2.107063e-02 -1.277131e-03
-1.741303e-02 -1.189876e-02 -1.909171e-03
-1.465128e-02 -1.488933e-02 -5.891503e-03
1.095996e-02 1.795173e-03 1.419075e-02
-1.348955e-04 -2.098354e-04 1.745417e-02
-1.105718e-02 1.809270e-03 1.420443e-02
1.086086e-02 -1.801136e-02 -6.017113e-03
2.819830e-03 1.985744e-02 2.052541e-03
1.072398e-02 1.808765e-02 -4.850005e-03
1.670057e-02 1.311576e-02 -3.098823e-03
-1.704651e-02 1.307315e-02 -3.351515e-03
6.892758e-03 -9.060380e-03 1.417652e-02
-6.542394e-03 1.984793e-02 -3.783168e-04
1.218742e-02 -7.154253e-03 -1.917892e-02
3.611396e-03 -9.144664e-03 1.483039e-02
-1.003848e-04 1.841267e-04 1.710180e-02
1.061945e-03 1.022688e-02 1.469417e-02