# vtk DataFile Version 2.0
Electric current density generated by TTH
ASCII
DATASET UNSTRUCTURED_GRID
POINTS 1605 double
1.145479e-05 -2.805613e-21 1.771971e-06
-2.220142e-06 1.195613e-05 -6.244018e-07
-2.220142e-06 -1.195613e-05 -6.244018e-07
-7.208182e-06 2.138120e-06 4.545773e-07
-1.112397e-05 -3.539302e-06 -1.547362e-06
5.157106e-06 5.876577e-06 1.233236e-06
5.157106e-06 -5.876577e-06 1.233236e-06
1.210309e-05 -7.492268e-07 7.391478e-07
1.209619e-05 8.842507e-07 7.323329e-07
8.876649e-06 8.252369e-06 -7.578235e-07
8.876649e-06 -8.252369e-06 -7.578235e-07
1.059612e-05 -2.595302e-21 2.267720e-06
-7.924224e-06 -8.991474e-07 -1.461223e-06
-6.201278e-06 -7.751560e-06 -2.383465e-06
-6.201278e-06 7.751560e-06 -2.383465e-06
4.824341e-06 5.784672e-06 5.204914e-07
4.824341e-06 -5.784672e-06 5.204914e-07
-8.697033e-06 -5.465864e-06 2.348434e-06
1.077282e-05 5.568736e-06 7.368424e-07
1.077282e-05 -5.568736e-06 7.368424e-07
7.586705e-06 6.523105e-06 -2.379939e-06
7.586705e-06 -6.523105e-06 -2.379939e-06
9.610057e-06 -2.353785e-21 2.371360e-06
-8.480821e-06 1.017404e-06 -1.987265e-06
7.273213e-06 -9.682942e-06 7.864605e-07
7.273213e-06 9.682942e-06 7.864605e-07
5.617797e-06 8.883127e-06 2.293789e-06
5.617797e-06 -8.883127e-06 2.293789e-06
-7.838329e-06 -2.637893e-06 -1.777797e-06
4.435623e-06 -8.915580e-06 2.382377e-06
4.435623e-06 8.915580e-06 2.382377e-06
6.453539e-06 -4.824095e-06 -1.561497e-06
6.453539e-06 4.824095e-06 -1.561497e-06
8.667085e-06 -2.122824e-21 2.064970e-06
-9.011205e-06 2.321643e-06 -2.319213e-06
-8.659335e-06 1.511603e-06 2.131355e-06
-8.172594e-06 -5.607667e-06 -2.383851e-06
4.536298e-06 1.077368e-05 -1.528049e-06
4.536298e-06 -1.077368e-05 -1.528049e-06
1.069902e-05 2.714529e-06 -2.072706e-06
1.069902e-05 -2.714529e-06 -2.072706e-06
-6.853615e-06 -3.347754e-06 -8.395050e-07
5.544396e-06 1.079517e-05 -7.094510e-07
5.544396e-06 -1.079517e-05 -7.094510e-07
7.930258e-06 -1.942353e-21 1.401528e-06
7.333232e-07 -1.008568e-05 -2.370961e-06
7.333232e-07 1.008568e-05 -2.370961e-06
2.130272e-06 -1.148504e-05 1.538545e-06
2.130272e-06 1.148504e-05 1.538545e-06
6.673185e-06 3.948284e-06 1.118956e-06
6.673185e-06 -3.948284e-06 1.118956e-06
-5.719216e-07 8.617254e-06 2.046835e-06
-5.754053e-07 -8.621487e-06 2.049490e-06
-7.264958e-06 -1.990896e-06 5.224423e-07
-8.121240e-06 4.273704e-07 1.644251e-06
7.526980e-06 -1.843578e-21 4.957492e-07
3.032642e-06 -1.130314e-05 1.512145e-06
3.032642e-06 1.130314e-05 1.512145e-06
-4.058077e-06 -7.123839e-06 1.711012e-06
7.255343e-06 3.866743e-06 1.732865e-06
7.255343e-06 -3.866743e-06 1.732865e-06
-6.580352e-06 -1.019300e-05 -7.196299e-07
-6.580352e-06 1.019300e-05 -7.196299e-07
-2.193910e-06 -8.496528e-06 -2.123727e-06
-2.193910e-06 8.496528e-06 -2.123727e-06
2.585021e-06 8.360773e-06 -2.111341e-06
7.526980e-06 -1.843578e-21 -4.957492e-07
2.585021e-06 -8.360773e-06 -2.111341e-06
-4.093124e-06 6.859764e-06 -1.477891e-06
-4.093124e-06 -6.859764e-06 -1.477891e-06
-2.482396e-07 -1.216695e-05 5.903557e-07
-2.482396e-07 1.216695e-05 5.903557e-07
-3.406442e-06 9.619359e-06 2.359272e-06
-6.407348e-06 -7.962051e-06 2.356982e-06
-9.844873e-06 1.222619e-06 -2.383636e-06
-9.883990e-06 -3.698910e-06 -2.281146e-06
-8.783200e-06 -1.491397e-06 2.186837e-06
7.930258e-06 -1.942353e-21 -1.401528e-06
4.096651e-06 8.421973e-06 -2.332726e-06
4.096651e-06 -8.421973e-06 -2.332726e-06
9.821965e-06 -5.963673e-06 1.738954e-06
9.821965e-06 5.963673e-06 1.738954e-06
9.358623e-06 7.780793e-06 5.857852e-07
9.358623e-06 -7.780793e-06 5.857852e-07
1.169254e-05 -8.594627e-07 -1.485948e-06
1.169254e-05 8.594627e-07 -1.485948e-06
-1.177647e-05 -3.020080e-06 -6.351902e-07
-2.588833e-06 -9.404125e-06 2.382094e-06
8.667085e-06 -2.122824e-21 -2.064970e-06
-7.787814e-06 2.665360e-06 -1.742147e-06
5.558597e-06 7.328961e-06 -2.291018e-06
5.558597e-06 -7.328961e-06 -2.291018e-06
1.049093e-05 3.309069e-06 2.093625e-06
1.049093e-05 -3.309069e-06 2.093625e-06
-8.363372e-06 8.830434e-06 -6.176187e-07
-8.325189e-06 -8.875101e-06 -5.935716e-07
-2.733064e-06 -7.503350e-06 -1.474704e-06
-2.733064e-06 7.503350e-06 -1.474704e-06
-8.358335e-06 3.756300e-06 2.280674e-06
9.610057e-06 -2.353785e-21 -2.371360e-06
-4.784119e-06 8.305543e-06 -2.368578e-06
-4.784119e-06 -8.305543e-06 -2.368578e-06
-1.143416e-05 -9.892682e-07 -1.751828e-06
6.750957e-06 3.303042e-06 4.392594e-07
6.750957e-06 -3.303042e-06 4.392594e-07
-9.398602e-06 -2.976427e-06 2.384422e-06
-9.093738e-06 8.061345e-06 -6.534860e-07
-3.786449e-06 -7.759574e-06 -2.045589e-06
-3.786449e-06 7.759574e-06 -2.045589e-06
1.205638e-05 -1.564237e-06 -6.356528e-07
1.059612e-05 -2.595302e-21 -2.267720e-06
1.205638e-05 1.564237e-06 -6.356528e-07
6.747876e-06 -9.285892e-06 -1.750100e-06
6.747876e-06 9.285892e-06 -1.750100e-06
8.869926e-06 7.153258e-07 2.182377e-06
8.869926e-06 -7.153258e-07 2.182377e-06
-7.233589e-06 5.548541e-06 -2.265782e-06
-7.320985e-06 -5.332919e-06 -2.245543e-06
-1.217281e-05 0.000000e+00 5.771546e-07
-4.861826e-06 -6.196708e-06 1.324124e-06
7.631233e-07 -9.099345e-06 2.270567e-06
1.145479e-05 -2.805613e-21 -1.771971e-06
7.629059e-07 9.099452e-06 2.270595e-06
-7.503519e-06 -4.262424e-07 4.388979e-07
-6.457104e-06 6.353076e-06 2.245915e-06
-9.090496e-06 -3.236020e-06 -2.375157e-06
-8.033329e-06 -1.834695e-06 1.750404e-06
-4.886439e-06 8.147589e-06 2.357281e-06
-7.177304e-06 -4.832181e-06 2.056409e-06
1.050234e-05 -6.159126e-06 5.677608e-07
1.050234e-05 6.159126e-06 5.677608e-07
-5.945908e-06 -4.631745e-06 -5.408952e-07
1.203757e-05 -2.948355e-21 -9.698318e-07
-4.350766e-06 1.133120e-05 -7.028978e-07
-4.350766e-06 -1.133120e-05 -7.028978e-07
-9.037570e-06 -8.159747e-06 -5.635249e-07
-1.019826e-05 -6.629572e-06 6.125065e-07
9.037216e-06 -7.157309e-06 1.703051e-06
9.037216e-06 7.157309e-06 1.703051e-06
-2.910398e-06 -8.066278e-06 2.009165e-06
7.976753e-06 9.204441e-06 -5.479037e-07
7.976753e-06 -9.204441e-06 -5.479037e-07
-5.937127e-06 -5.538764e-06 1.630587e-06
-1.096334e-06 7.394074e-06 1.295232e-08
7.795833e-06 1.459257e-06 -1.402867e-06
7.795820e-06 -1.457697e-06 -1.402455e-06
-1.147948e-05 4.658910e-07 1.740624e-06
-9.837711e-06 -7.097015e-06 -7.261276e-07
-5.593005e-06 8.549297e-06 2.357549e-06
7.675605e-06 7.277274e-06 2.273834e-06
7.675605e-06 -7.277274e-06 2.273834e-06
8.024058e-06 8.377345e-06 -1.629296e-06
8.024058e-06 -8.377345e-06 -1.629296e-06
-7.262326e-06 9.712138e-06 7.365121e-07
-1.096334e-06 -7.394074e-06 1.295232e-08
-7.729854e-06 2.737780e-06 1.712728e-06
6.112869e-06 -6.172451e-06 2.076417e-06
6.112869e-06 6.172451e-06 2.076417e-06
-3.297057e-06 6.947158e-06 -9.893998e-07
-3.297057e-06 -6.947158e-06 -9.893998e-07
-9.162037e-06 -2.539290e-06 -2.358315e-06
-5.082903e-06 1.039843e-05 1.656623e-06
-6.264160e-06 -9.740970e-06 1.649308e-06
3.889068e-06 7.033739e-06 1.538125e-06
3.889068e-06 -7.033739e-06 1.538125e-06
-7.482251e-06 3.683291e-08 -1.885541e-07
7.490635e-06 3.183405e-06 1.651098e-06
7.490635e-06 -3.183405e-06 1.651098e-06
1.108440e-05 -1.943074e-06 1.934399e-06
1.108440e-05 1.943074e-06 1.934399e-06
-8.132683e-06 8.184373e-06 -1.693388e-06
-8.104311e-06 -8.209605e-06 -1.695405e-06
1.103834e-05 -5.392380e-07 2.064970e-06
1.103834e-05 5.392380e-07 2.064970e-06
-9.533828e-06 7.430717e-06 8.486763e-07
-1.068378e-05 -2.360006e-06 2.124775e-06
5.648660e-06 -7.019370e-06 2.228015e-06
-1.122336e-05 3.297739e-06 -1.518327e-06
-9.129534e-06 -4.851309e-06 -2.335782e-06
-1.163122e-05 3.443255e-06 -7.270026e-07
9.192998e-06 -1.835402e-06 2.334603e-06
9.207218e-06 1.817765e-06 2.336762e-06
5.659275e-06 8.616491e-06 -2.341670e-06
5.659275e-06 -8.616491e-06 -2.341670e-06
-5.920746e-06 4.663224e-06 -5.391832e-07
2.781480e-07 -7.469698e-06 -1.806239e-09
2.781176e-07 7.469699e-06 -1.800391e-09
5.648660e-06 7.019370e-06 2.228015e-06
-4.513284e-06 -8.307891e-06 2.349840e-06
2.584933e-06 -7.182161e-06 8.543070e-07
2.584933e-06 7.182161e-06 8.543070e-07
-9.388300e-06 6.186681e-06 -1.941542e-06
-6.615111e-06 -6.021392e-06 2.202254e-06
-8.177778e-06 -4.071542e-07 1.700566e-06
-8.718436e-06 -6.686643e-07 2.107528e-06
1.149296e-06 1.130211e-05 1.852609e-06
1.149296e-06 -1.130211e-05 1.852609e-06
-2.473211e-06 -9.861612e-06 -2.364483e-06
7.085122e-06 -7.094522e-06 -2.378551e-06
-2.473211e-06 9.861612e-06 -2.364483e-06
6.273107e-06 -7.358769e-06 -2.376873e-06
6.273107e-06 7.358769e-06 -2.376873e-06
2.133876e-06 9.838157e-06 -2.375366e-06
2.133876e-06 -9.838157e-06 -2.375366e-06
7.413651e-06 5.199801e-06 2.244818e-06
7.413651e-06 -5.199801e-06 2.244818e-06
-1.151316e-05 -2.354628e-07 1.715294e-06
-4.944987e-06 1.111418e-05 6.090612e-07
-6.882423e-06 -1.003044e-05 6.091277e-07
7.085122e-06 7.094522e-06 -2.378551e-06
-5.041598e-06 7.360215e-06 2.192196e-06
-1.367162e-06 -7.926021e-06 -1.544921e-06
-1.367162e-06 7.926021e-06 -1.544921e-06
1.035269e-05 5.326999e-06 1.582575e-06
1.035269e-05 -5.326999e-06 1.582575e-06
1.137136e-05 4.373930e-06 -5.322408e-07
1.137136e-05 -4.373930e-06 -5.322408e-07
-2.814868e-06 -6.933396e-06 -1.968226e-07
-2.814868e-06 6.933396e-06 -1.968226e-07
1.131770e-05 1.527129e-06 -1.802456e-06
1.222392e-06 -8.501921e-06 2.018093e-06
1.131770e-05 -1.527129e-06 -1.802456e-06
6.930375e-06 9.967676e-06 -6.949165e-07
6.930375e-06 -9.967676e-06 -6.949165e-07
-6.527224e-06 -4.511209e-06 1.407293e-06
9.638769e-06 4.769407e-06 -2.210111e-06
9.638769e-06 -4.769407e-06 -2.210111e-06
9.976781e-07 7.422966e-06 -2.655872e-07
9.976781e-07 -7.422966e-06 -2.655872e-07
7.101486e-06 -8.417585e-06 -2.086712e-06
7.101486e-06 8.417585e-06 -2.086712e-06
1.222392e-06 8.501921e-06 2.018093e-06
-1.001074e-05 2.349311e-06 2.346526e-06
-3.526681e-06 1.043142e-05 2.087584e-06
-7.176374e-06 2.639893e-06 -8.883259e-07
8.285069e-06 -6.278204e-06 -2.323441e-06
8.285069e-06 6.278204e-06 -2.323441e-06
-7.042021e-06 -8.463991e-06 2.088157e-06
-5.948587e-06 -1.063469e-05 -5.244490e-07
-5.948587e-06 1.063469e-05 -5.244490e-07
-4.031919e-06 7.143689e-06 1.715238e-06
6.711575e-06 9.555186e-06 1.543464e-06
9.848772e-06 -5.016645e-06 2.064206e-06
6.711575e-06 -9.555186e-06 1.543464e-06
[...]
POINT_DATA 1605
VECTORS 10.000GHz_fone_imag double
-1.274863e+09 -7.109921e+10 1.520071e+09
3.253963e+10 5.854286e+09 9.788708e+08
-3.737283e+10 5.825380e+09 2.638400e+07
4.491314e+10 1.598713e+11 3.713936e+09
-1.511789e+10 5.314794e+10 -2.465574e+09
9.935817e+10 -8.689895e+10 -1.767217e+08
-9.843325e+10 -8.638572e+10 -1.113227e+08
-3.157333e+09 -4.792774e+10 1.278353e+09
2.997185e+09 -3.937250e+10 -7.490300e+08
2.505425e+10 -2.594929e+10 2.291337e+08
-2.343560e+10 -2.617208e+10 -3.780656e+08
2.847955e+08 -5.375874e+10 4.836225e+08
-9.962820e+09 1.467149e+11 -8.756310e+09
-7.611792e+10 5.698230e+10 9.049767e+08
6.991427e+10 5.678477e+10 5.388277e+07
1.687719e+11 -1.456489e+11 -4.925301e+09
-1.640325e+11 -1.421196e+11 7.527671e+09
-3.212587e+10 4.878997e+10 8.631721e+08
1.684296e+10 -3.690750e+10 3.175712e+09
-1.428362e+10 -3.164325e+10 4.223402e+08
4.687232e+10 -5.711424e+10 -5.308525e+09
-6.213394e+10 -5.845894e+10 3.613056e+09
7.498735e+09 -1.044516e+11 -3.336763e+08
1.483682e+10 1.143087e+11 9.460444e+08
-3.673541e+10 -2.801374e+10 -1.078124e+08
3.527726e+10 -2.680787e+10 -3.244727e+08
5.371045e+10 -3.405129e+10 2.992189e+09
-5.350183e+10 -3.396289e+10 -2.952283e+09
-2.869719e+10 1.182810e+11 1.169186e+09
-6.979595e+10 -4.141081e+10 -4.795062e+09
7.016451e+10 -4.159119e+10 4.761073e+09
-1.077128e+11 -1.242927e+11 3.107143e+09
1.005641e+11 -1.387904e+11 -4.795998e+08
-9.099368e+09 -1.313691e+11 -7.525896e+09
1.114399e+10 9.084850e+10 -5.073060e+09
1.280219e+10 1.168840e+11 4.775161e+09
-5.004008e+10 7.141812e+10 -5.242523e+09
5.342963e+10 -2.124773e+10 8.251568e+08
-5.321954e+10 -2.118492e+10 -7.963741e+08
9.097843e+09 -5.302761e+10 -2.246259e+09
-1.412715e+10 -4.786025e+10 4.450939e+08
-7.320675e+10 1.677581e+11 1.221323e+10
3.498346e+10 -1.810502e+10 -8.217939e+08
-3.499576e+10 -1.816247e+10 9.735728e+08
-5.329957e+09 -1.310954e+11 -2.734604e+09
-6.685256e+10 -1.760429e+09 -2.688709e+09
7.886486e+10 -1.080056e+10 -8.937437e+08
-5.620678e+10 -6.802576e+09 3.979307e+09
5.500272e+10 -6.755967e+09 -3.678646e+09
8.189275e+10 -1.396357e+11 -8.296762e+09
-6.051828e+10 -1.062076e+11 1.411171e+09
1.359533e+11 2.402126e+09 -4.767248e+09
-1.462195e+11 1.955570e+10 -4.763249e+09
-5.653636e+10 1.889080e+11 -2.109821e+09
8.130682e+09 1.333247e+11 5.193299e+08
-1.988615e+09 -1.423403e+11 -3.118037e+09
-4.865993e+10 -1.673526e+10 -2.874314e+09
4.694081e+10 -1.643770e+10 2.740929e+09
-1.352311e+11 7.065524e+10 -1.723383e+09
6.764182e+10 -1.053003e+11 7.214111e+09
-4.596165e+10 -1.139623e+11 8.885509e+09
-3.560601e+10 2.473332e+10 -1.861700e+09
4.218809e+10 2.749671e+10 -1.013467e+09
-9.185999e+10 1.714197e+10 -2.823287e+09
1.176074e+11 3.421324e+10 -3.936196e+09
1.000369e+11 -3.344534e+10 -1.111232e+09
-2.865857e+09 -1.369715e+11 -1.035121e+10
-1.092772e+11 -2.952085e+10 1.941213e+09
1.027588e+11 5.800326e+10 -3.969605e+09
-1.150474e+11 6.733052e+10 2.659591e+09
-4.939739e+10 2.223139e+09 5.059665e+09
4.444472e+10 1.655596e+09 -5.118958e+09
6.520151e+10 1.978739e+10 2.579644e+09
-6.498433e+10 4.877668e+10 -1.347080e+08
3.744803e+09 6.410814e+10 2.532472e+09
-2.701360e+10 5.501932e+10 2.239379e+09
-2.433399e+10 1.275412e+11 -3.439723e+09
-1.247200e+10 -1.488485e+11 8.894456e+09
8.528439e+10 -4.443956e+10 -1.718558e+09
-8.311166e+10 -4.076075e+10 2.801461e+09
-2.409297e+10 -4.037063e+10 1.090501e+07
2.661656e+10 -4.405857e+10 9.951218e+08
2.210780e+10 -2.552835e+10 7.472762e+08
-2.039330e+10 -2.464816e+10 8.777656e+07
-2.816672e+09 -5.058729e+10 -2.140627e+09
5.630887e+09 -4.769334e+10 4.948099e+09
-9.548230e+09 3.575131e+10 -2.884984e+08
-9.274651e+10 2.897253e+10 8.050219e+08
-4.299322e+09 -9.608865e+10 -3.138588e+09
5.789759e+10 1.531806e+11 3.669633e+09
8.101210e+10 -5.164175e+10 -2.381361e+09
-8.113438e+10 -4.752331e+10 1.859732e+09
1.783345e+10 -6.225698e+10 8.387076e+08
-1.988441e+10 -6.757195e+10 -9.407159e+08
3.065570e+10 2.703852e+10 -2.680805e+09
-2.796611e+10 2.686918e+10 1.530862e+09
-1.429326e+11 5.168262e+10 1.071901e+10
1.227559e+11 4.587286e+10 -8.100618e+09
4.252280e+10 7.638698e+10 4.702020e+09
-9.910001e+09 -1.045186e+11 -3.310825e+08
8.329927e+10 4.157042e+10 -4.043535e+09
-7.008847e+10 3.465331e+10 5.393542e+09
-3.003115e+09 4.423465e+10 -1.215585e+09
7.145200e+10 -1.515427e+11 -1.576710e+10
-8.489111e+10 -1.523951e+11 -1.201279e+10
-1.506942e+10 8.391123e+10 1.112529e+09
2.297611e+10 2.772536e+10 5.808606e+08
-1.102934e+11 6.705711e+10 6.543029e+09
1.194803e+11 6.783143e+10 -6.456878e+09
-5.300512e+09 -3.808001e+10 1.114170e+08
6.126873e+09 -6.577871e+10 3.576777e+09
4.338606e+09 -3.448254e+10 -1.641455e+08
-4.458034e+10 -2.978623e+10 2.159940e+08
4.412457e+10 -2.974970e+10 1.236944e+09
9.825904e+09 -1.336110e+11 -9.516319e+08
-9.958297e+09 -9.952594e+10 3.329039e+09
6.559556e+10 8.633080e+10 5.912193e+08
-5.031772e+10 7.402625e+10 -3.060114e+09
9.841527e+08 4.975837e+10 3.946755e+09
-1.200162e+11 9.966513e+10 -8.770570e+09
-1.111990e+11 -6.673123e+09 -1.378419e+09
-1.079046e+08 -4.351299e+10 4.283120e+08
1.123920e+11 -6.412424e+09 1.307768e+09
-4.154337e+09 1.913018e+11 -9.941480e+09
8.083694e+10 8.557173e+10 1.766002e+09
-2.737806e+10 8.752310e+10 -5.708085e+09
-2.413072e+10 1.326796e+11 -5.295710e+09
8.988582e+10 6.085847e+10 5.967487e+08
-7.319014e+10 1.191626e+11 -4.484979e+09
-2.610908e+10 -4.282648e+10 6.424046e+08
1.911144e+10 -3.289298e+10 -1.719905e+09
-9.462987e+10 1.221728e+11 -1.055166e+09
-3.248189e+09 -4.412206e+10 -4.867951e+09
5.125144e+10 1.963709e+10 -1.184427e+09
-4.103103e+10 1.621689e+10 -6.798332e+08
-2.826681e+10 3.395449e+10 -3.724584e+09
-3.089416e+10 4.567825e+10 -1.416152e+09
-3.435133e+10 -4.725051e+10 -2.379164e+09
3.443485e+10 -3.862265e+10 8.904757e+08
-1.040209e+11 4.379677e+10 -6.983234e+09
3.636226e+10 -3.145334e+10 1.057851e+09
-3.567148e+10 -3.017734e+10 -3.331430e+09
-1.003634e+11 9.377166e+10 8.648109e+09
1.505979e+11 2.769308e+10 5.512171e+09
4.074265e+10 -1.670446e+11 -1.112216e+10
-1.554425e+10 -1.321612e+11 -3.942114e+09
2.806909e+09 5.077516e+10 -8.831124e+08
-2.572075e+10 3.408526e+10 -2.011325e+09
5.281710e+10 3.227473e+10 -7.236170e+08
3.713671e+10 -3.448851e+10 -8.023686e+08
-3.984987e+10 -4.617127e+10 -2.270020e+09
4.221168e+10 -4.157531e+10 -3.074598e+08
-4.122798e+10 -3.877983e+10 -1.082002e+09
3.985463e+10 2.707755e+10 2.072100e+09
-1.231320e+11 2.356590e+10 -7.805524e+08
6.282489e+10 1.644246e+11 -1.286739e+09
-1.045491e+11 -9.988044e+10 -3.308795e+09
1.026642e+11 -9.671919e+10 3.554341e+09
1.520147e+11 8.423540e+10 -6.790614e+09
-1.477359e+11 8.489496e+10 5.682386e+09
-3.456612e+10 1.110955e+11 -2.390192e+08
4.953990e+10 2.207154e+10 1.510774e+09
-4.647948e+10 2.925694e+10 -1.198160e+07
1.295812e+11 -6.159693e+10 1.201619e+09
-1.234114e+11 -5.986710e+10 -2.249840e+09
-3.191975e+07 1.836947e+11 -6.414451e+08
4.572896e+10 -1.060301e+11 2.677930e+09
-5.019392e+10 -1.050561e+11 -3.488739e+09
-1.484590e+10 -6.789110e+10 1.889231e+09
8.172607e+09 -4.337130e+10 9.822909e+08
3.909506e+10 4.059246e+10 2.912443e+09
-3.588471e+10 3.798817e+10 -3.796031e+09
-9.237511e+09 -7.429352e+10 2.608852e+09
6.934381e+09 -7.556334e+10 -1.212066e+09
2.485712e+10 3.147572e+10 -3.454732e+09
-1.861035e+10 6.258227e+10 -2.122728e+09
-7.501757e+10 -6.267778e+10 -1.847351e+09
1.676285e+10 5.209778e+10 -2.532094e+09
-4.500699e+10 6.877379e+10 1.204158e+09
1.236384e+10 4.223293e+10 2.072027e+09
-1.659050e+10 -9.983812e+10 -7.266949e+09
2.934420e+10 -9.561265e+10 1.978921e+09
7.831935e+10 -5.289980e+10 -4.490764e+08
-7.748206e+10 -5.320350e+10 5.154947e+08
9.577652e+10 1.220852e+11 -4.730266e+09
-1.859283e+11 -1.363398e+10 3.147907e+09
1.953166e+11 -1.460944e+10 2.872742e+09
7.554067e+10 -6.224058e+10 1.506352e+09
-8.228301e+10 3.044025e+10 3.847683e+09
-1.603577e+11 -5.674295e+10 -1.076569e+10
1.359744e+11 -5.483720e+10 1.234672e+09
3.266614e+10 5.440865e+10 3.222725e+09
-8.618303e+10 9.080819e+10 2.187171e+09
-1.076043e+10 1.248419e+11 7.697581e+09
2.442852e+09 1.296324e+11 -1.999565e+08
6.391366e+10 -6.412607e+09 -9.206570e+08
-6.878243e+10 -3.613456e+09 3.738611e+09
-7.728701e+10 2.661333e+10 -3.734491e+09
-5.418503e+10 -5.395608e+10 -2.236340e+09
6.687481e+10 1.621792e+10 -9.789423e+08
-8.160548e+10 -6.100776e+10 -8.625008e+08
7.281192e+10 -5.644668e+10 1.239255e+09
8.912764e+10 -1.479600e+10 5.175540e+08
-8.816925e+10 -1.499251e+10 -4.814728e+08
7.401997e+10 -1.051240e+11 -8.838634e+08
-7.252572e+10 -1.002259e+11 -1.189329e+08
-2.910487e+09 4.526163e+10 -5.330089e+08
3.604314e+10 1.797630e+10 -2.079719e+09
-3.625441e+10 2.539450e+10 1.184459e+09
4.808173e+10 -4.630403e+10 4.335138e+09
8.454238e+10 6.347995e+10 8.932638e+09
-1.442219e+11 3.007490e+10 -1.883336e+09
1.414835e+11 3.781254e+10 -8.921589e+09
2.670999e+10 -5.322477e+10 -4.100123e+08
-2.290478e+10 -4.621350e+10 -1.238992e+09
1.370259e+10 -3.324555e+10 1.815850e+09
-1.661239e+10 -4.297027e+10 3.339953e+08
-1.521147e+11 6.395664e+10 -8.678430e+09
1.577388e+11 6.564850e+10 9.044876e+09
6.433451e+09 -5.664698e+10 -8.895161e+08
-1.103850e+11 -1.768720e+10 2.653383e+09
-5.433613e+09 -5.478996e+10 1.418811e+09
2.835275e+10 -2.046981e+10 -4.646838e+08
-2.714503e+10 -2.003912e+10 9.615198e+08
-6.626109e+10 1.029350e+11 3.472447e+09
2.372535e+10 -4.277565e+10 1.648882e+09
-3.135382e+10 -7.084762e+10 1.276633e+09
1.849333e+11 -2.184303e+10 -1.015850e+10
-1.856104e+11 -2.125439e+10 1.889350e+10
-3.774796e+10 -3.147020e+10 1.916123e+09
3.704836e+10 -3.199575e+10 -9.663221e+08
1.122911e+11 -2.092223e+10 -3.781224e+09
2.434494e+10 8.507210e+10 1.252622e+09
4.547024e+10 1.286143e+10 1.123349e+09
5.207033e+10 1.501509e+11 -9.752598e+09
-5.510807e+10 -7.334317e+10 -2.869797e+08
4.922101e+10 -7.426757e+10 -8.534457e+08
-4.619777e+10 3.791277e+10 -1.032221e+09
-4.561562e+10 2.444237e+10 4.167810e+09
3.710822e+10 2.055511e+10 5.884734e+09
1.087706e+11 5.915517e+10 1.420990e+09
4.255361e+10 -3.101004e+10 -1.754109e+09
-3.090949e+10 -5.694176e+10 6.015834e+08
-4.302601e+10 -3.131227e+10 1.688587e+09
-2.031207e+10 4.298991e+10 -2.519022e+09
2.388625e+10 7.107295e+10 2.448941e+08
5.324091e+10 -5.773692e+10 8.957852e+08
-5.629992e+10 -5.331867e+10 2.886526e+09
4.842969e+10 3.010167e+10 -1.915481e+08
-3.444091e+10 2.298825e+10 -8.324369e+08
8.668603e+10 7.712405e+10 7.291830e+09
-9.431245e+10 7.705072e+10 -4.025387e+09
6.119130e+10 7.313802e+10 2.807011e+09
3.340822e+10 -5.066985e+10 -2.304642e+09
1.551191e+10 1.481713e+11 -5.279434e+09
1.033910e+11 -1.401446e+11 -5.618684e+09
-7.425646e+10 -1.191041e+11 3.762604e+09
1.842234e+10 2.062715e+11 1.821013e+09
-1.095170e+10 -1.071840e+11 -3.543991e+08
2.160110e+10 -1.300732e+11 -1.375978e+09
-8.527949e+10 9.539116e+10 9.770320e+09
1.242006e+11 1.164128e+11 4.338647e+09
4.973706e+10 9.469083e+10 -2.433073e+09
-4.635218e+10 -9.130963e+10 -4.528147e+09
-1.170970e+11 1.292599e+11 -1.202002e+10
4.642118e+10 -1.070319e+11 -1.123745e+09
5.745430e+10 5.687878e+09 -7.353318e+08
-4.027608e+10 5.657110e+10 1.521399e+08
-3.596503e+10 4.616392e+10 -1.609854e+09
-1.615147e+11 -5.231154e+10 -1.266794e+10
1.398955e+11 -4.731183e+10 9.614582e+09
1.271539e+10 4.408201e+10 -1.935008e+09
3.520938e+09 4.181347e+10 1.025401e+09
-5.355679e+10 6.296620e+09 1.896243e+09
4.000505e+10 -1.067316e+11 2.858123e+09
1.245243e+11 1.440133e+11 3.100132e+09
-2.792869e+10 -1.127050e+11 2.100385e+09
-2.377352e+10 -3.211617e+10 -7.454839e+08
2.646399e+10 -3.974558e+10 2.686336e+09
2.579121e+10 1.151754e+11 8.257514e+08
5.020095e+10 2.013683e+09 8.187381e+08
-4.696204e+10 2.031689e+09 -2.127917e+09
-1.446991e+11 -8.634719e+09 2.114633e+09
1.432660e+11 -8.618725e+09 -2.119632e+09
-7.084851e+09 4.483906e+10 -9.856981e+08
-1.993079e+11 5.506826e+10 -5.359299e+09
-2.745047e+10 -6.130528e+10 -1.858631e+09
2.117822e+11 5.856583e+10 1.689915e+10
-7.271917e+10 -7.854043e+10 9.511668e+08
7.288038e+10 -7.666904e+10 -1.216806e+09
4.423787e+10 2.962372e+10 -1.707194e+07
-2.070558e+09 -5.427074e+09 3.262702e+08
-3.368773e+09 5.111993e+09 -5.320164e+07
3.302944e+09 4.859371e+09 8.665827e+07
-5.533268e+09 -2.768088e+09 -1.653314e+08
-4.728769e+09 4.556658e+09 -1.701436e+08
4.376415e+09 4.514647e+09 -6.358092e+07
1.543416e+10 -5.104262e+10 -2.058336e+09
6.750116e+09 -2.412735e+09 -4.303680e+08
-3.411057e+09 -5.242828e+09 4.942977e+08
8.356397e+08 5.967095e+09 -1.627397e+08
6.004484e+09 -3.050992e+09 3.568422e+08
2.759458e+08 -5.897658e+09 -3.051398e+07
-2.146849e+09 6.133486e+09 2.493703e+08
7.408958e+09 7.880952e+08 -2.825696e+08
4.751970e+09 -5.216777e+09 -5.166802e+08
-6.199047e+09 -1.547459e+09 2.410864e+08
-6.820813e+09 1.379261e+08 6.106947e+06
-1.027496e+11 -4.931158e+10 -2.646542e+09
-4.817442e+09 -4.671152e+09 -4.643656e+06
3.702219e+09 -6.605194e+09 5.847250e+06
-5.465777e+09 2.581519e+09 6.260810e+07
6.050719e+09 2.418601e+09 -1.810759e+08
2.380738e+09 -6.791506e+09 -3.614056e+08
2.520129e+09 6.857869e+09 -1.442463e+08
-2.289947e+09 5.847286e+09 -3.876168e+08
5.830692e+09 1.577833e+09 1.953639e+08
-6.011348e+09 1.309605e+09 -6.394916e+07
-1.072173e+10 -5.614171e+09 2.169235e+08
9.031163e+10 -3.783660e+10 1.814576e+09
1.074170e+10 -5.762690e+09 -2.359332e+08
6.565647e+09 1.507237e+10 7.626178e+08
-4.298576e+08 2.512488e+09 -3.214069e+08
-6.481259e+09 1.047901e+10 -7.399105e+08
-2.542649e+10 2.071372e+10 -2.588736e+08
-4.220705e+09 3.915544e+10 3.759479e+08
-2.063494e+10 -2.457592e+10 1.812563e+09
2.137658e+10 -2.262983e+10 -1.022233e+09
5.907495e+10 2.565333e+10 1.381174e+09
1.793906e+10 5.454988e+09 5.461762e+07
4.877954e+10 1.166490e+11 4.459526e+09
6.662414e+09 6.026925e+10 -5.213899e+08
-4.814547e+10 2.101737e+10 -6.727996e+08
4.681435e+10 4.432457e+09 2.030325e+09
-5.982150e+10 8.706799e+09 -3.628611e+09
3.684586e+10 -3.031771e+09 -1.432818e+09
-3.108284e+10 -1.103059e+09 1.452387e+09
-2.264532e+10 -4.467338e+10 -3.936958e+08
-6.145889e+10 4.334909e+10 6.907590e+08
-3.846912e+09 1.980798e+10 3.483051e+08
-1.690700e+10 -1.826140e+10 -1.529307e+09
-5.941295e+10 1.065307e+11 1.677581e+09
1.282288e+10 -1.495457e+10 3.631979e+08
-1.591209e+10 2.479755e+10 8.464835e+08
2.461284e+10 1.531868e+10 -1.986915e+08
1.506194e+09 -3.968667e+10 2.460808e+09
-1.373014e+10 4.954303e+09 8.323269e+08
-3.201180e+10 1.487637e+10 -2.387692e+09
-1.511065e+10 3.202996e+10 2.418038e+09
1.712960e+10 -5.328484e+10 -1.086291e+09
-6.731296e+09 -1.332154e+10 6.555514e+08
1.492294e+10 -3.036584e+10 -1.763507e+08
-2.389824e+10 9.093411e+10 -2.785681e+09
1.007334e+10 2.441860e+10 3.975319e+08
2.431658e+10 3.114621e+10 -1.485023e+07
1.116957e+10 1.368279e+10 -1.090831e+09
-3.728537e+10 5.236446e+10 3.119772e+09
2.441859e+09 3.576187e+10 3.380525e+08
1.282049e+09 1.298245e+10 -3.436263e+08
2.442275e+10 -4.887295e+10 -1.256224e+09
-1.794464e+10 1.100950e+10 6.709212e+08
-8.713714e+10 -9.617129e+09 -1.632153e+09
1.656079e+10 1.354113e+10 -2.755149e+08
3.323583e+10 9.480931e+10 1.479890e+09
1.822418e+10 2.225357e+09 -9.196609e+08
2.057032e+10 1.718858e+09 -3.643725e+08
-1.629227e+10 2.063619e+09 -8.000703e+07
-2.475974e+10 4.646273e+09 -1.924799e+06
-8.989598e+09 -3.896537e+10 9.230781e+08
-4.599408e+09 -1.514679e+10 -3.783921e+08
4.499661e+10 -3.010126e+10 -1.073703e+09
-4.114341e+10 -2.812511e+10 1.284080e+09
9.431247e+09 -3.416503e+10 -5.403578e+08
4.929668e+10 3.579257e+10 9.555364e+08
-8.615379e+10 4.478057e+10 1.942505e+09
6.494147e+10 -1.517430e+10 -8.130719e+08
-6.813441e+10 -1.616770e+10 -1.105207e+09
1.612926e+10 -4.455145e+09 1.841231e+07
-1.564629e+10 -4.267562e+09 -1.353441e+08
4.598528e+08 -2.283218e+10 1.185317e+08
6.802100e+09 -2.386699e+10 3.890779e+08
-5.363208e+09 1.052211e+10 -9.016861e+08
-1.391908e+10 3.627476e+10 -9.616312e+08
-1.504168e+10 -2.823655e+10 -4.601444e+08
1.058490e+11 -1.028807e+10 2.419981e+09
1.043749e+11 4.393896e+10 -6.528333e+09
-1.262028e+10 -3.995163e+10 2.262056e+09
-1.745447e+10 -8.792489e+09 -6.908659e+08
1.750684e+10 -8.900431e+09 7.235744e+08
-7.214840e+09 -6.455622e+10 -4.427419e+08
6.150568e+09 -1.365054e+10 4.192422e+08
3.925721e+10 4.887408e+10 7.437407e+07
-6.915417e+09 5.255129e+10 -2.081435e+09
1.748651e+10 -1.121319e+10 7.380356e+08
-1.762142e+10 -1.132819e+10 4.451417e+07
1.350785e+10 5.084836e+09 -5.910916e+08
-1.026950e+11 5.077569e+10 1.287274e+08
3.578149e+09 -2.662359e+10 6.060219e+08
-3.943101e+10 -5.042767e+10 1.720186e+09
3.081180e+10 -3.601857e+10 -1.028985e+08
6.439483e+09 1.709126e+10 3.416264e+08
-1.314389e+10 -2.032245e+09 -4.416650e+08
1.620062e+10 -1.223115e+09 -2.009665e+08
-4.058627e+10 -2.123380e+10 6.789482e+08
4.147437e+10 -1.985237e+10 -1.048098e+09
3.465843e+10 6.654173e+10 -1.341959e+09
2.780791e+10 4.729712e+10 -3.538102e+09
9.963610e+10 4.814078e+10 1.595115e+08
2.263852e+10 6.554685e+10 -2.779731e+09
-4.390597e+10 -7.680665e+10 -4.461953e+09
2.179188e+10 -1.842883e+10 -5.418983e+08
-2.139152e+10 -1.782982e+10 8.681574e+08
4.904257e+10 2.786750e+10 1.272968e+09
2.026047e+10 2.327545e+10 -6.624729e+07
1.639699e+10 9.351772e+09 2.265898e+08
6.944851e+09 2.378875e+10 -7.905007e+08
-1.232091e+10 -2.589076e+10 -5.934152e+08
-1.894920e+10 1.691911e+10 -2.728200e+08
1.046028e+11 2.317318e+10 1.484147e+09
2.078104e+10 1.597219e+10 1.664035e+09
-4.832974e+10 -2.750103e+09 5.192547e+08
1.741973e+10 -8.291457e+10 -1.444644e+09
9.872015e+09 -6.380327e+10 9.718378e+08
5.784933e+10 -4.068885e+09 2.030793e+08
6.572482e+10 5.542422e+09 4.711833e+08
1.681069e+10 -1.993510e+10 7.451271e+08
-1.547868e+10 -1.892494e+10 5.029663e+08
-8.700463e+10 6.277574e+09 -9.291582e+08
-7.575379e+10 -2.252822e+10 1.109532e+09
-1.059481e+11 1.459695e+10 7.576524e+08
3.715188e+10 -3.013559e+10 1.451452e+09
-3.778227e+10 -2.783107e+10 -9.238398e+08
5.731595e+10 -1.719590e+10 6.600286e+08
-5.757724e+10 6.413197e+10 1.133601e+09
-2.579466e+09 1.833705e+10 7.607670e+08
6.580896e+09 1.271506e+10 1.972932e+07
3.872052e+09 -2.713200e+10 8.550680e+08
-1.288171e+10 5.445439e+10 -2.602910e+08
-2.361256e+10 -8.319349e+09 1.111639e+09
2.060755e+10 -7.339110e+09 -1.095491e+09
-1.241193e+10 -6.511241e+10 -2.122658e+09
-4.509622e+10 1.580624e+10 -6.707887e+08
-1.887194e+10 9.344078e+10 4.024727e+08
6.448670e+10 -2.741295e+10 1.579458e+09
-6.253905e+10 -2.751008e+10 6.824641e+08
4.935849e+10 -4.732857e+10 -6.985607e+08
-5.060838e+10 -4.812389e+10 9.839244e+08
5.235036e+10 -7.666506e+10 -8.921444e+08
1.025987e+11 2.999445e+10 -1.513522e+09
-2.718496e+10 -3.150081e+10 6.598629e+08
2.808303e+10 -3.907409e+10 -5.415126e+08
1.228531e+10 -7.715686e+10 -2.932951e+08
1.060730e+10 3.737319e+10 2.854770e+08
2.655861e+10 8.420458e+08 -2.547252e+08
5.161520e+10 -3.751831e+10 -8.573953e+08
-4.710641e+10 -3.424614e+10 3.657587e+08
6.634272e+10 6.077129e+10 8.153225e+08
4.598438e+08 2.754286e+10 -2.576433e+08
-1.460860e+10 1.739980e+10 7.347740e+07
-1.459826e+09 -2.114886e+10 2.425963e+08
-1.967898e+10 -1.605047e+10 5.774663e+08
1.982898e+10 -1.530942e+10 -7.829089e+08
-5.234207e+10 6.014197e+10 9.840143e+08
4.188682e+10 2.892079e+10 -1.878635e+09
8.450193e+09 -4.363654e+10 1.467064e+08
2.269002e+10 7.107390e+09 8.540915e+08
-5.981832e+09 3.270405e+10 -4.771507e+08
-5.922790e+10 3.992698e+10 -4.880313e+08
3.405212e+09 3.673285e+10 8.640642e+08
-8.998079e+10 2.820405e+10 1.606941e+09
-4.600269e+09 -3.166945e+10 -8.047479e+08
5.537615e+10 1.727024e+10 -3.771013e+09
-1.750675e+10 1.672204e+10 7.232259e+08
7.071161e+10 1.549374e+10 -8.913440e+08
5.432438e+10 2.075647e+10 -3.200942e+08
1.301988e+10 4.400892e+10 -2.142843e+08
-5.691989e+10 1.401218e+10 8.411190e+08
-9.588017e+09 2.810216e+10 4.155688e+08
-2.085124e+10 1.307984e+10 1.118312e+09
-1.265439e+10 2.669765e+10 -1.969746e+08
-1.335344e+10 1.954260e+10 -1.347598e+09
-2.609765e+10 4.379935e+10 3.341394e+08
-5.424936e+09 -5.601121e+10 -1.201869e+09
1.475826e+10 2.059159e+10 1.282905e+09
5.601013e+10 5.552891e+10 1.663945e+09
1.875038e+10 -5.366483e+10 -1.224506e+08
-6.259275e+10 5.565295e+10 1.302980e+09
5.170857e+10 5.510360e+10 2.011795e+09
-9.398636e+10 5.242913e+10 8.230620e+08
-2.412067e+10 1.080292e+10 -2.954911e+08
4.911644e+09 9.442906e+10 1.161358e+09
-4.209255e+10 4.478998e+10 1.320561e+09