# vtk DataFile Version 2.0
Electric current density generated by TTH
ASCII
DATASET UNSTRUCTURED_GRID
POINTS 1242 double
1.224372e-05 -2.998846e-21 -5.840150e-22
9.087706e-06 8.205014e-06 -5.840150e-22
1.222392e-06 8.501921e-06 2.018093e-06
7.273213e-06 -9.682942e-06 7.864605e-07
7.273213e-06 9.682942e-06 7.864605e-07
5.617797e-06 8.883127e-06 2.293789e-06
5.617797e-06 -8.883127e-06 2.293789e-06
-7.838329e-06 -2.637893e-06 -1.777797e-06
4.435623e-06 -8.915580e-06 2.382377e-06
4.435623e-06 8.915580e-06 2.382377e-06
6.453539e-06 -4.824095e-06 -1.561497e-06
6.453539e-06 4.824095e-06 -1.561497e-06
-9.011205e-06 2.321643e-06 -2.319213e-06
9.848772e-06 -5.016645e-06 2.064206e-06
-8.659335e-06 1.511603e-06 2.131355e-06
-8.172594e-06 -5.607667e-06 -2.383851e-06
4.536298e-06 1.077368e-05 -1.528049e-06
4.536298e-06 -1.077368e-05 -1.528049e-06
1.069902e-05 2.714529e-06 -2.072706e-06
1.069902e-05 -2.714529e-06 -2.072706e-06
-6.853615e-06 -3.347754e-06 -8.395050e-07
5.544396e-06 1.079517e-05 -7.094510e-07
5.544396e-06 -1.079517e-05 -7.094510e-07
7.333232e-07 -1.008568e-05 -2.370961e-06
9.848772e-06 5.016645e-06 2.064206e-06
7.333232e-07 1.008568e-05 -2.370961e-06
2.130272e-06 -1.148504e-05 1.538545e-06
2.130272e-06 1.148504e-05 1.538545e-06
6.673185e-06 3.948284e-06 1.118956e-06
6.673185e-06 -3.948284e-06 1.118956e-06
-5.719216e-07 8.617254e-06 2.046835e-06
-5.754053e-07 -8.621487e-06 2.049490e-06
-7.264958e-06 -1.990896e-06 5.224423e-07
-8.121240e-06 4.273704e-07 1.644251e-06
3.032642e-06 -1.130314e-05 1.512145e-06
-5.860981e-06 -5.090017e-06 -1.135657e-06
3.032642e-06 1.130314e-05 1.512145e-06
-4.058077e-06 -7.123839e-06 1.711012e-06
7.255343e-06 3.866743e-06 1.732865e-06
7.255343e-06 -3.866743e-06 1.732865e-06
-6.580352e-06 -1.019300e-05 -7.196299e-07
-6.580352e-06 1.019300e-05 -7.196299e-07
-2.193910e-06 -8.496528e-06 -2.123727e-06
-2.193910e-06 8.496528e-06 -2.123727e-06
2.585021e-06 8.360773e-06 -2.111341e-06
2.585021e-06 -8.360773e-06 -2.111341e-06
-5.860981e-06 5.090017e-06 -1.135657e-06
-4.093124e-06 6.859764e-06 -1.477891e-06
-4.093124e-06 -6.859764e-06 -1.477891e-06
-2.482396e-07 -1.216695e-05 5.903557e-07
-2.482396e-07 1.216695e-05 5.903557e-07
-3.406442e-06 9.619359e-06 2.359272e-06
-6.407348e-06 -7.962051e-06 2.356982e-06
-9.844873e-06 1.222619e-06 -2.383636e-06
-9.883990e-06 -3.698910e-06 -2.281146e-06
-8.783200e-06 -1.491397e-06 2.186837e-06
4.096651e-06 8.421973e-06 -2.332726e-06
1.017986e-05 -4.301891e-06 -2.064970e-06
4.096651e-06 -8.421973e-06 -2.332726e-06
9.821965e-06 -5.963673e-06 1.738954e-06
9.821965e-06 5.963673e-06 1.738954e-06
9.358623e-06 7.780793e-06 5.857852e-07
9.358623e-06 -7.780793e-06 5.857852e-07
1.169254e-05 -8.594627e-07 -1.485948e-06
1.169254e-05 8.594627e-07 -1.485948e-06
-1.177647e-05 -3.020080e-06 -6.351902e-07
-2.588833e-06 -9.404125e-06 2.382094e-06
-7.787814e-06 2.665360e-06 -1.742147e-06
1.017986e-05 4.301891e-06 -2.064970e-06
5.558597e-06 7.328961e-06 -2.291018e-06
5.558597e-06 -7.328961e-06 -2.291018e-06
1.049093e-05 3.309069e-06 2.093625e-06
1.049093e-05 -3.309069e-06 2.093625e-06
-8.363372e-06 8.830434e-06 -6.176187e-07
-8.325189e-06 -8.875101e-06 -5.935716e-07
-2.733064e-06 -7.503350e-06 -1.474704e-06
-2.733064e-06 7.503350e-06 -1.474704e-06
-8.358335e-06 3.756300e-06 2.280674e-06
-4.784119e-06 8.305543e-06 -2.368578e-06
3.255659e-06 -8.145835e-06 -2.122261e-06
-4.784119e-06 -8.305543e-06 -2.368578e-06
-1.143416e-05 -9.892682e-07 -1.751828e-06
6.750957e-06 3.303042e-06 4.392594e-07
6.750957e-06 -3.303042e-06 4.392594e-07
-9.398602e-06 -2.976427e-06 2.384422e-06
-9.093738e-06 8.061345e-06 -6.534860e-07
-3.786449e-06 -7.759574e-06 -2.045589e-06
-3.786449e-06 7.759574e-06 -2.045589e-06
1.205638e-05 -1.564237e-06 -6.356528e-07
1.205638e-05 1.564237e-06 -6.356528e-07
3.255659e-06 8.145835e-06 -2.122261e-06
6.747876e-06 -9.285892e-06 -1.750100e-06
6.747876e-06 9.285892e-06 -1.750100e-06
8.869926e-06 7.153258e-07 2.182377e-06
8.869926e-06 -7.153258e-07 2.182377e-06
-7.233589e-06 5.548541e-06 -2.265782e-06
-7.320985e-06 -5.332919e-06 -2.245543e-06
-1.217281e-05 0.000000e+00 5.771546e-07
-4.861826e-06 -6.196708e-06 1.324124e-06
7.631233e-07 -9.099345e-06 2.270567e-06
7.629059e-07 9.099452e-06 2.270595e-06
-7.833856e-06 3.438772e-06 1.996311e-06
-7.503519e-06 -4.262424e-07 4.388979e-07
-6.457104e-06 6.353076e-06 2.245915e-06
-9.090496e-06 -3.236020e-06 -2.375157e-06
-8.033329e-06 -1.834695e-06 1.750404e-06
-4.886439e-06 8.147589e-06 2.357281e-06
-7.177304e-06 -4.832181e-06 2.056409e-06
1.050234e-05 -6.159126e-06 5.677608e-07
1.050234e-05 6.159126e-06 5.677608e-07
-5.945908e-06 -4.631745e-06 -5.408952e-07
-4.350766e-06 1.133120e-05 -7.028978e-07
8.388682e-06 8.918445e-06 -5.840150e-22
-7.818113e-06 -3.441507e-06 1.987553e-06
-4.350766e-06 -1.133120e-05 -7.028978e-07
-9.037570e-06 -8.159747e-06 -5.635249e-07
-1.019826e-05 -6.629572e-06 6.125065e-07
9.037216e-06 -7.157309e-06 1.703051e-06
9.037216e-06 7.157309e-06 1.703051e-06
-2.910398e-06 -8.066278e-06 2.009165e-06
7.976753e-06 9.204441e-06 -5.479037e-07
7.976753e-06 -9.204441e-06 -5.479037e-07
-5.937127e-06 -5.538764e-06 1.630587e-06
7.795833e-06 1.459257e-06 -1.402867e-06
-8.462442e-06 -2.773822e-06 -2.185324e-06
7.795820e-06 -1.457697e-06 -1.402455e-06
-1.147948e-05 4.658910e-07 1.740624e-06
-9.837711e-06 -7.097015e-06 -7.261276e-07
-5.593005e-06 8.549297e-06 2.357549e-06
7.675605e-06 7.277274e-06 2.273834e-06
7.675605e-06 -7.277274e-06 2.273834e-06
8.024058e-06 8.377345e-06 -1.629296e-06
8.024058e-06 -8.377345e-06 -1.629296e-06
-7.262326e-06 9.712138e-06 7.365121e-07
-7.729854e-06 2.737780e-06 1.712728e-06
-8.461587e-06 2.902197e-06 -2.202355e-06
6.112869e-06 -6.172451e-06 2.076417e-06
6.112869e-06 6.172451e-06 2.076417e-06
-3.297057e-06 6.947158e-06 -9.893998e-07
-3.297057e-06 -6.947158e-06 -9.893998e-07
-9.162037e-06 -2.539290e-06 -2.358315e-06
-5.082903e-06 1.039843e-05 1.656623e-06
-6.264160e-06 -9.740970e-06 1.649308e-06
3.889068e-06 7.033739e-06 1.538125e-06
3.889068e-06 -7.033739e-06 1.538125e-06
7.490635e-06 3.183405e-06 1.651098e-06
-4.295349e-06 -7.679081e-06 2.135591e-06
7.490635e-06 -3.183405e-06 1.651098e-06
1.108440e-05 -1.943074e-06 1.934399e-06
1.108440e-05 1.943074e-06 1.934399e-06
-8.132683e-06 8.184373e-06 -1.693388e-06
-8.104311e-06 -8.209605e-06 -1.695405e-06
1.103834e-05 -5.392380e-07 2.064970e-06
1.103834e-05 5.392380e-07 2.064970e-06
-9.533828e-06 7.430717e-06 8.486763e-07
-1.068378e-05 -2.360006e-06 2.124775e-06
-1.122336e-05 3.297739e-06 -1.518327e-06
-4.295349e-06 7.679081e-06 2.135591e-06
-9.129534e-06 -4.851309e-06 -2.335782e-06
-1.163122e-05 3.443255e-06 -7.270026e-07
9.192998e-06 -1.835402e-06 2.334603e-06
9.207218e-06 1.817765e-06 2.336762e-06
5.659275e-06 8.616491e-06 -2.341670e-06
5.659275e-06 -8.616491e-06 -2.341670e-06
-5.920746e-06 4.663224e-06 -5.391832e-07
2.781480e-07 -7.469698e-06 -1.806239e-09
2.781176e-07 7.469699e-06 -1.800391e-09
-4.513284e-06 -8.307891e-06 2.349840e-06
-4.076235e-06 -8.511600e-06 -2.346786e-06
2.584933e-06 -7.182161e-06 8.543070e-07
2.584933e-06 7.182161e-06 8.543070e-07
-9.388300e-06 6.186681e-06 -1.941542e-06
-6.615111e-06 -6.021392e-06 2.202254e-06
-8.177778e-06 -4.071542e-07 1.700566e-06
-8.718436e-06 -6.686643e-07 2.107528e-06
1.149296e-06 1.130211e-05 1.852609e-06
1.149296e-06 -1.130211e-05 1.852609e-06
-2.473211e-06 -9.861612e-06 -2.364483e-06
-2.473211e-06 9.861612e-06 -2.364483e-06
-4.076235e-06 8.511600e-06 -2.346786e-06
6.273107e-06 -7.358769e-06 -2.376873e-06
6.273107e-06 7.358769e-06 -2.376873e-06
2.133876e-06 9.838157e-06 -2.375366e-06
2.133876e-06 -9.838157e-06 -2.375366e-06
7.413651e-06 5.199801e-06 2.244818e-06
7.413651e-06 -5.199801e-06 2.244818e-06
-1.151316e-05 -2.354628e-07 1.715294e-06
-4.944987e-06 1.111418e-05 6.090612e-07
-6.882423e-06 -1.003044e-05 6.091277e-07
-5.041598e-06 7.360215e-06 2.192196e-06
-9.753488e-07 9.529080e-06 -2.367874e-06
-1.367162e-06 -7.926021e-06 -1.544921e-06
-1.367162e-06 7.926021e-06 -1.544921e-06
1.035269e-05 5.326999e-06 1.582575e-06
1.035269e-05 -5.326999e-06 1.582575e-06
1.137136e-05 4.373930e-06 -5.322408e-07
1.137136e-05 -4.373930e-06 -5.322408e-07
-2.814868e-06 -6.933396e-06 -1.968226e-07
-2.814868e-06 6.933396e-06 -1.968226e-07
1.131770e-05 1.527129e-06 -1.802456e-06
1.131770e-05 -1.527129e-06 -1.802456e-06
-9.753488e-07 -9.529080e-06 -2.367874e-06
6.930375e-06 9.967676e-06 -6.949165e-07
6.930375e-06 -9.967676e-06 -6.949165e-07
-6.527224e-06 -4.511209e-06 1.407293e-06
9.638769e-06 4.769407e-06 -2.210111e-06
9.638769e-06 -4.769407e-06 -2.210111e-06
9.976781e-07 7.422966e-06 -2.655872e-07
9.976781e-07 -7.422966e-06 -2.655872e-07
7.101486e-06 -8.417585e-06 -2.086712e-06
7.101486e-06 8.417585e-06 -2.086712e-06
-1.001074e-05 2.349311e-06 2.346526e-06
9.962381e-06 -1.978719e-06 2.365766e-06
-3.526681e-06 1.043142e-05 2.087584e-06
-7.176374e-06 2.639893e-06 -8.883259e-07
8.285069e-06 -6.278204e-06 -2.323441e-06
8.285069e-06 6.278204e-06 -2.323441e-06
-7.042021e-06 -8.463991e-06 2.088157e-06
-5.948587e-06 -1.063469e-05 -5.244490e-07
-5.948587e-06 1.063469e-05 -5.244490e-07
-4.031919e-06 7.143689e-06 1.715238e-06
6.711575e-06 9.555186e-06 1.543464e-06
6.711575e-06 -9.555186e-06 1.543464e-06
7.633834e-06 9.572525e-06 -5.840150e-22
9.962381e-06 1.978719e-06 2.365766e-06
-1.051265e-05 -4.716725e-06 1.708772e-06
-1.007035e-05 3.225663e-06 -2.274680e-06
7.331885e-06 6.523334e-06 2.383988e-06
7.331885e-06 -6.523334e-06 2.383988e-06
-6.293316e-06 9.865537e-06 -1.513358e-06
-6.293316e-06 -9.865537e-06 -1.513358e-06
-5.398545e-06 6.237727e-06 -1.758944e-06
-5.398545e-06 -6.237727e-06 -1.758944e-06
-6.746914e-06 5.541665e-06 2.100592e-06
-8.496192e-06 8.337967e-07 1.984193e-06
-7.211364e-06 -6.619527e-06 2.383382e-06
6.191795e-06 4.226342e-06 -3.217757e-07
6.191795e-06 -4.226342e-06 -3.217757e-07
-7.479417e-06 5.583613e-07 3.468070e-07
8.747725e-06 -1.475969e-06 -2.170131e-06
8.747725e-06 1.475969e-06 -2.170131e-06
-5.762263e-06 -5.642126e-06 -1.569847e-06
-5.762263e-06 5.642126e-06 -1.569847e-06
[...]
POINT_DATA 1242
VECTORS 10.000GHz_fone_imag double
-7.467117e-04 1.027114e-03 3.088933e-02
1.233457e-03 -1.276503e-03 2.974988e-02
-1.121501e-02 -7.046060e-02 -5.274281e-02
-6.663181e-03 8.973922e-03 3.025233e-02
-6.517477e-03 -8.977829e-03 2.978889e-02
-2.595140e-02 -3.931070e-02 1.101167e-02
-2.598137e-02 3.932140e-02 1.096198e-02
-6.826597e-02 -2.229374e-02 -6.270617e-02
-2.765688e-02 5.373089e-02 -1.113893e-03
-2.762420e-02 -5.371031e-02 -1.058415e-03
5.234632e-02 -4.055389e-02 -8.839816e-02
5.539778e-02 4.250743e-02 -8.280292e-02
-6.492618e-02 1.310999e-02 -1.690778e-02
-3.627147e-02 1.882214e-02 1.907481e-02
7.362184e-02 -1.021373e-02 -3.927826e-02
-5.220775e-02 -3.355467e-02 -2.370056e-03
8.728272e-03 2.243752e-02 2.712680e-02
8.794387e-03 -2.256239e-02 2.715219e-02
3.682444e-02 7.163592e-03 1.837479e-02
3.404600e-02 -8.021228e-03 2.033155e-02
-3.792213e-02 -1.634840e-02 -1.185712e-01
4.453708e-03 8.966923e-03 2.973569e-02
4.541173e-03 -8.973735e-03 2.979621e-02
4.388334e-03 -5.468474e-02 1.462134e-03
-3.414681e-02 -1.969417e-02 1.749965e-02
5.748293e-03 5.692070e-02 4.198767e-03
-2.782473e-03 2.456732e-02 2.489713e-02
-2.816550e-03 -2.459238e-02 2.481470e-02
-4.665077e-02 -2.582752e-02 -1.047254e-01
-4.301602e-02 2.507154e-02 -9.234268e-02
5.135789e-03 -7.651076e-02 -4.961673e-02
6.546004e-03 7.685429e-02 -4.715215e-02
2.572460e-02 1.007734e-02 -1.263581e-01
6.063745e-02 -4.150131e-03 -7.714961e-02
-7.526316e-03 2.245605e-02 2.623954e-02
-4.149748e-02 -3.807698e-02 -1.044240e-01
-7.489771e-03 -2.229172e-02 2.604700e-02
3.325614e-02 6.310806e-02 -7.628791e-02
-5.993740e-02 -3.543338e-02 -6.768429e-02
-5.732530e-02 2.624462e-02 -7.367391e-02
-6.831795e-03 -9.297458e-03 2.898363e-02
-5.266291e-03 7.755641e-03 3.033762e-02
-1.512029e-02 -6.899449e-02 -3.159540e-02
-1.911061e-02 7.055907e-02 -4.407307e-02
1.886317e-02 6.418890e-02 -4.226087e-02
1.635801e-02 -6.787120e-02 -4.345841e-02
-4.055866e-02 3.659607e-02 -1.081562e-01
-3.215891e-02 5.503071e-02 -7.402553e-02
-2.954808e-02 -5.071877e-02 -8.033314e-02
1.451330e-03 9.192221e-03 3.036568e-02
1.117441e-03 -9.355380e-03 2.946283e-02
1.715559e-02 -4.972088e-02 9.053830e-03
3.537936e-02 4.503903e-02 3.605856e-03
-5.511491e-02 5.866856e-03 -2.557392e-03
-4.331642e-02 -1.754641e-02 1.341372e-02
7.349229e-02 1.449027e-02 -3.721409e-02
2.977145e-02 6.301040e-02 -2.202274e-02
3.491639e-02 -1.478381e-02 2.150367e-02
3.002665e-02 -6.320933e-02 -2.149368e-02
-2.353927e-02 1.419201e-02 2.505393e-02
-2.479008e-02 -1.410175e-02 2.455072e-02
-6.865256e-03 -5.274750e-03 2.695597e-02
-7.325873e-03 6.452381e-03 2.617450e-02
2.320447e-02 -1.766415e-03 2.718191e-02
2.199296e-02 2.837490e-03 2.688258e-02
-8.751110e-03 -1.737324e-03 2.739712e-02
1.749212e-02 6.239602e-02 -5.309264e-03
-6.739525e-02 2.694103e-02 -7.298994e-02
3.597200e-02 1.389342e-02 1.666275e-02
4.159859e-02 5.441027e-02 -2.782554e-02
4.066135e-02 -5.471128e-02 -2.656964e-02
-3.793604e-02 -1.137302e-02 1.984442e-02
-3.920548e-02 1.279915e-02 1.784412e-02
-4.991778e-03 7.356698e-03 2.838526e-02
-6.385034e-03 -8.105472e-03 2.823094e-02
-2.536262e-02 -6.021480e-02 -8.719400e-02
-2.346080e-02 6.049179e-02 -8.165969e-02
6.089346e-02 -2.791211e-02 -2.351512e-02
-3.103279e-02 5.903733e-02 -1.174627e-02
2.650378e-02 -6.714392e-02 -4.584102e-02
-3.013504e-02 -5.452334e-02 -1.122887e-02
-2.597140e-02 -1.586632e-03 2.302913e-02
-2.234743e-02 -6.139229e-03 -1.217771e-01
-1.797766e-02 1.079679e-02 -1.243059e-01
5.717041e-02 1.529286e-02 -6.958059e-03
-6.732679e-03 5.180197e-03 2.739231e-02
-3.322599e-02 -6.240839e-02 -5.325275e-02
-3.240020e-02 6.599696e-02 -5.200165e-02
7.315968e-03 -1.071545e-03 2.703085e-02
6.757681e-03 6.065813e-04 2.706480e-02
2.417374e-02 6.400120e-02 -3.641229e-02
1.700229e-02 -2.435404e-02 2.481540e-02
1.670766e-02 2.385691e-02 2.496463e-02
-7.468977e-02 -5.188719e-03 -3.935020e-02
-6.899080e-02 5.742579e-03 -3.703288e-02
-5.769837e-02 4.132239e-02 -2.996065e-02
-5.472788e-02 -3.838616e-02 -3.103011e-02
7.013934e-03 -5.269452e-04 2.974310e-02
3.700937e-02 4.648006e-02 -9.780016e-02
-5.118432e-03 7.266280e-02 -2.656433e-02
-4.398668e-03 -7.324434e-02 -2.627580e-02
6.851777e-02 -2.647398e-02 -4.878875e-02
2.250017e-02 1.478466e-05 -1.280499e-01
5.104617e-02 -5.002771e-02 -2.844389e-02
-6.313503e-02 -2.144159e-02 -1.025448e-02
6.281435e-02 1.144306e-02 -6.974541e-02
3.568871e-02 -5.902738e-02 -1.360904e-02
6.302410e-02 4.019594e-02 -5.161366e-02
-7.141544e-03 4.360955e-03 2.983700e-02
-7.252009e-03 -4.330130e-03 2.799065e-02
-1.575337e-02 -1.457106e-02 -1.173812e-01
-3.720409e-03 1.114629e-02 3.037023e-02
-1.259245e-03 9.860235e-04 2.890670e-02
6.566559e-02 3.105896e-02 -5.503249e-02
-3.338820e-03 -9.475159e-03 3.077942e-02
-6.326322e-03 -5.156925e-03 3.030532e-02
6.650827e-03 3.812223e-03 3.057333e-02
-2.217954e-02 1.688267e-02 2.589884e-02
-2.179855e-02 -1.872322e-02 2.398963e-02
2.929756e-02 6.324511e-02 -5.174734e-02
4.584456e-03 5.365345e-03 3.011647e-02
4.170687e-03 -5.227267e-03 2.943960e-02
4.307686e-02 4.835775e-02 -7.775199e-02
5.749372e-02 1.346341e-02 -9.416967e-02
-6.460116e-02 -2.074694e-02 -3.622221e-02
5.981855e-02 -9.956824e-03 -8.688864e-02
2.785177e-02 -1.441293e-03 2.164025e-02
-8.160622e-03 -4.566009e-03 2.971124e-02
2.616628e-02 -4.389156e-02 5.680105e-03
-3.132288e-02 -3.076929e-02 1.044511e-02
-3.346384e-02 3.302411e-02 1.245910e-02
1.867735e-02 1.928206e-02 2.629083e-02
1.828395e-02 -1.888908e-02 2.615416e-02
5.056377e-03 -7.850201e-03 3.029683e-02
6.893582e-02 -2.604482e-02 -7.163812e-02
-6.355448e-02 2.271230e-02 -3.200077e-02
-5.341146e-02 5.469554e-02 -4.966487e-02
-5.271371e-02 -5.484449e-02 -5.019420e-02
-2.372444e-02 4.190106e-02 -1.096135e-01
-2.442625e-02 -4.314003e-02 -1.089758e-01
-6.690981e-02 -1.891990e-02 -1.477898e-02
1.208384e-02 -2.455453e-02 2.584549e-02
1.476543e-02 2.318590e-02 2.515719e-02
-3.106993e-02 -5.723420e-02 -8.185644e-02
-3.078908e-02 5.692688e-02 -8.113856e-02
-5.591669e-02 -2.462683e-02 -7.203508e-02
3.328130e-02 6.183616e-02 -3.701785e-02
-5.935826e-02 2.665981e-02 -6.644725e-02
-3.556612e-02 6.412869e-03 2.319870e-02
-3.039323e-02 -6.065382e-03 1.928473e-02
-2.108306e-02 1.942071e-02 2.511706e-02
-1.998165e-02 -1.878027e-02 2.494251e-02
-3.967205e-02 3.227862e-03 1.910627e-02
-4.031731e-02 -2.973996e-03 1.866692e-02
1.098849e-02 -6.865852e-03 2.888770e-02
4.060117e-02 1.007269e-02 1.836794e-02
-2.368794e-02 8.224031e-03 2.553542e-02
3.163087e-02 -6.305236e-02 -4.465363e-02
-4.547708e-02 -2.522269e-02 8.970655e-03
-9.230662e-03 2.014120e-03 2.947853e-02
-6.788137e-02 1.262829e-02 -1.655505e-02
-6.875232e-02 -1.486622e-02 -1.984571e-02
3.015706e-02 4.584311e-02 7.914068e-03
3.013036e-02 -4.567528e-02 7.953433e-03
-1.398966e-02 1.148839e-02 -1.166000e-01
2.961257e-03 -1.138560e-03 -1.278876e-01
4.065423e-03 8.951063e-04 -1.294907e-01
2.775770e-02 5.729795e-02 -1.907779e-02
-3.117095e-02 -6.388192e-02 -1.507923e-02
-1.261677e-02 3.693691e-02 -1.154864e-01
-1.397434e-02 -4.004988e-02 -1.032602e-01
-3.014020e-02 1.989052e-02 2.187842e-02
5.440339e-02 5.153936e-02 -3.488638e-02
6.459966e-02 7.157494e-03 -6.929696e-02
7.486930e-02 4.021756e-03 -4.529708e-02
-3.455097e-03 -3.236762e-02 2.437189e-02
-2.795531e-03 3.198659e-02 2.450267e-02
-1.505238e-02 -5.586133e-02 3.695800e-03
-1.157067e-02 4.902280e-02 4.402421e-03
-2.976164e-02 6.370547e-02 -1.360249e-02
4.226891e-02 -5.143259e-02 -1.018780e-02
4.201776e-02 4.932004e-02 -9.972301e-03
1.240714e-02 5.908715e-02 1.797057e-03
1.245099e-02 -5.879989e-02 1.920803e-03
-6.034743e-02 -4.220895e-02 -3.161783e-02
-6.133461e-02 4.304539e-02 -2.974022e-02
2.504886e-02 1.231244e-03 2.362946e-02
5.108356e-03 -8.247142e-03 2.812564e-02
4.243431e-03 5.978910e-03 2.948376e-02
4.190071e-02 -5.813916e-02 -3.742453e-02
-8.964075e-03 6.857685e-02 -1.388511e-02
-9.916264e-03 -6.608960e-02 -8.508502e-02
-1.097744e-02 6.456836e-02 -8.217961e-02
-2.258084e-02 -1.152769e-02 2.709217e-02
-2.255737e-02 1.113519e-02 2.668585e-02
6.787007e-03 3.844207e-03 2.764045e-02
7.304250e-03 -2.930827e-03 3.080944e-02
2.440748e-03 -1.014175e-02 -1.240125e-01
2.480378e-03 1.030266e-02 -1.243244e-01
3.093244e-02 4.560014e-03 2.375218e-02
3.051621e-02 -4.294919e-03 2.349844e-02
-7.347362e-03 -6.803856e-02 -1.258248e-02
4.485357e-03 5.954495e-03 2.736535e-02
4.319286e-03 -4.826177e-03 2.825597e-02
4.815336e-02 3.526179e-02 -8.182452e-02
3.649524e-02 1.899640e-02 1.428105e-02
4.251256e-02 -1.875468e-02 1.622602e-02
4.072661e-04 1.588914e-02 -1.264306e-01
8.156696e-04 -1.393824e-02 -1.260250e-01
2.324435e-02 -2.831743e-02 1.753025e-02
2.206402e-02 2.695988e-02 1.900026e-02
5.222097e-02 -1.363713e-02 5.827689e-03
-5.042816e-02 1.014482e-02 2.395007e-03
1.178389e-02 -3.497813e-02 1.739165e-02
-3.943778e-02 1.201448e-02 -1.044218e-01
4.230992e-02 -3.295751e-02 9.098535e-03
4.308250e-02 3.188081e-02 9.813370e-03
2.562722e-02 3.037176e-02 1.966622e-02
-3.137870e-03 -7.423442e-03 3.088940e-02
-5.330884e-03 5.660359e-03 2.955988e-02
3.261624e-02 -5.846302e-02 -6.892573e-02
-1.486377e-02 -2.042194e-02 2.561776e-02
-1.481268e-02 2.049389e-02 2.566236e-02
9.558343e-04 -1.205613e-03 2.910546e-02
-5.651082e-02 -1.005090e-02 6.246035e-03
2.273685e-02 1.110819e-02 2.522473e-02
-4.566378e-02 1.465734e-02 1.314046e-02
-4.381222e-02 -4.079918e-02 -2.734838e-03
-4.269953e-02 4.213742e-02 -7.443874e-03
-1.339432e-02 2.079339e-02 2.670086e-02
-1.183422e-02 -1.864347e-02 2.537280e-02
-4.457978e-02 5.213258e-02 -6.331067e-02
-4.145498e-02 -5.153552e-02 -6.833858e-02
5.232554e-02 -4.563774e-02 -4.268444e-02
7.559767e-02 -9.465301e-03 -5.453875e-02
4.284648e-02 3.727617e-02 -4.829354e-03
1.002020e-02 5.594159e-03 -1.220801e-01
1.352947e-02 -8.575477e-03 -1.171730e-01
1.664626e-02 4.859290e-04 -1.314942e-01
7.062224e-02 -9.966794e-03 -3.540850e-02
7.344447e-02 1.270738e-02 -3.524456e-02
-4.717056e-02 -3.888369e-02 -7.715232e-02
-4.954621e-02 4.952028e-02 -7.986773e-02
5.923069e-02 -3.399006e-02 -2.399983e-02
-6.171666e-02 3.041623e-02 -1.604368e-02
-6.374628e-02 -2.899488e-02 -1.518937e-02
1.169228e-02 -5.766866e-02 -6.316298e-03
1.948907e-03 -2.482306e-02 2.625714e-02
4.575319e-02 3.314047e-02 -2.567357e-03
1.958991e-02 1.511529e-02 2.604219e-02
1.088240e-02 -2.748843e-02 -1.194083e-01
1.342118e-02 2.970214e-02 -1.105764e-01
2.954360e-02 -7.143020e-03 2.264275e-02
-9.879075e-03 7.874632e-04 2.933370e-02
2.142414e-03 2.439539e-02 2.584785e-02
-6.965113e-02 -2.248545e-02 -4.403985e-02
-7.342568e-02 1.680632e-02 -4.773242e-02
4.461348e-02 -4.301585e-02 -8.413054e-03
5.372676e-03 -4.690859e-03 2.822128e-02
5.385685e-03 4.622967e-03 3.065181e-02
6.945759e-02 -1.918361e-02 -2.571862e-02
2.028367e-04 8.216506e-03 2.995111e-02
-1.880806e-04 -8.171137e-03 2.887369e-02
5.366770e-03 -7.473659e-02 -5.921500e-02
5.000327e-03 7.460782e-02 -5.813511e-02
-9.441000e-03 -1.120659e-03 3.015253e-02
5.796706e-03 2.119351e-02 -1.245890e-01
4.555179e-03 -2.140891e-02 -1.273704e-01
1.388933e-02 6.032594e-02 -9.870561e-03
-4.433346e-02 4.803929e-02 -9.573740e-03
-4.410534e-02 -4.817427e-02 -9.761336e-03
1.552502e-02 -2.338641e-02 2.604626e-02
-3.711830e-02 -4.173764e-02 -1.365715e-03
-4.299514e-02 4.499560e-02 -6.797085e-04
-2.832082e-03 -5.381748e-03 -1.280587e-01
2.990224e-03 -4.809881e-04 -1.301475e-01
1.547894e-02 -1.624501e-02 -1.155886e-01
5.464231e-04 1.751969e-04 3.031854e-02
1.804278e-02 1.954758e-02 -1.139735e-01
-2.033549e-02 4.584149e-02 9.372119e-03
-2.026755e-02 -4.583791e-02 9.536355e-03
-5.061141e-03 6.789156e-03 -1.172346e-01
-3.298229e-03 -7.379805e-03 -1.315383e-01
5.689731e-02 -8.379084e-04 -2.955031e-03
4.969772e-02 1.482677e-02 7.921407e-03
-5.898557e-02 4.023346e-02 -6.590019e-02
-6.065132e-02 -3.624271e-02 -5.661918e-02
-5.164260e-02 4.211299e-03 8.403160e-03
-1.166249e-03 7.103232e-04 3.001887e-02
6.950582e-03 4.683931e-02 1.332817e-02
7.232760e-03 -4.673381e-02 1.332864e-02
-3.558986e-02 -2.198104e-02 1.490270e-02
-3.718304e-02 2.448176e-02 1.031559e-02
6.248653e-02 -4.063785e-02 -5.041740e-02
5.675822e-02 3.422516e-02 -4.318223e-02
3.890992e-02 -9.717104e-03 1.759675e-02
3.938141e-02 8.815963e-03 1.754944e-02
-4.663468e-03 -1.077961e-02 -1.284220e-01
-6.452242e-03 9.101048e-03 -1.271498e-01
1.283410e-03 -5.025516e-04 3.006578e-02
-3.742982e-02 3.391928e-02 8.814536e-03
-3.812410e-02 -2.994128e-02 7.466162e-03
9.216502e-03 6.036102e-02 -8.167636e-02
9.465331e-03 -6.067267e-02 -8.135574e-02
-3.736983e-02 -6.474896e-03 1.782759e-02
4.208843e-02 -9.326683e-03 1.604267e-02
4.277927e-02 -2.561223e-02 1.265777e-02
1.891055e-02 -3.279229e-02 1.955607e-02
1.899534e-02 3.294787e-02 1.948789e-02
2.987662e-02 -2.226059e-02 1.904298e-02
4.785508e-04 6.594577e-04 3.110467e-02
2.745142e-02 2.080101e-02 2.101221e-02
-5.607846e-03 2.679935e-03 -1.274679e-01
-1.315205e-02 3.057482e-03 -1.239227e-01
3.768839e-02 3.824556e-02 -1.043310e-01
3.384386e-02 -3.879297e-02 -9.636312e-02
3.648692e-02 1.816242e-02 1.812721e-02
-1.967193e-03 -4.324488e-02 1.729857e-02
-1.334245e-03 4.346707e-02 1.788655e-02
2.284159e-02 3.088026e-02 1.711000e-02
1.419338e-02 4.011149e-02 1.554326e-02
7.404858e-04 9.655694e-04 2.897204e-02
1.522560e-02 -3.774308e-02 1.786827e-02
2.767670e-02 -3.366160e-02 1.486700e-02
7.106145e-02 1.620206e-02 -5.399831e-02
7.107349e-02 -1.911249e-02 -5.221632e-02
-9.609241e-03 -3.535742e-02 1.867165e-02
-1.009753e-02 3.896056e-02 1.828302e-02
-7.438007e-02 -6.707522e-03 -5.403188e-02
-3.154304e-02 -1.198020e-02 2.002869e-02
6.243581e-02 8.381638e-03 -6.381079e-02
6.767551e-02 -1.072730e-02 -7.793971e-02
-1.027336e-03 7.514714e-04 2.838959e-02
-1.874572e-02 2.750640e-02 1.872650e-02
-1.919203e-02 -3.177209e-02 2.113193e-02
1.030365e-02 3.133328e-02 2.107662e-02
1.032622e-02 -3.146158e-02 2.072144e-02
-7.171654e-03 3.049110e-02 1.987442e-02
-7.230532e-03 -3.014868e-02 2.006838e-02
-1.888028e-02 -2.706433e-02 1.921309e-02
-1.890862e-02 2.713502e-02 1.915096e-02
-3.205531e-02 9.995470e-03 1.956907e-02
4.152071e-02 -5.673251e-02 -5.056731e-02
4.735436e-04 1.136956e-03 2.953758e-02
3.995698e-02 5.633382e-02 -5.236850e-02
-6.716419e-02 -2.064993e-02 -6.706948e-02
-5.970731e-02 1.930095e-02 -6.895630e-02
-1.892636e-03 3.178354e-02 2.125369e-02
-1.823442e-03 -3.186372e-02 2.097428e-02
-1.539594e-02 6.567510e-02 -6.731366e-02
-1.826324e-02 -7.021994e-02 -7.835305e-02
1.821558e-02 6.004025e-02 -7.078274e-02
1.909706e-02 -6.024886e-02 -7.203515e-02
-3.866419e-02 -5.258270e-02 -6.498787e-02
-2.213043e-04 -1.217973e-03 2.995056e-02
-1.451444e-04 -1.602995e-04 3.119215e-02
-4.316717e-02 5.389561e-02 -6.508359e-02
-2.842369e-02 -6.651044e-02 -5.145628e-02
-2.837275e-02 6.548637e-02 -5.177511e-02
-6.130185e-02 7.371831e-03 -8.936798e-02
2.995304e-02 2.011789e-03 2.294071e-02
2.382229e-03 2.860658e-02 -1.215395e-01
-1.706464e-03 -2.716218e-02 -1.270849e-01
-1.821083e-02 3.674498e-03 2.590076e-02
-2.247434e-02 -3.700054e-03 2.677502e-02
3.191917e-02 2.576820e-02 -1.131246e-01
7.159812e-04 -4.355233e-04 2.994513e-02
3.365143e-02 -1.996020e-02 -1.081555e-01
-6.089410e-02 3.821628e-02 -5.031538e-02
-5.437436e-02 -3.591030e-02 -4.473212e-02
-2.058364e-02 -1.942307e-02 2.437066e-02
-2.478898e-02 2.174034e-02 2.504505e-02
1.953977e-02 -1.730887e-02 2.476948e-02
-2.047329e-02 7.817925e-03 -1.260612e-01
-9.053035e-03 -8.010843e-03 -1.153852e-01
2.239387e-02 1.996380e-02 2.385109e-02
4.479157e-03 -2.833794e-02 2.292965e-02
3.196952e-04 1.393171e-03 2.864952e-02
3.291138e-03 2.750897e-02 2.305714e-02
9.268536e-03 -6.078805e-02 -8.581550e-02
6.152296e-03 6.568540e-02 -8.789750e-02
-2.073346e-02 -2.235493e-02 2.522560e-02
-2.167740e-02 2.146499e-02 2.285877e-02
2.712424e-02 -2.426676e-03 2.252130e-02
2.402729e-02 1.008657e-02 2.267611e-02
1.939980e-02 -2.111155e-02 2.427881e-02
1.899000e-02 2.100541e-02 2.402135e-02
5.142429e-02 -5.036183e-02 -5.873174e-02
-6.903630e-04 1.039774e-03 2.866934e-02
5.422757e-02 4.564158e-02 -6.081568e-02
-2.163480e-02 1.527805e-02 2.679075e-02
-2.357944e-02 -1.567515e-02 2.588325e-02
-1.048366e-02 2.177831e-02 2.501579e-02
-1.040138e-02 -2.414072e-02 2.587960e-02
-2.332230e-02 -6.983197e-03 2.426868e-02
-2.574396e-02 8.737852e-03 2.731784e-02
-3.275861e-02 -3.939105e-02 -1.043841e-01
-3.300963e-02 3.970390e-02 -1.040802e-01
-2.056373e-04 -2.601993e-02 2.643622e-02
-9.721320e-04 -1.147953e-04 3.009219e-02
2.092610e-04 2.556281e-02 2.645958e-02
1.554631e-02 -1.696493e-02 2.336135e-02
-2.229675e-02 1.034057e-02 2.671245e-02
-2.586940e-02 2.721621e-04 2.299616e-02
2.304155e-02 -9.826008e-03 2.741841e-02
-1.650645e-02 -1.712646e-02 2.662753e-02
-1.739107e-02 1.940981e-02 2.694334e-02
7.762112e-03 2.477960e-02 2.648013e-02
2.773989e-03 -6.706031e-02 -1.641077e-02
1.477055e-03 6.451174e-02 -1.929263e-02
3.990304e-04 -3.749757e-04 3.142809e-02
1.543963e-02 1.805192e-02 2.439414e-02
5.729904e-03 -2.504786e-02 2.596596e-02
1.303058e-02 2.289001e-02 2.427743e-02
1.227197e-02 -2.196569e-02 2.734780e-02
-1.858449e-02 -6.480150e-02 -1.657489e-02
-1.989683e-02 6.657402e-02 -1.433971e-02
5.881053e-02 3.885283e-02 -1.570053e-02
6.061021e-02 -3.910969e-02 -4.894484e-02
-2.091323e-02 2.877849e-03 2.564472e-02
6.679623e-02 2.517611e-02 -1.799768e-02
-1.254199e-04 -2.148304e-05 3.099171e-02
5.900818e-02 -2.316477e-02 -1.740827e-02
-5.588148e-02 -2.389051e-02 -6.004194e-03
-5.989043e-02 2.290140e-02 -4.136561e-03
-1.012779e-02 2.010359e-02 2.330321e-02
-1.012279e-02 -2.005306e-02 2.328210e-02
1.766862e-02 -1.819482e-02 2.679847e-02
1.661455e-02 1.725613e-02 2.719348e-02
3.807304e-02 4.704803e-02 -1.801492e-02
2.406009e-02 -6.572313e-02 -1.769930e-02
4.661542e-02 -5.511609e-02 -3.794965e-02
7.632275e-04 -1.482154e-03 2.793893e-02
2.271213e-02 3.139298e-03 2.657363e-02
2.091226e-02 -4.263475e-02 -1.111843e-01
2.132255e-02 4.239608e-02 -1.095540e-01
2.325239e-02 6.603586e-02 -2.410544e-02
2.234190e-02 -6.594514e-03 2.424911e-02
2.283600e-02 6.004207e-03 2.762966e-02
5.118031e-03 2.250284e-02 2.504374e-02
5.072801e-03 -2.252962e-02 2.500415e-02
-3.237392e-02 -2.022294e-02 -1.184050e-01
-3.563195e-02 1.436119e-02 -1.153107e-01
-1.974705e-04 7.450206e-04 2.694501e-02
-4.586173e-03 -6.039496e-02 -8.981902e-02
-5.084476e-03 6.039805e-02 -8.871335e-02
-4.345044e-02 -3.764361e-02 -7.709285e-02
-4.310298e-02 3.713199e-02 -7.714133e-02
-1.763218e-02 -6.262228e-02 -8.671246e-03
-1.741416e-02 6.282786e-02 -8.644319e-03
1.663219e-03 6.526882e-02 -2.099323e-02
2.606969e-03 -6.863632e-02 -1.812297e-02
-3.970664e-02 9.538324e-03 -1.172369e-01
-4.259409e-02 -9.615192e-03 -1.197351e-01
-2.424765e-04 1.830801e-04 2.776844e-02
-8.844100e-03 8.805592e-03 -1.148929e-01
-6.393746e-03 -3.232482e-03 -1.222038e-01
5.917890e-02 -1.336430e-02 -1.448411e-02
-3.685030e-02 -8.885997e-03 -1.043439e-01
-3.650269e-02 5.522012e-02 -9.707368e-03
-3.677232e-02 -5.060705e-02 -8.330027e-03
-3.109702e-02 -5.498970e-02 -2.385863e-03
-3.114026e-02 5.502798e-02 -2.466289e-03
-2.063110e-02 -1.110200e-02 2.778460e-02
3.387348e-02 -8.750676e-03 -1.097847e-01
6.030926e-04 4.581591e-04 3.006792e-02
-3.571350e-04 -2.373030e-04 3.112623e-02
3.391588e-02 5.457160e-03 -1.047524e-01
3.353048e-02 -4.787616e-02 -1.032866e-01
2.245516e-02 3.814656e-02 -1.043465e-01
1.539309e-02 6.212369e-02 -2.269084e-02
1.585532e-02 -6.216499e-02 -2.248585e-02
5.306550e-02 2.055059e-02 -3.781730e-03
2.016994e-02 1.110696e-02 2.826375e-02
1.730518e-02 -1.022471e-02 2.531232e-02
-4.839001e-02 2.032075e-02 5.972869e-03
-5.017422e-02 -3.827556e-02 -6.700847e-03
4.346573e-04 1.175824e-04 3.123229e-02
-4.989511e-02 3.877587e-02 -4.818704e-03
2.031761e-02 -5.406210e-02 -9.588111e-02
1.718613e-02 5.743614e-02 -9.632187e-02
-2.505168e-02 5.492101e-02 -7.483134e-02
-2.595105e-02 -5.725832e-02 -7.350167e-02
-1.974106e-02 -6.264984e-03 2.784485e-02
5.476573e-02 1.734448e-02 -8.955974e-02
-5.421287e-02 -3.345563e-02 -9.794050e-03
-4.879503e-02 2.914086e-02 -3.415763e-03
4.708239e-02 -3.578550e-02 -1.329577e-02
5.293677e-04 9.742533e-04 2.995144e-02
5.221292e-02 4.094966e-02 -1.555181e-02
-1.876638e-02 6.258476e-02 -9.005040e-02
-1.854882e-02 -6.064771e-02 -9.011734e-02