# vtk DataFile Version 2.0
Electric current density generated by TTH
ASCII
DATASET UNSTRUCTURED_GRID
POINTS 2077 double
-7.229710e-06 -1.648208e-05 -4.905972e-22
-1.296538e-05 9.075902e-06 -1.995904e-06
-3.874800e-06 -1.396280e-05 -1.322324e-06
1.130480e-06 -1.525637e-05 1.877915e-06
-1.037758e-05 -1.040906e-05 -1.526739e-06
1.372387e-05 1.145452e-05 -6.884054e-07
1.372387e-05 -1.145452e-05 -6.884054e-07
-6.750360e-06 1.541581e-05 1.821128e-06
-1.578560e-05 6.056964e-06 1.782948e-06
-4.771418e-06 -1.315632e-05 -1.071610e-07
3.990923e-06 1.743441e-05 -6.622030e-07
-6.310771e-06 -1.685532e-05 -4.905972e-22
-2.219624e-06 1.679763e-05 -1.764113e-06
-1.273549e-05 6.354705e-06 9.524186e-07
-1.633753e-05 -7.166305e-06 -7.793650e-07
-1.079718e-05 1.076193e-05 -1.857155e-06
1.650365e-05 6.466671e-06 1.008880e-06
1.650365e-05 -6.466671e-06 1.008880e-06
1.248537e-05 1.272313e-05 -8.122743e-07
1.248537e-05 -1.272313e-05 -8.122743e-07
-1.656362e-05 2.682592e-07 -1.919957e-06
-1.020256e-05 -1.461794e-05 -8.113949e-07
-5.372667e-06 -1.717737e-05 -4.905972e-22
-1.380304e-05 5.977953e-06 -1.761755e-06
-5.704112e-06 1.688866e-05 -8.122120e-07
1.766355e-05 -2.328135e-06 -8.335223e-07
1.766355e-05 2.328135e-06 -8.335223e-07
3.901821e-06 -1.741066e-05 -7.737300e-07
6.484509e-06 -1.387156e-05 1.883117e-06
6.484509e-06 1.387156e-05 1.883117e-06
-8.708619e-06 -1.555621e-05 8.076337e-07
8.610248e-06 -1.294880e-05 1.953002e-06
8.610248e-06 1.294880e-05 1.953002e-06
-4.418245e-06 -1.744726e-05 -4.905972e-22
6.793945e-06 -1.648160e-05 -8.098496e-07
6.793945e-06 1.648160e-05 -8.098496e-07
2.719811e-06 -1.660005e-05 1.824586e-06
1.022830e-05 -9.614033e-06 -4.240912e-07
1.022830e-05 9.614033e-06 -4.240912e-07
-1.291368e-05 7.151157e-06 -1.578175e-06
-1.731925e-05 4.373840e-06 -7.228640e-07
-1.527696e-05 -9.122929e-06 -8.814196e-07
1.132434e-05 1.219249e-05 -1.896236e-06
1.132434e-05 -1.219249e-05 -1.896236e-06
-3.450406e-06 -1.766415e-05 -4.905972e-22
-1.008001e-05 -9.896218e-06 -7.202170e-07
1.461113e-05 1.014644e-05 8.915580e-07
1.461113e-05 -1.014644e-05 8.915580e-07
1.356527e-05 4.962197e-06 -1.267953e-06
1.356527e-05 -4.962197e-06 -1.267953e-06
-1.532581e-05 9.075072e-06 8.447102e-07
-7.553849e-06 1.184312e-05 4.666254e-07
-1.092536e-05 1.411528e-05 -7.568456e-07
7.687780e-06 1.511524e-05 1.756340e-06
7.687780e-06 -1.511524e-05 1.756340e-06
-2.472088e-06 -1.782741e-05 -4.905972e-22
1.088993e-05 1.246456e-05 1.924118e-06
1.088993e-05 -1.246456e-05 1.924118e-06
4.815254e-06 1.498262e-05 -1.986384e-06
4.815385e-06 -1.498261e-05 -1.986388e-06
-1.238134e-05 1.283262e-05 7.988000e-07
-5.516964e-06 -1.603136e-05 -1.758454e-06
-1.545764e-05 8.924472e-06 -7.581982e-07
1.563636e-05 5.775902e-06 -1.886190e-06
1.563636e-05 -5.775902e-06 -1.886190e-06
8.358735e-07 1.677479e-05 1.836047e-06
-1.486262e-06 -1.793652e-05 -4.905972e-22
-1.734896e-05 -3.894439e-06 -9.073499e-07
-1.777967e-05 -1.455918e-06 -7.816584e-07
-5.794483e-06 1.572000e-05 -1.853655e-06
-1.517615e-05 7.529085e-06 1.765451e-06
8.947043e-06 -1.447922e-05 -1.720575e-06
8.947043e-06 1.447922e-05 -1.720575e-06
-7.888266e-06 1.205039e-05 -1.215156e-06
1.562854e-05 2.403703e-06 -1.994669e-06
1.562854e-05 -2.403703e-06 -1.994669e-06
-1.428290e-05 -4.518122e-06 1.727096e-06
-4.959228e-07 -1.799116e-05 -4.905972e-22
-1.207000e-05 1.307185e-05 -8.845776e-07
-6.851935e-06 1.269738e-05 1.247889e-06
-3.660825e-06 -1.741458e-05 -8.782017e-07
-3.093366e-06 -1.370444e-05 -4.755009e-07
-4.414912e-07 1.775695e-05 9.424204e-07
1.096076e-05 -8.725014e-06 -2.639754e-07
1.096076e-05 8.725014e-06 -2.639754e-07
1.634751e-05 -4.811771e-06 1.708214e-06
1.634751e-05 4.811771e-06 1.708214e-06
-9.519312e-06 1.074254e-05 -1.147708e-06
4.959228e-07 -1.799116e-05 -4.905972e-22
-1.174586e-05 7.923829e-06 8.226820e-07
-7.503427e-06 -1.503936e-05 1.830922e-06
-1.255664e-05 -7.760331e-06 -1.577901e-06
-1.630081e-05 -5.656342e-06 1.557626e-06
6.087313e-06 1.569559e-05 -1.818500e-06
6.087343e-06 -1.569609e-05 -1.818281e-06
-1.129869e-05 -9.034140e-06 -1.294399e-06
-1.328403e-05 -7.306334e-06 -1.821020e-06
-4.713460e-06 1.317903e-05 1.355450e-07
1.164771e-05 -1.350994e-05 -7.848589e-07
1.486262e-06 -1.793652e-05 -4.905972e-22
1.164771e-05 1.350994e-05 -7.848589e-07
-1.500264e-05 -5.118293e-06 -1.997884e-06
-8.522464e-06 1.562759e-05 -8.674880e-07
-7.898066e-06 -1.173261e-05 7.638436e-07
-1.705505e-05 5.221283e-06 7.882196e-07
1.385674e-05 9.922835e-06 1.706813e-06
1.385674e-05 -9.922835e-06 1.706813e-06
-3.168070e-06 1.655209e-05 1.810147e-06
-1.278808e-05 1.089042e-05 -1.835474e-06
-1.124280e-05 1.281672e-05 -1.703253e-06
2.472088e-06 -1.782741e-05 -4.905972e-22
-4.861728e-06 -1.554841e-05 1.981053e-06
9.239445e-06 1.440277e-05 1.662890e-06
9.239445e-06 -1.440277e-05 1.662890e-06
1.325990e-05 -4.532817e-06 2.913045e-07
1.325990e-05 4.532817e-06 2.913045e-07
-2.891069e-06 1.761400e-05 7.563857e-07
1.595053e-05 -7.275531e-07 -2.002821e-06
1.581737e-05 7.796715e-07 -1.996742e-06
7.944436e-06 1.246465e-05 1.593308e-06
7.944436e-06 -1.246465e-05 1.593308e-06
3.450406e-06 -1.766415e-05 -4.905972e-22
-1.449351e-05 -1.035691e-05 8.392605e-07
1.365882e-05 -1.141780e-05 8.630564e-07
1.365882e-05 1.141780e-05 8.630564e-07
-1.419701e-05 -1.136132e-06 -9.698157e-07
-4.878314e-06 -1.717989e-05 7.329438e-07
1.419899e-05 7.409205e-07 9.249385e-07
1.420042e-05 -7.302470e-07 9.266279e-07
-1.002072e-05 -1.098476e-05 1.656407e-06
1.712061e-05 -4.879880e-06 -8.631130e-07
1.712061e-05 4.879880e-06 -8.631130e-07
4.418245e-06 -1.744726e-05 -4.905972e-22
-9.236010e-06 1.260588e-05 1.968978e-06
8.501050e-06 1.570856e-05 -7.271977e-07
8.501050e-06 -1.570856e-05 -7.271977e-07
1.376325e-05 -9.933259e-06 -1.747781e-06
1.376325e-05 9.933259e-06 -1.747781e-06
-9.921379e-06 -1.213926e-05 -1.977754e-06
-1.245483e-05 -1.280287e-05 7.265147e-07
-1.189745e-05 -9.287217e-06 1.788490e-06
-1.281851e-05 -6.104492e-06 -8.845431e-07
-8.912026e-06 -1.348323e-05 -1.996009e-06
5.372667e-06 -1.717737e-05 -4.905972e-22
-9.851327e-06 -1.362125e-05 1.829555e-06
1.023101e-05 1.464065e-05 -7.275231e-07
1.023101e-05 -1.464065e-05 -7.275231e-07
-1.298203e-05 -8.132114e-06 1.885418e-06
-1.202627e-05 7.482443e-06 -8.120973e-07
5.687876e-06 -1.316863e-05 1.134909e-06
5.687898e-06 1.316863e-05 1.134916e-06
-1.382628e-05 -3.398568e-06 -9.615373e-07
1.267449e-05 1.136521e-05 -1.718583e-06
1.267449e-05 -1.136521e-05 -1.718583e-06
6.310771e-06 -1.685532e-05 -4.905972e-22
-3.788980e-06 1.403378e-05 -1.372689e-06
7.466934e-06 1.422437e-05 2.001787e-06
7.466934e-06 -1.422437e-05 2.001787e-06
-1.018094e-05 -1.468297e-05 7.116155e-07
2.711228e-06 1.682101e-05 -1.709957e-06
2.738458e-06 -1.680816e-05 -1.715007e-06
-1.307316e-05 6.326393e-06 -1.358930e-06
-1.621513e-05 -1.390884e-06 -1.983391e-06
1.777682e-05 1.577569e-06 7.637041e-07
1.777682e-05 -1.577569e-06 7.637041e-07
7.229710e-06 -1.648208e-05 -4.905972e-22
-6.488289e-06 -1.442970e-05 1.995473e-06
5.590259e-06 1.693132e-05 -8.022119e-07
-1.537085e-05 -1.854821e-06 1.936308e-06
-1.588125e-05 -6.337371e-06 -1.671274e-06
1.672113e-05 3.487268e-06 -1.683100e-06
1.672113e-05 -3.487268e-06 -1.683100e-06
5.756584e-06 -1.687082e-05 -8.122648e-07
4.192178e-06 1.631749e-05 -1.812580e-06
-1.306089e-06 -1.777082e-05 8.281975e-07
1.722794e-07 -1.786073e-05 -7.265902e-07
8.126693e-06 -1.605878e-05 -4.905972e-22
1.416990e-05 2.172663e-06 -1.121693e-06
1.416990e-05 -2.172663e-06 -1.121693e-06
-1.061150e-05 -9.244120e-06 5.649944e-07
-2.239511e-06 -1.671778e-05 1.803177e-06
4.252835e-06 -1.630950e-05 -1.809050e-06
1.370206e-05 2.835814e-06 -4.350761e-08
1.370206e-05 -2.835814e-06 -4.350761e-08
6.239452e-06 1.312871e-05 -1.372336e-06
6.239452e-06 -1.312871e-05 -1.372336e-06
1.852002e-06 1.774631e-05 -7.733379e-07
8.998995e-06 -1.558672e-05 -4.905972e-22
-4.827259e-06 1.716347e-05 8.043652e-07
1.780587e-05 8.383557e-07 -8.129597e-07
1.780587e-05 -8.383557e-07 -8.129597e-07
-1.277229e-05 -1.119085e-05 -1.743306e-06
-7.523738e-06 -1.274350e-05 -1.606598e-06
1.609628e-05 4.229014e-06 -1.895444e-06
1.609628e-05 -4.229014e-06 -1.895444e-06
1.761245e-05 2.739927e-06 8.158728e-07
1.761245e-05 -2.739927e-06 8.158728e-07
-1.508624e-05 -6.675574e-06 1.939027e-06
9.843967e-06 -1.506731e-05 -4.905972e-22
-3.376552e-06 1.389673e-05 1.068982e-06
-1.119110e-05 9.133130e-06 -1.268584e-06
-1.750959e-05 -3.509072e-06 7.362971e-07
1.324551e-06 1.779706e-05 7.646857e-07
-1.400952e-05 -1.012141e-05 -1.533784e-06
-5.444615e-06 1.698395e-05 7.907085e-07
-1.305249e-05 5.377168e-06 6.958328e-07
-6.760581e-06 1.398491e-05 1.949082e-06
1.090598e-05 1.060254e-05 1.842937e-06
1.090598e-05 -1.060254e-05 1.842937e-06
1.065904e-05 -1.450215e-05 -4.905972e-22
-1.164555e-05 -1.265921e-05 -1.599242e-06
-1.135678e-05 -1.292799e-05 1.594069e-06
-1.731715e-06 1.775930e-05 -7.712973e-07
-3.533146e-06 -1.462654e-05 1.764602e-06
9.328195e-06 1.068218e-05 -8.512112e-07
9.328195e-06 -1.068218e-05 -8.512112e-07
-1.235773e-05 -1.172201e-05 1.713132e-06
-1.012810e-05 1.202059e-05 -1.983851e-06
-3.909356e-06 1.744429e-05 -6.856706e-07
1.408864e-05 -6.469114e-06 -1.941625e-06
1.144175e-05 -1.389295e-05 -4.905972e-22
1.408864e-05 6.469114e-06 -1.941625e-06
-1.105371e-05 -1.399342e-05 -7.970750e-07
-1.001623e-05 1.403476e-05 1.567183e-06
-1.295839e-05 5.353594e-06 -3.382575e-07
4.208280e-06 -1.731922e-05 8.184171e-07
1.979174e-07 -1.420811e-05 9.078005e-07
-1.118739e-05 8.404237e-06 4.459108e-08
-1.453398e-05 -2.805161e-06 1.609157e-06
-1.452354e-05 7.103768e-06 -1.995548e-06
-1.651735e-05 -5.156875e-06 -1.516393e-06
1.218971e-05 -1.324155e-05 -4.905972e-22
1.222945e-05 9.564470e-06 1.947199e-06
1.222945e-05 -9.564470e-06 1.947199e-06
-1.521859e-05 8.191370e-06 -1.533924e-06
-1.670192e-05 -3.649948e-06 -1.673205e-06
-4.730875e-06 -1.620953e-05 -1.794020e-06
-1.189959e-06 1.401183e-05 5.260224e-07
4.710108e-07 -1.563610e-05 -1.971881e-06
-8.747957e-06 -1.131335e-05 -1.068884e-06
-1.380308e-05 -1.136774e-05 -6.729144e-07
3.794177e-06 -1.569821e-05 1.996990e-06
[...]
POINT_DATA 2077
VECTORS 10.000GHz_fone_imag double
-2.987374e+10 1.357503e+10 -4.945570e+08
3.207066e+10 5.076148e+10 -6.976482e+08
-5.323918e+10 1.313349e+10 1.996409e+09
-6.040068e+10 1.458771e+09 -2.059256e+09
-3.195702e+10 3.534244e+10 -4.214536e+08
1.767891e+10 -2.222976e+10 1.914544e+09
-1.783249e+10 -2.229718e+10 -2.047297e+09
3.807127e+10 2.038704e+10 -4.126098e+08
1.120259e+10 2.743347e+10 -5.596857e+07
-5.582405e+10 2.022516e+10 -2.188461e+09
3.341293e+10 -6.282203e+09 5.266844e+08
-3.021114e+10 1.116738e+10 1.133334e+08
4.134180e+10 8.324686e+09 -3.403724e+08
3.241151e+10 5.915788e+10 -7.135219e+09
-1.343730e+10 3.109834e+10 -7.142505e+07
4.451943e+10 4.285653e+10 -2.081586e+08
1.240188e+10 -2.986920e+10 1.681358e+09
-1.237093e+10 -2.981621e+10 -1.673127e+09
2.488552e+10 -2.191248e+10 2.344227e+09
-2.478758e+10 -2.189842e+10 -1.583029e+09
-9.146697e+08 4.563098e+10 1.922918e+09
-3.196077e+10 2.370583e+10 -3.468747e+09
-2.969653e+10 8.428294e+09 8.010226e+08
1.744963e+10 4.422842e+10 -9.186008e+08
3.317310e+10 9.412047e+09 -1.632498e+09
-6.087325e+09 -3.792075e+10 -7.912235e+08
5.135203e+09 -3.508884e+10 1.062367e+09
-3.021512e+10 -5.835991e+09 -2.430073e+09
-5.629949e+10 -2.362119e+10 -1.769513e+09
5.310993e+10 -2.316453e+10 1.503408e+09
-2.214479e+10 1.247240e+10 6.686815e+08
-3.826310e+10 -2.655073e+10 7.510326e+08
5.018548e+10 -2.444290e+10 1.939095e+09
-2.662214e+10 6.930381e+09 -1.563448e+08
-2.546845e+10 -1.065744e+10 -9.763675e+07
2.748448e+10 -1.116049e+10 9.181220e+08
-3.963270e+10 -4.273805e+09 1.906233e+09
-3.825521e+10 -3.990956e+10 2.518673e+08
3.885160e+10 -4.067071e+10 -2.484059e+08
2.691892e+10 4.831929e+10 -2.664949e+08
9.550030e+09 3.210131e+10 3.832216e+08
-1.376449e+10 2.334926e+10 8.034506e+08
3.380239e+10 -2.649341e+10 1.486930e+09
-3.396427e+10 -2.659740e+10 -2.750264e+09
-2.545353e+10 4.564846e+09 6.521532e+08
-4.308649e+10 4.385309e+10 -5.590014e+09
1.838406e+10 -2.834840e+10 -7.481023e+08
-1.840454e+10 -2.838467e+10 7.508958e+08
2.059789e+10 -5.345684e+10 -1.053628e+09
-2.056025e+10 -5.332836e+10 1.096036e+09
1.827253e+10 2.872971e+10 7.060715e+07
4.919491e+10 3.635256e+10 -3.139200e+08
2.455037e+10 2.005391e+10 7.507851e+08
2.977898e+10 -1.737802e+10 -1.550100e+09
-2.909507e+10 -1.367479e+10 2.793160e+08
-2.679155e+10 4.575917e+09 -4.005850e+08
3.356205e+10 -2.699076e+10 -1.091713e+09
-3.289720e+10 -2.709271e+10 6.486898e+08
5.379459e+10 -1.784431e+10 4.474166e+08
-5.436146e+10 -2.136047e+10 1.154373e+08
2.478361e+10 2.473005e+10 -8.743808e+08
-3.082516e+10 1.186793e+10 -4.432891e+08
1.560876e+10 2.632332e+10 -1.303768e+09
1.625485e+10 -3.645067e+10 1.296459e+09
-1.625451e+10 -3.656952e+10 -1.276722e+09
3.577108e+10 8.587580e+08 -1.235440e+09
-2.949877e+10 2.635143e+09 2.225083e+09
-8.532402e+09 3.122430e+10 1.678130e+09
-2.476693e+09 3.574884e+10 -1.555655e+09
3.784754e+10 1.644915e+10 1.009268e+09
1.591111e+10 3.206199e+10 1.107272e+09
-2.702937e+10 -1.750263e+10 9.945468e+07
2.846324e+10 -1.610031e+10 9.433456e+08
4.541951e+10 3.405902e+10 -5.214323e+08
9.084084e+09 -5.386983e+10 -1.264980e+08
-8.398158e+09 -5.329804e+10 5.663127e+07
-2.304102e+10 6.356919e+10 6.746595e+08
-2.637409e+10 6.593600e+08 3.109097e+08
2.506956e+10 2.379229e+10 -2.201391e+09
4.178481e+10 2.125777e+10 6.230932e+08
-3.878284e+10 9.510293e+09 -9.453583e+08
-7.977700e+10 1.623471e+10 6.768542e+08
3.248297e+10 3.101340e+08 -5.313032e+08
-3.955376e+10 -4.935330e+10 -6.186125e+09
3.966563e+10 -4.944856e+10 6.451972e+09
-1.026721e+10 -4.146336e+10 8.242629e+07
9.703744e+09 -3.993615e+10 -4.461023e+08
4.549825e+10 4.277976e+10 1.073269e+09
-3.826298e+10 -6.445665e+08 -6.913691e+08
4.068537e+10 5.180507e+10 -2.445674e+09
-3.715250e+10 1.744724e+10 -5.439770e+08
-2.771502e+10 4.654157e+10 5.231124e+08
-9.452251e+09 3.429865e+10 1.893736e+09
3.395880e+10 -1.377359e+10 -1.374001e+09
-3.054713e+10 -1.302432e+10 -5.351737e+08
-4.050509e+10 4.829229e+10 -1.510050e+09
-2.253119e+10 4.076601e+10 1.752151e+09
5.684997e+10 2.064107e+10 1.431902e+09
-2.683890e+10 -2.391769e+10 1.619226e+08
-3.315576e+10 -3.731723e+09 1.859957e+08
2.625716e+10 -2.294340e+10 -1.429276e+08
-1.584796e+10 4.267895e+10 7.909624e+08
2.399044e+10 1.419078e+10 -8.921493e+08
-5.564007e+10 4.034175e+10 1.737245e+09
7.544859e+09 2.506120e+10 -6.971485e+08
1.985826e+10 -3.014545e+10 3.933512e+08
-1.988016e+10 -3.020496e+10 -4.012061e+08
4.145738e+10 7.524157e+09 -5.742026e+08
2.364731e+10 3.126745e+10 1.452692e+06
2.558418e+10 2.078639e+10 2.009886e+08
-3.165435e+10 -4.703085e+09 3.827467e+08
-4.274175e+10 9.920732e+09 -2.107445e+09
2.635425e+10 -1.896126e+10 1.584684e+09
-2.965942e+10 -2.056181e+10 -1.454201e+09
-2.522906e+10 -6.209491e+10 -5.120815e+09
2.527892e+10 -6.223350e+10 5.093397e+09
2.460553e+10 4.366237e+09 -2.596015e+08
-2.609283e+09 -4.184131e+10 2.852205e+08
1.608420e+09 -5.128391e+10 -3.233959e+08
4.985960e+10 -3.424023e+10 1.670694e+08
-5.011720e+10 -3.786071e+10 3.997901e+09
-2.597724e+10 -4.848608e+09 -5.011922e+07
-2.230908e+10 3.179464e+10 1.173699e+09
-2.218321e+10 -2.621913e+10 -2.933929e+09
2.213379e+10 -2.612435e+10 2.909066e+09
-4.208706e+09 5.299511e+10 -1.920912e+09
-2.670454e+10 8.902538e+09 -5.247456e+08
5.161032e+09 -7.487645e+10 1.742766e+09
-9.715943e+09 -6.880166e+10 -3.832847e+09
-3.893970e+10 3.663776e+10 -7.219342e+08
-9.400314e+09 -3.122356e+10 -5.551335e+08
9.367089e+09 -3.115908e+10 6.090455e+08
-3.476379e+10 -9.056104e+09 -2.263596e+09
3.735471e+10 2.579152e+10 -2.773089e+08
2.637701e+10 -1.328838e+10 2.838169e+09
-3.401628e+10 -1.775189e+10 -9.078606e+08
-2.125206e+10 -2.707177e+10 -4.699956e+08
2.125121e+10 -2.704304e+10 4.596241e+08
-4.367682e+10 3.330177e+10 -4.976056e+08
-2.160996e+10 2.151476e+10 3.274328e+08
-3.166555e+10 3.868366e+10 -2.413628e+09
-2.558156e+10 5.277251e+10 6.957516e+08
-3.390445e+10 2.556325e+10 -1.093272e+09
-2.966406e+10 -9.030660e+09 4.549340e+08
-3.111125e+10 2.331871e+10 -3.363388e+09
2.870549e+10 -2.020206e+10 -1.839620e+09
-2.897201e+10 -1.995263e+10 1.065886e+09
-1.881244e+10 3.571382e+10 1.562743e+09
2.806073e+10 4.943889e+10 1.032483e+09
-4.863439e+10 -2.101972e+10 1.981432e+09
5.642650e+10 -2.180587e+10 3.362048e+09
-1.681927e+10 7.417932e+10 2.282669e+09
3.029048e+10 -3.302601e+10 1.476928e+09
-2.894420e+10 -3.410722e+10 -7.154103e+08
-3.522576e+10 -1.360461e+10 1.217544e+09
5.703279e+10 1.394246e+10 2.928521e+08
3.325817e+10 -2.042164e+10 -5.680252e+08
-4.020746e+10 -2.123916e+10 -3.034514e+08
-2.256899e+10 1.675485e+10 5.330489e+08
4.568126e+10 -7.052301e+09 1.105301e+09
-3.221055e+10 -3.500726e+09 -8.913286e+08
2.466964e+10 4.893687e+10 -4.716365e+08
-1.543732e+09 4.461240e+10 -2.125633e+09
4.314042e+09 -3.377902e+10 -3.429223e+09
-3.891034e+09 -3.505139e+10 1.585062e+09
-2.964413e+10 -1.386897e+10 3.671102e+06
-4.722225e+10 1.930830e+10 3.131065e+08
3.210224e+10 -1.257513e+10 -3.344533e+09
-1.078027e+10 4.999330e+10 6.689403e+08
-1.181082e+10 3.646915e+10 -6.053045e+08
8.047228e+09 -3.538934e+10 1.963855e+09
-8.999747e+09 -3.691064e+10 -2.190411e+09
-2.616053e+10 -8.175723e+09 -3.234906e+08
2.803251e+10 -7.638484e+09 3.272364e+08
-3.673817e+10 2.054383e+09 3.923348e+08
-3.228908e+10 2.460865e+09 -2.237328e+09
-2.497486e+10 -1.278698e+10 -2.753119e+08
4.630344e+09 -6.531238e+10 5.881199e+09
-2.838182e+09 -6.440802e+10 -7.889016e+09
-3.570165e+10 4.332650e+10 1.424675e+09
-3.469558e+10 3.977828e+09 6.884666e+08
-4.016637e+10 -1.090802e+10 1.190644e+09
1.642464e+10 -6.475635e+10 5.350614e+09
-1.599048e+10 -6.471260e+10 -5.790551e+09
5.562302e+10 -2.521214e+10 -1.702668e+09
-5.150812e+10 -2.446138e+10 3.046473e+09
2.927413e+10 -2.087080e+09 2.820788e+09
-2.426557e+10 -1.346346e+10 1.166612e+08
3.409290e+10 8.742086e+09 3.588454e+08
9.880247e+08 -3.921707e+10 -1.490433e+09
-6.564880e+08 -2.976704e+10 -3.523371e+08
-2.538890e+10 2.939415e+10 -6.486296e+08
-5.572771e+10 3.687067e+10 -4.237658e+08
1.185712e+10 -4.316872e+10 2.331932e+08
-1.266864e+10 -4.542326e+10 -2.958538e+08
4.002086e+09 -2.891357e+10 4.991454e+08
-3.451820e+09 -3.362814e+10 -7.599484e+08
-1.768449e+10 4.315758e+10 6.480012e+07
-2.892455e+10 -1.839119e+10 -1.082337e+09
5.684834e+10 1.581536e+10 1.914792e+09
2.969871e+10 3.901768e+10 -1.088593e+09
-7.194450e+09 3.034145e+10 -6.692767e+08
3.408246e+10 -4.374546e+09 2.589301e+09
-1.934032e+10 2.534265e+10 1.061087e+09
3.412574e+10 1.007426e+10 2.209228e+09
1.911286e+10 5.017027e+10 7.863969e+08
5.069346e+10 2.400924e+10 8.933319e+08
3.319599e+10 -3.245946e+10 -8.231401e+08
-3.300337e+10 -3.223316e+10 7.610577e+08
-2.242348e+10 -1.694589e+10 3.433110e+07
-2.652676e+10 2.693198e+10 -2.817354e+08
-2.460958e+10 2.518624e+10 2.500811e+09
2.942370e+10 1.655400e+09 -3.382070e+09
-6.342883e+10 1.095855e+10 2.053754e+08
5.653192e+10 -4.545990e+10 -4.433782e+09
-5.478403e+10 -4.645438e+10 1.026734e+09
-2.981783e+10 2.768628e+10 -2.094301e+09
4.225121e+10 3.618469e+10 -1.634596e+09
3.282378e+10 8.102942e+09 9.174992e+08
-2.270645e+10 -4.320479e+10 2.979746e+08
-2.324876e+10 -1.943525e+10 1.448556e+09
2.270224e+10 -4.320760e+10 -2.906698e+08
-3.115269e+10 2.394787e+10 1.207423e+09
3.651823e+10 2.473884e+10 1.076544e+08
2.511552e+10 6.685559e+10 1.720052e+09
-3.385573e+10 -5.863932e+09 2.857753e+09
-6.548938e+10 -1.055684e+09 -3.986779e+09
4.719626e+10 6.217044e+10 -5.200552e+09
-1.228642e+10 5.230351e+10 2.092240e+09
2.236429e+10 4.381254e+10 2.803104e+08
-1.166024e+10 3.275325e+10 -1.804265e+08
-1.965146e+10 -1.741541e+10 -1.076874e+09
2.584773e+10 -4.127557e+10 -1.213175e+09
-2.582334e+10 -4.128643e+10 1.223671e+09
1.481616e+10 2.954355e+10 -4.358790e+08
-5.611541e+09 4.022686e+10 -3.343258e+09
-3.086128e+10 1.091087e+10 -3.761545e+08
7.835496e+10 6.942399e+09 -4.570356e+09
-4.992447e+10 -3.668762e+08 -4.364247e+08
-4.544287e+10 3.434104e+10 9.718516e+08
-2.278774e+10 2.777865e+10 -5.303415e+08
-4.028942e+10 -1.051049e+10 -1.704000e+09
-2.447996e+10 -2.536082e+10 1.039599e+09
4.303943e+10 -1.666291e+10 2.056682e+09
-4.381291e+10 -2.561616e+10 -3.774852e+09
5.458500e+10 -3.457910e+10 3.912422e+09
1.798492e+10 2.591346e+10 -3.926709e+08
-3.300734e+10 1.711637e+10 1.990184e+09
5.136280e+10 2.202634e+10 5.291082e+08
2.300068e+09 6.770059e+10 -2.830210e+09
-3.469151e+10 2.188394e+09 -4.000431e+08
4.863160e+10 -4.107181e+10 1.510076e+09
-4.696548e+10 -3.996085e+10 -2.339932e+09
-2.110456e+10 -2.549368e+10 -2.235636e+07
-5.724889e+10 7.051706e+09 2.257525e+09
-6.357646e+10 3.023765e+10 3.086955e+09
9.237155e+09 3.871966e+10 -5.006351e+08
6.768484e+10 -5.154971e+09 -8.067232e+09
-3.370025e+10 -2.713041e+09 2.588511e+09
2.523778e+10 1.577190e+10 1.592791e+09
4.216836e+10 5.489909e+09 1.824708e+09
3.827694e+10 3.874812e+10 -2.216778e+09
2.376875e+10 -2.344944e+10 -4.780250e+08
-2.425626e+10 -2.301190e+10 8.529045e+08
-1.692594e+10 -2.135018e+10 1.618166e+09
5.916342e+10 -5.395149e+09 -2.240543e+09
5.804112e+10 -1.202705e+10 -4.074338e+07
-3.775737e+10 5.453235e+09 6.252999e+08
-6.894253e+10 -8.135883e+09 1.796214e+09
-2.345066e+10 5.754536e+10 2.724272e+09
-2.150663e+10 6.893980e+10 -3.357140e+08
4.138806e+10 2.850878e+10 -4.970274e+08
-5.296479e+10 -8.008567e+09 -3.440102e+09
3.372102e+10 7.058989e+09 -1.529333e+09
2.833011e+10 1.955468e+10 -1.496425e+08
-1.413004e+10 -2.163117e+10 -6.292427e+08
2.722558e+10 -1.836858e+10 5.842928e+08
-2.867900e+10 -1.921635e+10 -4.726948e+08
-5.186709e+10 4.201617e+10 1.848791e+09
-5.100378e+10 -2.620286e+09 1.664644e+08
-5.326753e+10 4.414997e+10 1.055523e+09
-3.017038e+10 -1.341044e+10 3.181718e+06
3.209677e+10 -1.668892e+10 -5.500450e+08
-1.133263e+09 5.248642e+10 -1.463980e+09
3.060398e+10 1.666882e+10 8.503772e+07
3.550689e+10 2.784769e+10 1.070516e+08
-1.506566e+10 -2.244999e+10 1.079945e+09
-3.587795e+10 4.377208e+09 5.590115e+07
1.318423e+10 -2.707184e+10 -1.289036e+09
-1.317954e+10 -2.707426e+10 1.288898e+09
7.412814e+10 1.704584e+10 2.674766e+09
-3.792044e+10 8.114595e+09 2.934157e+08
2.495743e+10 7.075966e+10 -3.079701e+09
-3.730685e+10 2.055895e+10 -6.567819e+08
7.379380e+10 -3.080741e+10 -4.812694e+09
-6.701753e+10 -2.851554e+10 6.843636e+08
-4.238972e+09 -5.957743e+10 5.397892e+08
-1.693484e+10 -3.096500e+10 6.180447e+08
4.272510e+09 -4.373819e+10 -1.808229e+09
-4.402734e+09 -4.309290e+10 1.507589e+09
1.167989e+09 -3.955556e+10 -3.216417e+09
-3.948999e+10 6.540700e+10 -1.084981e+09
-4.482028e+09 -7.091740e+10 4.717664e+09
6.140187e+09 -6.588085e+10 -5.062948e+09
-3.808857e+10 3.561266e+10 1.357771e+09
6.235603e+10 -4.751733e+10 -1.300815e+09
-6.166179e+10 -4.623263e+10 -2.147476e+07
-5.470369e+10 8.412876e+09 -1.965057e+09
-1.544425e+10 -3.199791e+10 -1.457001e+09
-1.635576e+10 -4.465329e+10 7.724733e+08
1.599493e+10 -4.376342e+10 -6.402827e+08
-5.739848e+10 2.740714e+10 9.868733e+08
-1.804397e+10 5.991717e+10 1.851310e+08
-7.512051e+09 5.325536e+10 -1.050066e+09
-5.892610e+10 -3.150354e+09 4.419977e+09
-3.094704e+10 6.422980e+10 6.034702e+09
-1.689126e+10 -2.705636e+10 -2.882695e+09
1.689018e+10 -2.704381e+10 2.892244e+09
1.874629e+10 -2.762156e+10 -2.540988e+09
-9.421227e+09 -2.729261e+10 1.000972e+09
-1.875708e+10 -2.763840e+10 2.546980e+09
3.986206e+10 1.254352e+10 -9.195901e+08
1.132792e+10 -3.171677e+10 -3.862042e+09
-1.092354e+10 -3.122091e+10 3.757425e+09
-1.110011e+10 -4.151473e+10 1.529649e+09
1.082539e+10 -4.033729e+10 -1.108299e+09
5.185384e+10 1.829776e+10 -2.555857e+09
9.649844e+09 5.181716e+10 -5.386740e+08
3.606740e+10 -4.946068e+09 1.100634e+09
2.712007e+10 4.688822e+10 7.537965e+08
-9.927625e+09 -2.625678e+10 -2.718024e+08
1.382982e+10 -6.057508e+10 4.431504e+09
-1.382718e+10 -6.021008e+10 -4.329782e+09
7.185387e+10 2.499725e+08 2.730740e+09
6.685702e+10 1.561868e+10 -9.085791e+09
3.629129e+10 4.195692e+10 3.076795e+08
-3.451637e+10 7.026499e+09 3.927925e+08
2.820668e+10 1.506345e+10 -4.265248e+08
-1.062365e+09 3.199518e+10 -3.093075e+09
5.685378e+09 3.980988e+10 -5.953276e+07
-1.838303e+10 -3.784574e+10 3.169419e+09
-1.032126e+10 -3.769469e+10 8.414562e+08
1.838963e+10 -3.783069e+10 -3.163482e+09
-6.035716e+10 1.233315e+10 -1.276745e+09
-4.515699e+10 2.390966e+10 -1.196241e+09
3.889396e+10 2.827776e+10 -6.592844e+08
1.248358e+10 4.651090e+10 7.838471e+08
-4.634030e+10 -3.251820e+10 2.296617e+09
5.476225e+10 -3.816065e+10 -7.102054e+08
6.459579e+09 3.467283e+10 5.134873e+08
-3.653463e+10 -8.712739e+09 -2.533737e+09
5.193900e+10 5.866914e+09 1.972170e+09
-8.648081e+09 -3.773139e+10 -8.037690e+08
-6.716476e+09 4.230478e+10 -2.669784e+09
2.792769e+10 -4.580828e+10 1.252423e+09
-2.788412e+10 -4.579280e+10 -1.256431e+09
4.469267e+09 -5.383511e+10 4.003293e+08
-4.751846e+09 -6.732655e+10 -6.541165e+08
-5.071327e+10 3.204933e+10 -1.084031e+09
3.330817e+10 6.183673e+09 1.305421e+08
-2.638602e+10 -5.357408e+10 -3.291898e+08
2.638872e+10 -5.357766e+10 3.289189e+08
2.643775e+10 1.094267e+10 1.726273e+07
-2.757043e+09 -2.899900e+10 1.219351e+08
6.631869e+10 2.564036e+10 5.964740e+08
2.943302e+10 -8.171608e+09 3.106816e+07
-2.547761e+10 4.668727e+10 2.199978e+07
-7.596018e+10 -2.006507e+10 5.094856e+09
1.302114e+10 -3.935991e+10 -1.588154e+09
-1.304752e+10 -3.937914e+10 1.591057e+09
-3.300540e+10 2.655925e+10 -7.360626e+08
5.538073e+09 3.415846e+10 -9.052319e+08
-3.111404e+10 1.344263e+10 6.583107e+07
2.550994e+10 -4.634601e+10 6.885583e+08
-3.471170e+09 -2.670153e+10 -3.250070e+08
-2.550323e+10 -4.635150e+10 -6.842012e+08
5.708866e+10 -1.141852e+10 7.155733e+08
-6.912053e+10 -1.186389e+10 -2.259432e+09
5.959885e+09 5.680384e+10 -2.022743e+09
-1.801910e+10 -3.203046e+10 -2.919057e+09
1.801095e+10 -3.200967e+10 2.920719e+09
-1.635961e+10 4.508682e+10 2.552630e+08
3.345145e+10 5.974246e+09 1.298241e+09
7.655597e+10 1.070631e+10 -2.738315e+09
-9.996159e+09 3.872624e+10 -1.188080e+09
-8.322314e+08 -2.982027e+10 -4.176060e+09
-5.754573e+10 3.230173e+10 -2.594716e+09
3.033991e+10 9.553790e+08 2.450882e+09
2.297674e+10 -6.338518e+10 -4.592804e+09
-2.297537e+10 -6.329102e+10 4.590650e+09
3.626208e+10 1.373765e+10 1.986731e+09
1.917708e+10 -5.905928e+10 -8.420270e+08
-1.914853e+10 -5.901822e+10 8.339424e+08
-2.737997e+09 -3.915477e+10 -1.415470e+09
4.015689e+09 -3.986422e+10 -2.217692e+08
-5.967939e+10 -2.259226e+10 1.368752e+09
2.116135e+09 -3.455972e+10 -3.039391e+09
5.647097e+10 -1.808443e+10 -2.707684e+09
5.776649e+10 1.148389e+10 -3.552964e+08
-2.604790e+10 -2.594581e+10 2.029190e+09
2.365632e+10 -2.274655e+10 -1.110191e+09
-2.198890e+10 5.965508e+10 1.379558e+09
7.745630e+10 -2.142328e+10 1.459801e+09
3.632931e+10 3.452712e+10 1.207496e+09
5.045165e+10 -1.326236e+10 -5.688344e+08
1.861832e+10 2.988915e+10 2.070436e+09
-4.612213e+10 3.184189e+09 -8.284237e+08
3.899565e+08 -3.408418e+10 9.739747e+08
-5.204026e+10 -1.290340e+10 -1.999261e+08
-3.133021e+10 2.142450e+10 -1.368718e+09
-2.193662e+09 -4.895208e+10 -3.720266e+08
-5.678336e+08 -4.342248e+10 9.473209e+08
6.306539e+09 5.981499e+10 1.525836e+09
3.572628e+10 1.461943e+10 -5.553374e+08
-4.045504e+10 4.784703e+10 6.867715e+08
-4.755033e+10 3.419228e+10 2.486758e+09
2.747629e+09 4.000814e+10 1.134809e+09
1.233509e+10 3.692863e+10 7.915097e+08
-4.480327e+09 -5.071695e+10 2.926303e+09
-7.446463e+08 -3.617804e+10 -1.831073e+09
8.713906e+08 -2.894477e+10 -2.910449e+08
4.458235e+10 -1.168922e+10 -3.433737e+09
-4.312026e+10 -1.040481e+10 2.393879e+09
-5.558097e+10 2.112974e+10 -3.630784e+09
2.881339e+10 4.402960e+10 7.174613e+08
8.712463e+09 -3.007688e+10 -6.342957e+08
-9.278454e+09 -3.001982e+10 3.462620e+08
2.064345e+10 2.962975e+10 3.841162e+07
2.935584e+10 -1.283653e+10 4.958708e+08
3.324140e+08 -4.777293e+10 4.404586e+08
-2.932357e+10 -1.040048e+10 -1.094627e+09
1.792089e+10 4.972372e+10 1.383214e+09
-2.017505e+10 -2.447242e+10 -1.441008e+09
2.013588e+10 -2.440979e+10 1.426734e+09
-6.040992e+10 4.361711e+10 -9.828224e+08
2.492811e+10 -1.166437e+10 -5.420696e+08
-3.314429e+10 -1.491735e+10 4.611883e+08
-7.779969e+10 7.341905e+09 -4.958801e+09
4.400747e+10 4.810325e+10 -7.994689e+09
-4.924789e+10 2.495068e+10 -3.649727e+08
8.175004e+08 -6.921623e+10 -1.681980e+09
-1.577933e+10 3.224566e+10 1.834671e+09
-5.921623e+10 1.026528e+10 6.439165e+08
-1.764016e+10 6.455407e+10 3.501254e+09
2.337522e+10 1.775660e+10 -1.044943e+09
5.509825e+10 1.148553e+10 -1.301274e+09
8.889261e+09 7.616340e+10 -7.431186e+09
-1.778676e+10 -4.958301e+10 -9.140003e+08
1.778251e+10 -4.965263e+10 8.995322e+08
-4.837540e+10 -2.455173e+10 1.055409e+09
4.414060e+10 -2.746928e+10 -2.988470e+08
1.075965e+09 -6.056420e+10 1.193297e+09
4.406718e+10 2.194151e+10 3.011116e+09
-1.003974e+09 3.094895e+10 1.554099e+09
1.403924e+10 3.662773e+10 8.610101e+08
-3.709555e+10 -2.567334e+09 8.411044e+08
8.082149e+08 2.475421e+10 1.189378e+08
4.183048e+10 1.052609e+10 7.154028e+08
2.423641e+10 6.118286e+10 -1.103427e+09
-5.219630e+10 7.658935e+09 -5.272785e+08
3.787878e+10 -7.020358e+10 1.399364e+09
-3.787737e+10 -7.020813e+10 -1.395295e+09
-1.274056e+09 -7.059246e+10 6.337781e+09
-2.590867e+09 7.092720e+10 5.768093e+08
1.289750e+10 -5.744014e+10 -7.137103e+08
-1.306623e+10 -5.722891e+10 9.310428e+08
-5.005676e+10 -4.494335e+10 2.923675e+09
4.972233e+10 -4.529991e+10 -2.349508e+09
2.507571e+10 1.944246e+10 5.523923e+08
3.214513e+10 -5.939958e+09 1.223548e+09
1.397852e+10 2.398153e+10 2.969035e+08
5.782188e+10 3.209634e+10 -1.495042e+09
-2.385562e+10 -4.210926e+10 -8.575303e+08
3.331923e+09 -6.770186e+10 -4.931771e+09
2.386449e+10 -4.209901e+10 8.633177e+08
-6.598445e+10 1.795939e+10 4.791131e+09
-4.225634e+10 3.925870e+10 3.332381e+09
-1.280339e+10 6.459690e+10 -1.857399e+09
3.508709e+10 1.463040e+10 1.680248e+09
2.376898e+09 5.484313e+10 -2.082618e+09
-5.643438e+10 1.316884e+10 1.876017e+08
-1.283543e+10 2.761394e+10 2.240936e+09
-2.790951e+10 -5.055160e+10 8.037085e+08
2.792268e+10 -5.057397e+10 -8.020970e+08
-1.903629e+09 -5.107653e+10 -1.260571e+08
-4.109310e+10 -1.241879e+09 3.251167e+09
-5.061575e+10 -3.403110e+10 1.223614e+09
4.186036e+10 -3.049404e+10 -7.113737e+08
-2.660739e+10 3.261211e+10 -7.795009e+08
2.271632e+10 2.606129e+10 -7.830810e+08
-1.756288e+10 2.670707e+10 3.777570e+08