# vtk DataFile Version 2.0
Electric current density generated by TTH
ASCII
DATASET UNSTRUCTURED_GRID
POINTS 8473 double
2.779470e-05 2.724747e-05 -1.508962e-22
-2.067707e-05 3.206204e-05 5.961831e-07
-1.939091e-05 3.252726e-05 4.333137e-07
-1.869804e-05 3.328465e-05 6.023122e-07
-1.766225e-05 3.378869e-05 5.891913e-07
-1.663900e-05 3.435062e-05 6.003788e-07
-1.570833e-05 3.478825e-05 6.008344e-07
-1.459373e-05 3.523239e-05 5.917951e-07
-1.353976e-05 3.563843e-05 5.883511e-07
-1.254380e-05 3.605009e-05 6.007813e-07
-3.540154e-05 -1.436540e-05 6.076823e-07
2.752244e-05 2.752244e-05 -1.508962e-22
-3.350040e-05 -1.833391e-05 6.047885e-07
-3.314842e-05 1.897958e-05 6.063399e-07
-3.762123e-05 6.561413e-06 6.047885e-07
1.423040e-05 3.550781e-05 -6.137698e-07
-1.176813e-05 -3.647560e-05 -6.157407e-07
3.005046e-05 -2.339346e-05 -5.739383e-07
2.952434e-05 -2.346735e-05 1.713448e-07
3.005046e-05 2.339346e-05 5.739383e-07
2.959770e-05 2.338201e-05 -1.861658e-07
-1.329586e-05 -3.585253e-05 -6.123135e-07
2.724747e-05 2.779470e-05 -1.508962e-22
-7.778400e-06 -3.746339e-05 6.144959e-07
-6.687284e-06 -3.753040e-05 5.876466e-07
3.768200e-05 -3.487470e-06 4.058646e-07
3.768200e-05 3.487470e-06 -4.058646e-07
2.499532e-05 2.874024e-05 -5.763747e-07
2.611902e-05 2.745450e-05 4.575384e-07
2.356604e-05 2.967510e-05 4.577490e-07
-9.138573e-06 -3.678538e-05 -4.659881e-07
2.931490e-05 2.473640e-05 -6.140165e-07
1.467902e-05 -3.503639e-05 -5.268170e-07
2.696980e-05 2.806421e-05 -1.508962e-22
3.792500e-05 5.188062e-06 6.154294e-07
3.742932e-05 6.008387e-06 4.702461e-07
3.792500e-05 -5.188062e-06 -6.154294e-07
3.742932e-05 -6.008387e-06 -4.702461e-07
2.042594e-05 3.202802e-05 5.267482e-07
7.816780e-06 -3.704481e-05 -4.250142e-07
-2.601758e-06 -3.777103e-05 -4.250165e-07
2.341919e-05 -2.974843e-05 -4.251225e-07
2.621193e-05 -2.732006e-05 -4.254494e-07
-1.740860e-05 -3.398469e-05 -6.037744e-07
2.668946e-05 2.833095e-05 -1.508962e-22
-1.663644e-05 -3.447577e-05 -6.155039e-07
3.565932e-05 1.290280e-05 4.812507e-07
3.622864e-05 1.201770e-05 6.007323e-07
3.565932e-05 -1.290280e-05 -4.812507e-07
3.622864e-05 -1.201770e-05 -6.007323e-07
2.854668e-05 -2.488301e-05 -4.339399e-07
-3.421092e-05 -1.588140e-05 1.803648e-07
-2.763721e-05 2.566691e-05 1.803648e-07
-3.273583e-05 -1.873422e-05 1.803648e-07
-5.338082e-06 3.733779e-05 1.803648e-07
2.640649e-05 2.859488e-05 -1.508962e-22
-3.235688e-05 1.938138e-05 1.803648e-07
-3.608339e-05 -1.098155e-05 1.803648e-07
-3.132612e-05 -2.100617e-05 1.794509e-07
-3.523244e-05 -1.346407e-05 1.803648e-07
-3.702643e-05 7.186739e-06 1.803648e-07
-3.771058e-05 -6.091809e-07 1.738999e-07
-3.019504e-05 -2.259961e-05 1.749491e-07
-3.360919e-05 1.711397e-05 1.741804e-07
-2.762630e-06 3.761427e-05 1.741804e-07
7.679667e-06 3.692544e-05 1.741704e-07
2.612090e-05 2.885599e-05 -1.508962e-22
-3.382807e-06 3.779267e-05 -4.979497e-07
-3.353349e-05 1.775484e-05 -4.979497e-07
-3.794376e-05 -7.741955e-09 -4.979497e-07
-3.077944e-05 -2.220834e-05 -5.059693e-07
7.132379e-06 3.726740e-05 -4.979536e-07
-1.249371e-05 -3.575458e-05 -4.392673e-07
3.524956e-05 -1.466191e-05 6.023651e-07
3.524956e-05 1.466191e-05 -6.023651e-07
3.736195e-05 -7.716460e-06 -5.959897e-07
3.736195e-05 7.716460e-06 5.959897e-07
2.583274e-05 2.911425e-05 -1.508962e-22
3.756044e-05 -6.955395e-06 -6.066252e-07
3.756044e-05 6.955395e-06 6.066252e-07
-3.645214e-05 -1.044945e-05 -4.799805e-07
-3.568742e-05 -1.283328e-05 -4.835077e-07
-3.710320e-05 7.829552e-06 -4.799805e-07
-2.736271e-05 2.625322e-05 -4.799805e-07
-3.220986e-05 2.001185e-05 -4.799805e-07
-5.976287e-06 3.744641e-05 -4.799805e-07
-3.253593e-05 -1.948585e-05 -4.835077e-07
-3.470866e-05 -1.528378e-05 -4.835077e-07
2.554202e-05 2.936963e-05 -1.508962e-22
9.839124e-06 -3.683973e-05 -5.905471e-07
2.196532e-05 -3.116887e-05 -5.905479e-07
-4.632975e-06 -3.784852e-05 -5.905519e-07
2.781932e-05 -2.608252e-05 -5.914694e-07
3.354430e-05 1.850242e-05 -6.160764e-07
3.398269e-05 1.729125e-05 -5.899074e-07
3.354430e-05 -1.850242e-05 6.160764e-07
3.398269e-05 -1.729125e-05 5.899074e-07
3.108669e-05 2.225692e-05 -6.116609e-07
3.108669e-05 -2.225692e-05 6.116609e-07
2.524878e-05 2.962210e-05 -1.508962e-22
-3.535447e-05 -1.480277e-05 -6.156947e-07
-2.703152e-05 2.716512e-05 -6.158622e-07
-3.251678e-05 -2.029088e-05 -6.156947e-07
-3.207487e-05 2.097259e-05 -6.158622e-07
-6.914336e-06 3.769401e-05 -6.158622e-07
-3.730389e-05 8.778745e-06 -6.158622e-07
-3.629822e-05 -1.230853e-05 -6.156947e-07
-3.707381e-05 -9.704622e-06 -6.158622e-07
9.436032e-06 -3.673369e-05 4.847268e-07
2.215222e-05 -3.077985e-05 4.817856e-07
2.495304e-05 2.987165e-05 -1.508962e-22
-4.286045e-06 -3.767395e-05 4.772830e-07
2.741824e-05 -2.621115e-05 4.886299e-07
3.534096e-05 1.438910e-05 5.978960e-07
3.534096e-05 -1.438910e-05 -5.978960e-07
3.588458e-05 1.311350e-05 -6.077545e-07
3.588458e-05 -1.311350e-05 6.077545e-07
-3.833293e-05 8.236293e-07 -6.150716e-07
-3.155708e-05 -2.177884e-05 -6.150147e-07
-3.348821e-05 1.867167e-05 -6.150716e-07
-4.245627e-06 3.810599e-05 -6.150716e-07
2.465483e-05 3.011825e-05 -1.508962e-22
6.388867e-06 3.780574e-05 -6.150716e-07
-4.548517e-06 3.741534e-05 -2.073399e-08
-3.581916e-05 -1.172962e-05 -2.073399e-08
-3.491683e-05 -1.419195e-05 -2.073399e-08
-2.814374e-05 2.507183e-05 3.970619e-08
-3.176537e-05 -2.028688e-05 -2.073399e-08
-3.384546e-05 -1.658558e-05 -2.073399e-08
-3.317183e-05 -1.789444e-05 -1.336833e-08
-3.273415e-05 1.868346e-05 -2.073399e-08
-3.714311e-05 6.402002e-06 -2.073399e-08
2.435419e-05 3.036187e-05 -1.508962e-22
1.110409e-05 3.601904e-05 4.082751e-08
7.238051e-07 3.768760e-05 7.092467e-08
-1.795276e-05 3.314480e-05 7.092467e-08
-2.796275e-05 -2.527773e-05 7.092467e-08
-3.502699e-05 1.392800e-05 7.092467e-08
-3.747216e-05 -4.088538e-06 7.092467e-08
3.806773e-05 -2.446169e-06 5.948641e-07
3.806773e-05 2.446169e-06 -5.948641e-07
2.183669e-05 3.125424e-05 -5.893428e-07
2.271133e-05 3.063152e-05 -5.910161e-07
2.405114e-05 3.060249e-05 -1.508962e-22
1.320253e-05 -3.576910e-05 5.896098e-07
2.937335e-05 -2.478572e-05 -6.028775e-07
2.940274e-05 2.475689e-05 6.020464e-07
2.836474e-05 2.593391e-05 6.028775e-07
3.862203e-05 8.282863e-07 -5.237679e-07
3.862203e-05 -8.282863e-07 5.237679e-07
2.329745e-05 -3.057106e-05 -6.022258e-07
8.526303e-06 -3.747884e-05 -6.022252e-07
-3.244203e-06 -3.829930e-05 -6.022251e-07
2.704330e-05 -2.731350e-05 -6.022069e-07
2.374572e-05 3.084008e-05 -1.508962e-22
2.244810e-05 3.111780e-05 6.128325e-07
2.517863e-05 2.895183e-05 6.129160e-07
3.031529e-05 -2.341134e-05 6.160694e-07
3.031944e-05 2.341012e-05 -6.160793e-07
2.057302e-05 3.224592e-05 -6.134643e-07
1.477491e-05 -3.527833e-05 6.132300e-07
3.731652e-05 8.614575e-06 -6.160207e-07
3.731652e-05 -8.614575e-06 6.160207e-07
-2.197878e-05 -3.062532e-05 8.138361e-08
2.120056e-05 -3.152431e-05 -5.285900e-07
2.343795e-05 3.107463e-05 -1.508962e-22
3.458545e-05 1.596496e-05 -5.776822e-07
3.458545e-05 -1.596496e-05 5.776822e-07
3.407467e-05 -1.739112e-05 -6.140183e-07
3.472936e-05 -1.604409e-05 -6.140256e-07
3.407467e-05 1.739112e-05 6.140183e-07
3.472936e-05 1.604409e-05 6.140256e-07
1.253015e-05 -3.631558e-05 6.061892e-07
1.574784e-05 3.496210e-05 -6.148751e-07
-2.406950e-05 -2.963888e-05 -6.031973e-07
-2.908404e-05 2.466492e-05 -5.915725e-07
2.312786e-05 3.130610e-05 -1.508962e-22
-1.180107e-05 3.631169e-05 -6.031973e-07
-2.311050e-05 3.039258e-05 -6.031973e-07
-3.772529e-05 5.571528e-06 -5.915725e-07
3.692139e-05 1.035349e-05 6.148414e-07
3.692139e-05 -1.035349e-05 -6.148414e-07
2.729899e-05 2.692270e-05 -6.150903e-07
-2.324151e-05 -2.982316e-05 -3.645752e-07
-1.096220e-05 3.618590e-05 -3.645752e-07
-2.348525e-05 2.963160e-05 -3.645752e-07
1.467943e-05 3.543928e-05 6.138246e-07
2.281548e-05 3.153448e-05 -1.508962e-22
1.518824e-05 3.468434e-05 4.286726e-07
1.595700e-05 3.485752e-05 6.153606e-07
-1.642365e-05 -3.466915e-05 6.135274e-07
-1.503234e-05 -3.529468e-05 6.135274e-07
1.685522e-05 3.371280e-05 -3.638574e-08
1.706876e-05 3.413003e-05 -5.984507e-07
3.580034e-05 1.395150e-05 -6.050173e-07
3.580034e-05 -1.395150e-05 6.050173e-07
-2.869878e-05 -2.443290e-05 1.633317e-08
-1.695791e-05 3.366030e-05 1.633317e-08
2.250085e-05 3.175975e-05 -1.508962e-22
-3.459397e-05 1.496142e-05 1.633317e-08
-3.757326e-05 -2.972632e-06 1.633317e-08
-3.966707e-07 3.768858e-05 1.633317e-08
9.957881e-06 3.635253e-05 3.950770e-08
2.790385e-05 2.598436e-05 -5.899121e-07
2.853931e-05 2.533799e-05 -5.994118e-07
3.040769e-05 2.266550e-05 4.842086e-07
3.040769e-05 -2.266550e-05 -4.842086e-07
-1.746135e-05 -3.418576e-05 6.107979e-07
1.597106e-05 -3.415234e-05 -1.198302e-07
2.218400e-05 3.198187e-05 -1.508962e-22
3.208640e-05 -2.109509e-05 6.089890e-07
3.208640e-05 2.109509e-05 -6.089890e-07
-3.656386e-05 -9.292054e-06 -2.065090e-07
-3.672513e-05 -8.548916e-06 1.419213e-07
-3.666014e-05 8.904612e-06 -2.065090e-07
-3.645479e-05 9.636796e-06 1.419213e-07
-2.641848e-05 2.693180e-05 -2.065090e-07
-2.585724e-05 2.744490e-05 1.419213e-07
-3.142678e-05 2.087140e-05 -2.065090e-07
-3.098418e-05 2.148954e-05 1.419387e-07
2.186495e-05 3.220083e-05 -1.508962e-22
-7.072034e-06 3.705731e-05 -2.065090e-07
-7.813517e-06 3.688860e-05 1.419213e-07
5.991160e-06 3.724937e-05 -2.120701e-07
5.235398e-06 3.734041e-05 1.359664e-07
-3.771038e-05 1.044706e-06 -2.029856e-07
3.479568e-05 1.448595e-05 1.414237e-08
3.479568e-05 -1.448595e-05 -1.414237e-08
3.151517e-05 -2.209311e-05 -5.888059e-07
3.151517e-05 2.209311e-05 5.888059e-07
-2.415663e-05 -2.897524e-05 -2.008163e-07
2.154374e-05 3.241662e-05 -1.508962e-22
-2.476107e-05 -2.847282e-05 2.260782e-07
-1.209872e-05 3.571384e-05 -1.440165e-07
-1.290247e-05 3.545263e-05 2.103769e-07
-2.908312e-05 2.400520e-05 -1.556606e-07
-2.968779e-05 2.328087e-05 2.104037e-07
-2.244507e-05 3.032040e-05 -2.008163e-07
-2.181402e-05 3.078896e-05 2.260782e-07
-3.739081e-05 4.904268e-06 -1.580357e-07
-3.750794e-05 4.119045e-06 2.260782e-07
-1.184530e-05 3.657978e-05 5.991774e-07
2.122041e-05 3.262919e-05 -1.508962e-22
-3.844294e-05 5.339993e-07 5.999362e-07
[...]
POINT_DATA 8473
VECTORS 10.000GHz_fone_imag double
4.173932e+10 -4.219424e+10 -3.677019e+08
5.040821e+10 3.253883e+10 -1.013487e+09
5.305452e+10 3.281149e+10 -1.998444e+08
5.248737e+10 2.920568e+10 1.161355e+09
5.414338e+10 2.849928e+10 -9.548204e+08
5.435167e+10 2.885688e+10 1.075220e+09
5.484338e+10 2.527939e+10 -6.981063e+08
5.845474e+10 2.458679e+10 6.040033e+07
5.719816e+10 2.245929e+10 1.304553e+08
5.759624e+10 2.085968e+10 2.943554e+08
-2.229300e+10 5.631757e+10 -2.506375e+08
4.047660e+10 -4.108518e+10 -4.432805e+08
-3.015021e+10 5.274498e+10 -8.536133e+08
3.102551e+10 5.402153e+10 -2.610688e+08
1.103284e+10 6.025902e+10 4.284894e+07
5.750839e+10 -2.215187e+10 1.153931e+09
-5.728895e+10 1.882400e+10 -4.114784e+08
-3.720958e+10 -4.888802e+10 9.541865e+08
-3.921853e+10 -5.123534e+10 9.333666e+07
3.707457e+10 -4.814533e+10 2.783474e+08
3.982992e+10 -5.115221e+10 5.593354e+08
-5.848830e+10 2.093152e+10 -5.442244e+08
4.022132e+10 -4.072436e+10 -2.291665e+08
-6.049277e+10 1.095300e+10 -5.059396e+08
-5.977010e+10 1.204149e+10 -1.296980e+08
-5.347751e+09 -6.370436e+10 5.975483e+08
5.732004e+09 -6.256561e+10 3.230943e+08
4.725799e+10 -4.220678e+10 -6.992471e+08
4.458274e+10 -4.246587e+10 2.815287e+07
4.871227e+10 -3.896165e+10 -3.670691e+08
-6.054880e+10 1.512520e+10 -4.143007e+08
4.094016e+10 -4.717385e+10 -6.169884e+08
-5.623548e+10 -2.319409e+10 3.776975e+08
4.430127e+10 -4.118990e+10 3.115836e+08
7.741737e+09 -6.044153e+10 -1.423656e+08
1.210407e+10 -6.574552e+10 8.136437e+08
-8.514497e+09 -6.211528e+10 4.061522e+08
-9.395706e+09 -6.183734e+10 3.886733e+08
5.199999e+10 -3.473420e+10 -2.723640e+08
-6.031402e+10 -1.487000e+10 6.051178e+08
-6.311669e+10 5.785909e+09 9.744913e+07
-5.073280e+10 -3.798857e+10 2.364025e+08
-4.464795e+10 -4.508186e+10 -2.431199e+08
-5.700412e+10 2.648762e+10 5.487642e+08
4.407361e+10 -4.083695e+10 -2.024575e+09
-5.522127e+10 2.617649e+10 -1.848328e+09
2.071372e+10 -5.858481e+10 1.562281e+09
1.955525e+10 -5.701101e+10 -8.059253e+08
-2.085962e+10 -5.866772e+10 1.873337e+09
-2.007405e+10 -5.867721e+10 8.316997e+08
-4.153888e+10 -4.734006e+10 8.387333e+07
-2.771173e+10 5.945416e+10 1.008182e+09
4.432270e+10 4.832546e+10 2.095177e+09
-3.233966e+10 5.625167e+10 -7.238956e+08
6.512444e+10 8.975087e+09 -1.745599e+09
4.177108e+10 -3.872375e+10 -2.491363e+08
3.303482e+10 5.578620e+10 1.741091e+09
-1.912839e+10 6.202268e+10 1.351723e+09
-3.530974e+10 5.366491e+10 4.483604e+08
-2.379517e+10 6.144462e+10 1.508185e+09
1.210153e+10 6.415957e+10 7.998906e+08
-1.688555e+09 6.386658e+10 6.304905e+08
-3.980139e+10 5.142956e+10 5.309010e+08
2.831180e+10 5.746225e+10 4.955228e+08
6.390050e+10 3.859967e+09 -6.020812e+08
6.216425e+10 -1.454663e+10 -1.298389e+09
4.234659e+10 -3.915689e+10 7.751880e+08
6.233226e+10 6.437364e+09 1.364629e+09
2.944168e+10 5.545547e+10 -1.961376e+09
7.624653e+08 6.266072e+10 -1.875034e+09
-3.637255e+10 5.041241e+10 -1.361830e+09
6.196484e+10 -1.118944e+10 7.707834e+08
-6.117382e+10 1.886089e+10 -5.508880e+08
-2.516477e+10 -5.526912e+10 8.987431e+08
2.382087e+10 -5.727329e+10 1.820212e+08
-1.154973e+10 -6.054532e+10 -1.124887e+09
1.264313e+10 -6.115202e+10 1.271097e+08
4.479470e+10 -3.831157e+10 4.704931e+08
-1.017291e+10 -6.017101e+10 -9.721952e+08
1.006203e+10 -6.007108e+10 -9.933763e+08
-1.677385e+10 6.039267e+10 -2.188829e+09
-2.083520e+10 5.794950e+10 -5.807832e+08
1.357067e+10 6.088948e+10 -1.675319e+09
4.387145e+10 4.546609e+10 -1.675167e+09
3.344435e+10 5.302145e+10 -1.688468e+09
6.213490e+10 1.025288e+10 1.677824e+09
-3.257850e+10 5.358004e+10 2.918217e+08
-2.495406e+10 5.660541e+10 -5.150947e+08
4.463616e+10 -3.943914e+10 1.066247e+07
-6.125630e+10 -1.873392e+10 -5.968830e+08
-5.182426e+10 -3.540017e+10 9.088349e+07
-6.227716e+10 8.386258e+09 1.601277e+09
-4.151453e+10 -4.640400e+10 5.375777e+08
2.816804e+10 -5.555905e+10 -9.457900e+08
2.701088e+10 -5.374796e+10 -8.866345e+08
-2.843889e+10 -5.579317e+10 -9.361267e+08
-2.736565e+10 -5.755262e+10 -9.468829e+08
3.514460e+10 -4.918145e+10 -8.118271e+08
-3.593194e+10 -4.867154e+10 -7.507783e+08
4.410165e+10 -3.894791e+10 1.304831e+09
-2.500603e+10 5.530465e+10 -1.413948e+08
4.282053e+10 4.236574e+10 8.571775e+08
-3.227977e+10 5.128371e+10 -5.117405e+08
3.324944e+10 5.020792e+10 8.494547e+08
5.944595e+10 1.113606e+10 -8.233111e+08
1.404589e+10 5.838695e+10 7.509122e+08
-2.110303e+10 5.685148e+10 -1.396820e+08
-1.517557e+10 5.834964e+10 -3.510226e+08
-5.885399e+10 -1.506650e+10 -2.634014e+08
-4.920882e+10 -3.547163e+10 -1.928604e+08
4.424454e+10 -3.675712e+10 4.724365e+07
-6.072454e+10 6.646179e+09 1.047692e+09
-4.307429e+10 -4.412640e+10 -2.072480e+08
2.330965e+10 -5.686825e+10 7.868265e+08
-2.130371e+10 -5.727273e+10 2.457751e+09
2.284066e+10 -5.741330e+10 1.510854e+09
-2.321880e+10 -5.791028e+10 1.488537e+09
1.895441e+09 6.307347e+10 7.393653e+08
-3.137952e+10 5.130025e+10 1.662044e+09
3.103209e+10 5.330429e+10 -4.478644e+07
6.253341e+10 7.786345e+09 5.011011e+07
4.556999e+10 -3.569256e+10 -4.267381e+08
6.153892e+10 -9.705893e+09 -4.697721e+08
6.369751e+10 6.267288e+09 -7.779244e+08
-2.043882e+10 6.052638e+10 9.328008e+07
-2.460342e+10 5.892414e+10 5.403577e+07
4.395503e+10 4.667322e+10 1.296549e+09
-3.408972e+10 5.346526e+10 -7.749904e+08
-2.830915e+10 5.685650e+10 4.194949e+08
-3.015040e+10 5.616854e+10 -1.602085e+09
3.062863e+10 5.639785e+10 4.423549e+08
1.111539e+10 6.385417e+10 2.894063e+08
4.588753e+10 -3.598166e+10 6.513740e+08
5.830863e+10 -2.023686e+10 3.511303e+08
6.293798e+10 -1.064381e+09 -1.322491e+09
5.542636e+10 3.025512e+10 1.129840e+09
-4.172239e+10 4.687083e+10 2.610478e+08
2.339586e+10 5.773095e+10 1.229408e+09
-6.796787e+09 6.286184e+10 1.626724e+09
-3.817863e+09 -6.131065e+10 -5.172590e+08
4.615310e+09 -6.119957e+10 -1.037581e+08
4.980099e+10 -3.559705e+10 1.570590e+09
4.849240e+10 -3.561470e+10 -4.850138e+08
4.449455e+10 -3.698639e+10 -1.953246e+08
-5.853025e+10 -2.092009e+10 5.189955e+08
-3.815594e+10 -4.594554e+10 -4.135776e+08
3.880364e+10 -4.457223e+10 1.827088e+08
4.155923e+10 -4.667353e+10 5.694117e+07
8.455602e+08 -5.901021e+10 1.265896e+09
-2.215332e+08 -5.883514e+10 7.425970e+08
-4.789564e+10 -3.424492e+10 -7.365757e+08
-5.662917e+10 -1.399656e+10 8.370104e+08
-5.908120e+10 7.127101e+09 -1.030924e+09
-4.140337e+10 -4.318546e+10 1.127599e+09
4.609485e+10 -3.493271e+10 -1.117120e+09
5.017690e+10 -3.674322e+10 -3.291293e+08
4.632989e+10 -3.907713e+10 -6.971519e+08
-3.642707e+10 -4.882035e+10 -6.656121e+08
3.712704e+10 -4.872183e+10 9.682754e+08
5.027947e+10 -3.348736e+10 -1.573849e+09
-5.679051e+10 -2.391062e+10 5.104896e+08
1.288384e+10 -6.037885e+10 -3.149080e+07
-1.296443e+10 -6.221837e+10 -8.820878e+07
-5.133986e+10 3.699180e+10 6.121773e+08
-5.165188e+10 -3.532359e+10 1.171725e+09
4.604780e+10 -3.569514e+10 3.224463e+08
2.568593e+10 -5.628668e+10 -1.061911e+09
-2.481776e+10 -5.555893e+10 -5.835796e+08
-2.709207e+10 -5.396504e+10 -2.393617e+08
-2.514836e+10 -5.550453e+10 -3.437348e+08
2.817246e+10 -5.414895e+10 9.605397e+07
2.543333e+10 -5.457041e+10 1.660709e+08
-5.750144e+10 -2.020861e+10 -1.575422e+09
5.565656e+10 -2.528695e+10 2.444231e+07
-4.803840e+10 3.861604e+10 1.556742e+09
3.846369e+10 4.635840e+10 -2.922657e+07
4.837254e+10 -3.456444e+10 -6.244692e+08
5.846606e+10 1.939948e+10 -7.643433e+08
4.809420e+10 3.728535e+10 1.175664e+09
8.520386e+09 6.228028e+10 1.417092e+08
1.579405e+10 -5.752476e+10 1.112222e+09
-1.613412e+10 -5.787508e+10 1.008931e+09
4.274573e+10 -4.282639e+10 4.757331e+08
-5.033939e+10 3.812607e+10 6.902528e+07
6.001610e+10 1.704046e+10 1.031486e+09
4.904595e+10 4.054160e+10 -6.541051e+08
5.517554e+10 -2.320706e+10 -9.021051e+08
4.775202e+10 -3.296115e+10 8.368152e+08
5.701966e+10 -2.501570e+10 -8.058186e+08
5.484387e+10 -2.509960e+10 9.302708e+07
-5.374740e+10 2.677681e+10 1.119453e+09
-5.716483e+10 2.348758e+10 8.210442e+07
5.794170e+10 -2.992069e+10 -8.214612e+08
5.385236e+10 -2.716701e+10 -1.073880e+09
2.144805e+10 -5.672124e+10 -1.945740e+08
-2.081947e+10 -5.499613e+10 -3.202249e+08
-3.918993e+10 4.874148e+10 -9.974404e+08
5.680531e+10 2.785710e+10 -3.827091e+08
4.612271e+10 -3.433813e+10 1.591404e+08
2.570403e+10 5.777007e+10 -3.479425e+08
-4.326756e+09 6.314733e+10 -3.727974e+08
6.330449e+10 1.330733e+09 3.711437e+08
6.156264e+10 -1.728467e+10 7.332981e+06
4.167097e+10 -4.481760e+10 -3.170908e+08
4.412371e+10 -5.109348e+10 1.734106e+09
3.772035e+10 -5.072407e+10 -5.002361e+08
-3.857416e+10 -5.016268e+10 1.199144e+09
-5.413967e+10 2.758158e+10 -3.637550e+08
-5.926332e+10 -2.756272e+10 -1.794359e+09
4.863839e+10 -3.300064e+10 1.603019e+09
-3.127426e+10 -5.184375e+10 1.519752e+07
3.126058e+10 -5.181132e+10 2.222980e+06
-1.631601e+10 6.206432e+10 7.209519e+08
-1.404606e+10 6.162341e+10 -4.897192e+08
1.528161e+10 6.249150e+10 -6.425415e+08
1.622423e+10 6.040740e+10 -4.200482e+08
4.555397e+10 4.476628e+10 -1.033631e+09
4.729161e+10 4.413592e+10 -3.755305e+08
3.559279e+10 5.329980e+10 -5.251075e+08
3.604306e+10 5.149390e+10 -5.030320e+08
4.920056e+10 -3.235990e+10 1.373112e+09
6.304856e+10 1.201743e+10 1.011938e+09
6.350589e+10 1.363360e+10 -7.452924e+08
6.393930e+10 -9.768091e+09 5.554905e+07
6.360521e+10 -8.898466e+09 -7.194713e+08
7.698769e+08 6.269915e+10 -3.711399e+08
2.349436e+10 -6.026803e+10 -7.285670e+08
-2.438758e+10 -5.800952e+10 3.111333e+08
-3.467612e+10 -4.876210e+10 9.899125e+08
3.524781e+10 -4.957792e+10 7.423314e+08
-4.990990e+10 4.093753e+10 -7.054812e+07
4.909022e+10 -3.140540e+10 3.827894e+08
-4.818864e+10 4.284579e+10 1.848687e+09
5.803784e+10 2.036435e+10 3.918116e+08
6.034533e+10 2.291555e+10 -5.164477e+08
3.933001e+10 4.910349e+10 -8.450230e+08
3.815519e+10 5.028171e+10 -2.958682e+08
5.027961e+10 3.627315e+10 -1.087537e+08
5.422970e+10 3.814057e+10 1.539426e+09
7.570576e+09 6.279311e+10 1.012712e+08
6.850843e+09 6.589680e+10 -6.787333e+08
5.744688e+10 1.888699e+10 -1.052185e+09
4.719281e+10 -3.250818e+10 -2.864266e+08
3.456191e+08 6.051550e+10 -1.173019e+09
3.894088e+10 4.615263e+10 -3.443649e+08
4.817835e+10 3.759697e+10 3.015721e+08
5.176336e+10 -3.498259e+10 3.806940e+08
-5.637392e+10 -2.244925e+10 -6.856740e+08
-4.738087e+10 -4.128832e+10 -1.865970e+08
-6.193003e+10 1.310041e+09 3.272841e+08
-6.196208e+10 -1.030124e+10 7.493074e+08
-5.994371e+10 9.553535e+09 -9.701493e+08
4.632505e+09 -5.869025e+10 -7.117508e+07
4.970759e+10 -3.271760e+10 -6.741802e+08
-4.247385e+09 -6.010439e+10 -7.684621e+07
3.888251e+10 4.568324e+10 -1.025839e+09
8.220775e+09 5.947371e+10 -1.014820e+09
-2.832450e+10 5.379850e+10 7.334358e+08
-2.761211e+10 5.538464e+10 2.478682e+07
3.154373e+10 -5.450875e+10 -2.136411e+09
-3.240085e+10 -5.579693e+10 -1.598791e+09
2.700255e+10 -5.447209e+10 2.006251e+08
-2.595331e+10 -5.463703e+10 2.122821e+08
-1.260477e+10 -5.955381e+10 1.096874e+09
5.031297e+10 -2.965959e+10 -4.971799e+08
1.310382e+10 -5.985185e+10 1.173169e+09
-5.763825e+10 -2.683178e+10 -5.678742e+08
-4.190261e+10 -4.532526e+10 4.616220e+07
-5.798154e+10 -1.035955e+10 -9.065423e+08
-6.129730e+10 2.254659e+09 -5.383715e+08
-4.463527e+10 -4.148581e+10 3.256620e+08
-4.742007e+10 -3.964979e+10 3.723398e+08
-2.417673e+10 -5.436805e+10 -3.388449e+08
2.395544e+10 -5.421843e+10 -7.056175e+08
-5.070097e+10 3.255240e+10 -3.571974e+08
4.948429e+10 -3.081474e+10 -1.212467e+09
-1.455052e+09 6.026808e+10 -1.363873e+08
-3.585302e+10 4.766241e+10 9.673366e+08
2.716208e+10 5.335403e+10 8.957968e+08
5.980788e+10 4.446292e+09 -9.522662e+08
6.216569e+10 -1.318849e+10 -1.336813e+08
6.013869e+10 -3.734182e+09 1.284738e+08
2.167688e+10 5.853377e+10 3.384971e+08
-4.288527e+10 4.267892e+10 -4.689327e+08
-9.004116e+09 6.074309e+10 3.131054e+08
5.107030e+10 3.081138e+10 -3.871948e+08
4.956052e+10 -2.873391e+10 7.241989e+08
-3.534036e+10 -5.201298e+10 -6.074795e+07
3.524890e+10 -5.197382e+10 -4.276375e+07
5.767187e+10 -3.482902e+10 -2.834405e+08
1.289136e+10 -6.290143e+10 4.697816e+08
-1.330863e+10 -6.444716e+10 1.191838e+09
-6.071238e+10 -1.466847e+10 4.425367e+08
-6.044030e+10 6.438343e+09 -5.662956e+08
-4.282182e+10 -4.362254e+10 3.725105e+08
-4.999977e+10 -3.710662e+10 -4.749897e+08
-5.975467e+10 -2.203280e+10 2.165371e+08
4.975774e+10 -3.053000e+10 2.869204e+08
4.724594e+09 -6.054551e+10 2.712655e+08
-5.982187e+09 -6.035426e+10 8.874300e+08
6.024385e+10 -1.107371e+10 -4.405933e+08
1.573271e+10 6.019913e+10 -6.953253e+08
-2.344146e+10 5.504495e+10 -1.589021e+09
-1.959756e+10 5.661312e+10 -1.602390e+09
-2.635465e+10 5.457772e+10 6.779823e+08
8.757391e+09 5.906881e+10 1.515295e+08
4.363917e+10 4.214094e+10 -1.427008e+08
5.933102e+10 1.186234e+10 1.627580e+08
5.062414e+10 -2.910410e+10 4.605655e+08
-3.382073e+10 5.024017e+10 2.858115e+08
5.974444e+10 7.586749e+09 -5.968116e+08
5.887687e+10 5.642534e+09 5.378626e+07
4.012671e+10 4.453503e+10 6.880807e+08
3.409303e+10 5.019173e+10 -1.309487e+08
2.878240e+10 5.359178e+10 3.407865e+08
-3.012254e+10 5.247390e+10 -5.690409e+08
-2.749973e+10 5.499569e+10 -1.064969e+08
3.228477e+10 5.229902e+10 2.979431e+08
-4.591079e+10 3.693781e+10 -1.481581e+09
5.015745e+10 -2.763393e+10 2.880115e+08
-4.850903e+10 3.712801e+10 2.454084e+09
-3.199957e+10 5.056989e+10 3.391537e+08
-1.860377e+10 5.769618e+10 -2.549107e+07
1.119283e+10 5.889936e+10 1.892048e+08
-1.537631e+10 5.876646e+10 5.086521e+08
-2.193623e+10 5.812161e+10 1.183907e+08
-3.594158e+10 -4.579193e+10 -1.625212e+09
3.659711e+10 -4.640527e+10 -2.437101e+08
2.991326e+10 -5.205981e+10 -8.275516e+08
-2.983311e+10 -5.183322e+10 -6.861340e+08
5.291381e+10 -2.674708e+10 -1.480153e+09
-2.050937e+10 -5.653287e+10 -9.064870e+08
1.930831e+10 -5.617031e+10 -6.447616e+08
-2.878021e+10 -5.228845e+10 5.268939e+08
-2.278320e+10 -5.442675e+10 -7.764437e+08
2.355176e+10 -5.501101e+10 -1.081450e+09
2.872169e+10 -5.219265e+10 5.594830e+08
-5.562527e+10 2.251023e+10 2.302668e+08
-5.029870e+10 -3.472772e+10 2.579248e+08
-5.952619e+10 -8.810365e+09 3.245932e+08
-5.806664e+10 -1.940730e+10 1.560403e+09
5.039622e+10 -2.842058e+10 -2.611974e+08
-5.774782e+10 -1.654278e+10 -1.536516e+08
-5.957437e+10 -1.952640e+10 -1.054778e+08
-1.193934e+10 -6.142750e+10 -5.032163e+08
1.196093e+10 -6.158286e+10 -5.358326e+08
-3.698825e+09 6.365983e+10 5.800712e+08
5.856714e+10 2.682451e+10 1.554736e+09
5.989158e+10 2.643648e+10 -4.107982e+08
2.685957e+10 5.865578e+10 6.003367e+08
-4.044145e+10 4.936375e+10 -5.351249e+08
6.464967e+10 2.058999e+09 -6.091823e+08
5.106139e+10 -2.501757e+10 2.079113e+08
6.148907e+10 -1.547572e+10 -6.575778e+08
-5.925778e+10 1.492347e+10 -9.706533e+08
-5.786401e+10 1.567836e+10 -9.951396e+08
3.441609e+10 -5.014171e+10 5.830940e+08
-3.445694e+10 -5.012893e+10 5.727298e+08
-4.447215e+10 -4.034290e+10 -1.161146e+09
-5.739201e+10 2.726385e+10 8.782591e+08
-6.034503e+10 1.688764e+09 1.223050e+09
-5.965092e+10 1.255694e+10 5.365949e+08
-5.748208e+10 -1.960839e+10 -7.082679e+08
5.172138e+10 -2.646157e+10 -2.121943e+08
-6.124465e+10 -5.836578e+09 2.012601e+09
-6.194985e+10 -4.416899e+09 -1.461175e+09
-5.964114e+10 8.496660e+09 3.856257e+08
4.074383e+10 -4.929511e+10 -3.328904e+08
-6.043912e+10 -7.138768e+09 -9.972373e+08
-6.213514e+10 -5.334560e+09 -2.789911e+08
-5.808437e+10 -5.737688e+09 -4.331866e+08
-6.041672e+10 -2.876655e+09 -1.493924e+09
-6.351799e+10 -2.943353e+09 -5.766799e+08
-5.906144e+10 -1.139874e+09 -5.663340e+08
5.310325e+10 -2.647690e+10 1.635002e+08
1.524391e+10 -5.721565e+10 5.638172e+08
-1.528532e+10 -5.724160e+10 5.322059e+08
-1.175203e+10 6.157770e+10 1.065081e+09
-1.258002e+10 6.492224e+10 3.455126e+08
3.808400e+09 6.404494e+10 -9.257396e+08
4.438928e+09 6.241563e+10 1.740342e+08
1.749030e+10 6.055312e+10 2.116208e+07
1.763566e+10 5.942260e+10 -1.796617e+07
6.083903e+10 1.570746e+10 9.303679e+08
6.208770e+10 1.571755e+10 1.014175e+09
5.236097e+10 -2.408112e+10 -1.176073e+09
-4.660394e+10 4.255714e+10 5.058568e+08
-4.746525e+10 4.388690e+10 9.059698e+08
4.756198e+10 3.997779e+10 -1.159894e+08
4.897364e+10 4.250273e+10 -2.354469e+08
5.218453e+10 3.468397e+10 2.062165e+09
5.280853e+10 3.576857e+10 3.500761e+08
6.285255e+10 -6.846469e+09 -5.941983e+08
6.237813e+10 -6.613560e+09 1.132759e+07
4.215495e+10 -4.245299e+10 -2.345834e+08
-5.370602e+10 3.164389e+10 1.423947e+09
5.270429e+10 -2.563135e+10 -2.709800e+08
-5.028649e+10 -3.719061e+10 2.249189e+08
-6.072415e+10 -1.477437e+10 -2.198580e+08
-6.591342e+10 6.929261e+09 1.015347e+08
-5.552521e+10 3.287753e+10 4.316835e+08
-5.627736e+10 3.078852e+10 5.046829e+08
-5.364446e+10 2.307166e+10 4.797416e+08
-5.540491e+10 2.281624e+10 5.211463e+08
-3.415355e+10 5.149488e+10 1.875683e+09
-2.350004e+10 -5.837227e+10 -2.416507e+09
2.358764e+10 -5.718997e+10 -2.201935e+09
5.216613e+10 -2.277452e+10 -8.922616e+06
7.871097e+09 -5.843785e+10 -3.595181e+08
-8.331604e+09 -5.873039e+10 -5.578866e+08
-5.804030e+10 1.753002e+10 1.553674e+08
-5.628693e+10 1.888346e+10 -8.743031e+08
2.547741e+10 -5.515264e+10 -4.402824e+07
-2.596839e+10 -5.508779e+10 1.731948e+09
-2.878761e+10 -5.604312e+10 -5.595741e+08
2.835501e+10 -5.568296e+10 1.499846e+08
-2.594490e+10 -5.707837e+10 -1.954227e+08
2.743674e+10 -5.967181e+10 9.983919e+08
5.299182e+10 -2.351342e+10 -3.576965e+08
4.941241e+10 3.943453e+10 1.148806e+08
6.053300e+10 1.817685e+10 -1.030573e+08
5.629221e+10 -2.112066e+10 7.445310e+08
2.510038e+08 -6.578214e+10 -5.562631e+08
-1.543628e+08 -6.350535e+10 -7.945826e+08
5.820842e+10 -2.386336e+10 -4.568790e+08
-5.429244e+10 -2.481823e+10 -6.176641e+08
-5.894342e+10 -6.934434e+08 -1.458339e+09
-5.896604e+10 -9.783452e+09 -9.771321e+08
-5.318163e+10 -4.315742e+10 1.755404e+09
5.269838e+10 -2.244224e+10 -1.257385e+09
-1.589846e+10 -6.159455e+10 -9.106212e+08
1.559043e+10 -6.088065e+10 -8.935254e+08
5.833170e+10 -3.230939e+10 4.095227e+08
-5.516192e+10 -3.139060e+10 -4.078824e+08
-6.205185e+10 9.635578e+09 9.567829e+06
-5.954293e+10 -1.641036e+10 -7.998286e+07
-4.233387e+10 -4.225015e+10 -6.601304e+08
-4.211040e+10 -4.591219e+10 -1.142449e+09
5.688369e+10 -1.734895e+10 -8.673456e+08
-4.050810e+10 -4.991213e+10 -1.238421e+09
5.382561e+10 -2.254646e+10 -4.385829e+08
5.897804e+10 -1.539910e+10 1.737149e+09
6.037098e+10 -8.147064e+09 -7.327188e+07
5.880903e+10 -2.626197e+09 1.033840e+09
6.024606e+10 3.888714e+08 8.621272e+08
-5.265094e+10 3.103069e+10 1.502626e+09
-5.484540e+10 2.945953e+10 3.694497e+07
-3.770159e+10 4.730214e+10 1.035979e+09
-4.044389e+10 4.309268e+10 4.377349e+08
-3.830126e+10 4.592452e+10 -1.020784e+09
-4.289375e+10 4.411309e+10 4.413355e+07
5.258948e+10 -2.185074e+10 4.913414e+07
-1.429264e+10 5.859701e+10 5.355507e+08
1.883962e+10 5.775296e+10 9.147773e+08
-1.104258e+10 6.045452e+10 7.617481e+08
2.156368e+10 5.475072e+10 -1.379954e+09
5.918546e+10 1.401376e+10 2.854018e+08
1.948091e+10 5.609707e+10 -5.002420e+08
5.106833e+10 2.921813e+10 -1.283333e+09
5.524444e+10 2.484002e+10 7.244386e+08
2.583556e+10 5.544040e+10 1.074242e+09
4.683019e+10 3.987462e+10 8.463459e+08
5.357564e+10 -2.015533e+10 3.313554e+08
6.231290e+09 6.022490e+10 -2.830932e+08
5.096571e+10 3.105340e+10 1.134168e+08
5.357643e+10 2.720939e+10 -8.264806e+08
4.426911e+10 4.095892e+10 1.976600e+08
5.724335e+10 1.575090e+10 -1.093101e+09
-5.038779e+10 3.357006e+10 1.717763e+08
1.556526e+10 5.948539e+10 3.671521e+08
3.670585e+10 4.809984e+10 -7.607218e+08
2.367435e+10 5.526212e+10 -8.347481e+08
3.518005e+10 5.049541e+10 2.957486e+08
5.488046e+10 -2.131819e+10 1.230238e+09
-9.115132e+09 5.861541e+10 -1.855339e+08
4.899765e+10 3.348674e+10 2.028929e+08
5.513226e+10 2.174353e+10 -5.015444e+08
-5.056757e+09 5.997781e+10 -8.320019e+08
-8.122681e+09 5.857783e+10 -9.046841e+08
4.351813e+09 6.020576e+10 -1.310526e+09
5.152170e+10 3.435009e+10 1.712849e+09
5.639507e+10 2.105096e+10 -4.180337e+08
-4.937824e+10 3.436430e+10 -6.175643e+08
-3.629624e+09 5.996379e+10 1.194639e+09
5.458153e+10 -2.131619e+10 -4.238160e+08
-4.593912e+10 3.974504e+10 3.345257e+08
-4.370483e+10 4.186910e+10 1.904197e+09
6.075777e+10 2.395426e+09 -9.767939e+08
5.973521e+10 -2.726639e+09 2.183846e+08
6.107817e+10 -5.627928e+09 -1.123549e+09
5.947321e+10 -1.436670e+10 -1.071067e+09
5.722503e+10 -2.068169e+10 -7.323502e+08