# vtk DataFile Version 2.0
Electric current density generated by TTH
ASCII
DATASET UNSTRUCTURED_GRID
POINTS 1626 double
1.243743e-05 -1.969895e-06 -5.783533e-22
-7.157925e-06 9.380942e-06 1.764870e-06
7.630513e-06 6.982478e-06 2.358652e-06
5.939404e-06 -7.957914e-06 -2.342023e-06
1.051789e-05 -5.888065e-06 -1.501182e-06
8.762623e-06 7.321476e-07 1.872946e-06
8.833676e-06 5.882143e-06 -2.330246e-06
3.720397e-06 9.429073e-06 2.359409e-06
-1.117911e-05 1.785229e-06 -2.094883e-06
-1.020359e-05 -6.365322e-06 -1.534088e-06
8.994413e-06 1.522955e-06 -2.084829e-06
1.255364e-05 -9.879932e-07 -5.783533e-22
1.037239e-05 1.949965e-06 -2.339120e-06
7.204739e-06 1.018930e-05 -7.225820e-07
-4.362210e-07 7.887412e-06 -3.728159e-07
8.595833e-07 -8.378016e-06 1.517469e-06
-1.145866e-05 2.928935e-06 -1.740352e-06
-6.676817e-06 1.053806e-05 7.348831e-07
1.014304e-05 6.207656e-06 -1.678646e-06
-4.376828e-06 8.754780e-06 2.319328e-06
-3.390359e-06 1.202974e-05 6.599457e-07
1.854719e-06 9.545326e-06 -2.306167e-06
1.238832e-05 -3.034262e-21 9.604299e-07
-1.161223e-05 2.352361e-06 1.720831e-06
-8.176646e-07 1.059666e-05 -2.327694e-06
-9.254358e-06 2.888683e-06 2.299567e-06
1.005730e-05 -6.562931e-06 1.553785e-06
-1.160726e-06 7.880152e-06 -6.641664e-07
-1.436079e-06 -1.055141e-05 -2.324098e-06
-6.949800e-06 -1.040111e-05 -6.211159e-07
-4.245953e-07 -7.870535e-06 -2.390360e-07
-1.229493e-05 -2.112318e-06 7.352883e-07
6.729750e-06 7.151237e-06 2.325211e-06
1.181118e-05 -2.892904e-21 1.754793e-06
9.362926e-06 8.235811e-06 -7.515125e-07
8.378252e-06 5.017551e-06 -2.314998e-06
2.446805e-06 8.541194e-06 1.939838e-06
7.570539e-06 2.569030e-06 -7.572338e-07
5.825569e-07 1.041151e-05 -2.353104e-06
-1.431456e-06 -1.192059e-05 -1.557199e-06
3.512570e-06 -1.197716e-05 7.150003e-07
-9.694923e-07 9.713922e-06 -2.314267e-06
5.253106e-06 1.058805e-05 1.747216e-06
7.735387e-06 -6.506411e-06 2.358087e-06
1.096084e-05 -2.684631e-21 2.245736e-06
-4.267781e-06 -7.862929e-06 1.981260e-06
1.093339e-05 -4.994248e-06 1.541314e-06
2.669242e-06 9.265873e-06 -2.286802e-06
9.018623e-06 -5.959167e-06 2.289363e-06
1.034990e-05 5.795005e-06 1.707849e-06
4.406482e-06 -1.005948e-05 2.238659e-06
-9.002831e-06 -2.897544e-06 2.231014e-06
-7.024894e-06 -5.162799e-06 1.812773e-06
1.237753e-05 -1.626039e-06 7.078271e-07
-5.335290e-08 -8.818330e-06 1.892128e-06
9.984332e-06 -2.445456e-21 2.348371e-06
-2.788690e-06 7.430081e-06 -5.557333e-07
1.366112e-06 1.091062e-05 2.234071e-06
-4.945344e-06 9.608152e-06 -2.290228e-06
4.625373e-06 -6.374784e-06 1.708273e-07
7.898039e-06 -9.659196e-06 7.289103e-07
2.629512e-06 1.217720e-05 7.858223e-07
-1.171546e-05 -4.372805e-06 6.369233e-07
1.139544e-06 8.440740e-06 -1.624351e-06
8.117863e-06 6.526035e-06 -2.354076e-06
1.718484e-06 -1.006420e-05 2.361210e-06
9.050503e-06 -2.216734e-21 2.044951e-06
-3.164706e-07 1.245482e-05 7.830688e-07
-5.134489e-06 8.364475e-06 2.324284e-06
-7.979472e-06 2.994650e-06 -1.630229e-06
-9.312978e-06 3.190231e-06 -2.329392e-06
6.898247e-06 4.863614e-06 -1.539157e-06
6.801505e-06 7.310082e-06 -2.348428e-06
1.924571e-06 1.026912e-05 -2.351337e-06
-6.280213e-06 8.822623e-06 2.284220e-06
-1.047330e-05 6.809716e-06 -6.798008e-07
5.717252e-07 -7.935454e-06 6.320904e-07
8.320819e-06 -2.038013e-21 1.387941e-06
-6.689853e-06 8.074890e-06 2.347505e-06
3.339769e-06 -8.125492e-06 1.866719e-06
6.472950e-07 7.952453e-06 7.088378e-07
-3.413531e-06 7.175678e-06 5.957169e-07
7.005195e-06 -8.720255e-06 -2.159856e-06
-7.491925e-06 -8.409961e-06 -2.123901e-06
8.588351e-06 -6.606320e-06 2.282719e-06
9.321235e-06 2.960262e-06 -2.317808e-06
-4.728907e-06 8.636330e-06 -2.329725e-06
8.631486e-06 -5.827106e-07 -1.754793e-06
7.921449e-06 -1.940196e-21 4.909432e-07
8.254547e-06 1.551094e-06 -1.489639e-06
3.303980e-06 8.056993e-06 1.804478e-06
7.793367e-06 9.032296e-06 1.640288e-06
-1.041843e-05 1.918687e-06 -2.333319e-06
-1.762840e-06 9.219829e-06 2.205200e-06
-6.651984e-06 -9.693712e-06 -1.802465e-06
1.041227e-05 -6.935247e-06 -6.166808e-07
4.519662e-06 8.573825e-06 -2.298966e-06
5.814312e-06 -5.500675e-06 7.845019e-07
7.143301e-06 -3.592819e-06 -7.613099e-07
7.921449e-06 -1.940196e-21 -4.909432e-07
3.566808e-06 -8.649607e-06 -2.193208e-06
-5.283883e-07 -1.249882e-05 -6.186305e-07
-7.898689e-06 -8.968931e-06 1.617789e-06
-5.516969e-06 -8.939896e-06 2.345353e-06
1.634953e-06 9.592274e-06 2.307645e-06
9.602486e-06 1.886690e-06 2.318981e-06
-8.990166e-06 6.559993e-06 2.183915e-06
-7.222138e-06 7.304526e-06 -2.360952e-06
-9.724425e-06 -7.834192e-06 6.960148e-07
-6.081761e-06 6.348371e-06 -1.871636e-06
8.320819e-06 -2.038013e-21 -1.387941e-06
1.149906e-05 -3.177387e-06 -1.640066e-06
1.119259e-05 -4.439004e-06 -1.516987e-06
-6.508960e-06 -5.931827e-06 1.883059e-06
-2.261307e-06 1.059374e-05 -2.283479e-06
6.369110e-06 -1.013745e-05 -1.595162e-06
-3.460121e-06 -7.076747e-06 -1.881800e-07
-1.151875e-06 -1.129535e-05 2.077293e-06
1.245356e-05 8.835906e-07 7.046589e-07
2.791714e-06 -1.155596e-05 -1.682063e-06
8.530316e-06 -1.923461e-06 1.834550e-06
9.050503e-06 -2.216734e-21 -2.044951e-06
7.473713e-06 5.703579e-06 2.210736e-06
9.318771e-06 5.071732e-06 2.330796e-06
-6.513973e-06 -8.499124e-06 2.312603e-06
5.316504e-06 -1.053240e-05 1.766426e-06
2.748177e-06 7.410921e-06 -4.005132e-07
9.926440e-06 2.721843e-06 2.360501e-06
2.840408e-06 -9.806817e-06 2.361211e-06
-8.134812e-06 1.148237e-06 1.229917e-06
-7.762867e-06 -1.393065e-06 2.830142e-07
1.120355e-05 5.491546e-06 7.292048e-07
9.984332e-06 -2.445456e-21 -2.348371e-06
-3.983491e-06 -1.122494e-05 -1.659674e-06
-2.442720e-06 -1.228038e-05 -5.766393e-07
-4.058066e-06 -9.800082e-06 -2.331195e-06
-6.927367e-07 -8.519089e-06 -1.655322e-06
7.956104e-06 7.430009e-07 7.458042e-07
3.835988e-06 1.186507e-05 -7.513071e-07
1.205060e-05 8.510943e-07 -1.468085e-06
3.045528e-06 7.490095e-06 9.860600e-07
7.592911e-06 9.924725e-06 6.676863e-07
1.007902e-05 -7.720179e-07 -2.358121e-06
1.096084e-05 -2.684631e-21 -2.245736e-06
-1.122417e-05 -3.920119e-06 -1.681423e-06
-8.070897e-06 -7.507362e-06 -2.224687e-06
1.246982e-05 -6.980409e-07 -6.901844e-07
9.574169e-06 -7.997413e-06 7.357619e-07
7.118792e-06 4.342722e-06 1.412427e-06
1.134599e-05 -5.277888e-06 -6.055477e-07
-7.504702e-06 2.664588e-06 6.591157e-07
9.423450e-06 -3.431536e-06 -2.352620e-06
1.005910e-05 3.657750e-06 -2.313584e-06
-6.788378e-06 4.851403e-06 1.418969e-06
1.181118e-05 -2.892904e-21 -1.754793e-06
1.241223e-05 1.544902e-06 -6.258970e-07
2.187690e-06 1.179927e-05 1.563865e-06
5.187319e-06 1.138286e-05 6.218694e-07
7.692661e-06 -9.222731e-06 1.553099e-06
-7.903142e-06 -8.840000e-06 -1.711752e-06
7.364949e-06 9.265341e-06 -1.732195e-06
-5.336320e-06 -6.591527e-06 1.584973e-06
5.296878e-06 -5.993536e-06 -7.693921e-07
1.206554e-05 -6.383409e-07 1.465811e-06
5.886058e-06 7.617850e-06 -2.282685e-06
1.238832e-05 -3.034262e-21 -9.604299e-07
-6.121882e-08 -1.201504e-05 1.546926e-06
-8.790097e-06 -8.876172e-06 -6.811453e-07
-7.706367e-06 2.037188e-06 -6.840010e-07
-1.131602e-05 3.318127e-06 1.771460e-06
-6.020133e-06 -1.009911e-05 -1.801848e-06
-4.488112e-07 8.589134e-06 -1.708179e-06
-4.307784e-06 7.397057e-06 1.668227e-06
-6.114693e-06 1.092378e-05 5.854972e-07
-4.132316e-06 6.887139e-06 8.592455e-07
8.484982e-06 9.214669e-06 -5.555682e-07
-1.149353e-06 7.785662e-06 3.011857e-08
5.244031e-06 -1.137518e-05 5.572786e-07
-1.202881e-05 -3.462338e-06 -5.914346e-07
9.833233e-06 -4.562814e-06 2.281388e-06
-5.862387e-06 5.264579e-06 2.110557e-07
5.020049e-06 9.228053e-06 2.345358e-06
-1.787367e-06 -7.963636e-06 -1.137247e-06
4.340273e-07 -9.564816e-06 2.268211e-06
9.954046e-06 7.542131e-06 6.923981e-07
4.936068e-06 6.284949e-06 -7.483776e-07
-6.378142e-06 8.987882e-06 -2.225285e-06
3.139653e-06 -8.061308e-06 -1.754793e-06
-4.341307e-06 -6.762673e-06 8.706259e-07
5.334903e-06 -6.599587e-06 1.590889e-06
8.166220e-06 -7.697088e-06 -2.143381e-06
-9.602937e-06 -4.265550e-06 -2.345059e-06
-6.100620e-06 -5.233536e-06 8.748117e-07
7.797522e-06 -3.028116e-06 1.446616e-06
8.599259e-06 9.072341e-06 6.536639e-07
-1.243508e-05 -1.489965e-06 5.643562e-07
7.219659e-06 -3.457408e-06 7.868918e-07
3.125914e-06 1.000416e-05 -2.348035e-06
5.986946e-06 7.377971e-06 2.245736e-06
-6.316215e-06 -1.077513e-05 -6.883222e-07
-5.511998e-06 5.807975e-06 -7.934947e-07
-7.102545e-06 3.468676e-06 -4.018451e-07
-1.101997e-05 -6.637705e-07 -2.218476e-06
-7.869317e-06 -7.637975e-07 -4.132818e-07
-9.200206e-06 8.504583e-06 5.444616e-07
1.139924e-05 5.355059e-07 2.044951e-06
-1.165543e-05 -1.461639e-06 -1.810758e-06
1.173316e-05 -4.367825e-06 5.813356e-07
1.145950e-05 1.904765e-06 1.912059e-06
7.625547e-06 7.150621e-06 -2.350794e-06
-1.229225e-05 -2.261848e-06 -6.591065e-07
-7.562565e-06 6.861216e-06 2.361222e-06
8.505017e-06 -9.200676e-06 -5.417516e-07
-8.355226e-06 8.554510e-06 1.610715e-06
1.212985e-05 -5.315145e-07 -1.387941e-06
-2.554079e-06 1.165969e-05 1.633633e-06
2.696064e-06 -1.170969e-05 1.545928e-06
-6.306004e-06 4.723277e-06 2.050734e-07
-5.370917e-06 -7.570658e-06 -2.162289e-06
5.402132e-06 9.141801e-06 -2.329297e-06
-9.004028e-06 -8.323238e-06 -1.205296e-06
1.107261e-05 4.287220e-06 1.696485e-06
-4.711187e-06 -1.004524e-05 -2.197566e-06
-1.138009e-05 5.246295e-06 5.345240e-07
-2.266614e-06 -1.037067e-05 2.329821e-06
7.932374e-06 7.658038e-06 2.223583e-06
3.859383e-06 -1.121211e-05 1.711711e-06
6.599684e-06 -8.840963e-06 2.221135e-06
-1.039198e-05 -1.738643e-06 -2.341492e-06
-8.957339e-06 -2.022779e-06 -2.115873e-06
-6.969626e-06 5.206718e-06 -1.797375e-06
-8.092963e-06 -3.392585e-07 -1.016978e-06
1.724268e-06 -1.237248e-05 -6.812657e-07
7.844299e-06 3.475798e-06 1.687907e-06
-4.756101e-06 -1.078623e-05 -1.775155e-06
-8.139094e-06 -6.338649e-06 2.359776e-06
-1.221020e-05 2.679754e-06 6.515057e-07
-2.979941e-06 -8.096776e-06 -1.733440e-06
-1.061772e-05 -6.542852e-06 7.452789e-07
-2.189583e-06 -8.289813e-06 -1.682246e-06
-1.237254e-05 1.726582e-06 -6.799955e-07
-9.975011e-06 -4.901105e-06 2.190046e-06
-2.724488e-06 -7.385047e-06 -9.036132e-08
7.875765e-06 -6.315490e-06 -2.357389e-06
[...]
POINT_DATA 1626
VECTORS 10.000GHz_fone_imag double
-8.244331e+09 -4.686844e+10 8.939355e+07
3.601960e+10 2.645770e+10 2.122960e+09
6.037687e+10 -6.555207e+10 -2.204548e+08
-5.235723e+10 -4.875806e+10 3.051344e+08
-1.516735e+10 -3.247802e+10 3.548847e+09
3.516626e+09 -1.125619e+11 -5.264731e+09
5.084900e+10 -7.605387e+10 5.374532e+08
7.709157e+10 -2.411386e+10 1.218822e+09
1.088278e+10 6.855424e+10 2.398504e+07
-2.240561e+10 3.573206e+10 -7.794573e+08
2.444351e+10 -1.294011e+11 -1.851209e+09
-2.301744e+09 -3.422004e+10 4.751299e+08
1.313708e+10 -6.806461e+10 -5.340347e+08
3.844787e+10 -2.662479e+10 -2.440318e+09
1.439636e+11 5.958200e+09 1.042793e+10
-1.186255e+11 -1.137824e+10 -5.886306e+09
1.384597e+10 4.437847e+10 -1.515076e+09
4.805876e+10 3.081707e+10 1.677019e+09
2.501064e+10 -4.382926e+10 -1.137113e+09
8.642341e+10 4.819838e+10 1.506651e+09
3.376257e+10 1.050910e+10 1.856773e+09
1.008230e+11 -2.657118e+10 -4.236194e+09
-7.411977e+08 -4.853633e+10 3.756764e+08
1.535536e+10 5.025971e+10 3.282759e+09
6.640519e+10 2.877448e+09 -3.234286e+09
2.124961e+10 7.305067e+10 -3.544484e+09
-3.382310e+10 -5.079178e+10 2.161316e+07
1.675387e+11 2.382390e+10 -3.489200e+09
-6.028932e+10 9.563045e+09 -1.434859e+08
-3.307334e+10 2.335100e+10 2.414571e+09
-1.431638e+11 2.657772e+09 -1.621512e+08
-9.253658e+09 4.969849e+10 -5.984522e+08
6.797591e+10 -6.291127e+10 2.573056e+09
2.280425e+09 -4.544172e+10 -1.730758e+09
2.808801e+10 -3.169265e+10 -1.164315e+09
3.876984e+10 -6.710714e+10 1.001858e+08
1.028875e+11 -2.512579e+10 -1.668164e+09
4.146172e+10 -1.241225e+11 3.618052e+09
6.891914e+10 -4.972869e+09 2.323626e+09
-4.477268e+10 2.601405e+09 2.388166e+09
-4.183459e+10 -1.572920e+10 -7.753983e+07
1.043549e+11 6.184401e+08 5.458749e+08
3.853093e+10 -1.773581e+10 -2.793127e+09
-5.985428e+10 -6.756239e+10 -4.321965e+09
-4.715792e+08 -5.350312e+10 6.846864e+08
-8.033399e+10 4.063669e+10 -3.514401e+09
-2.276616e+10 -4.570057e+10 1.071093e+09
9.575882e+10 -2.205302e+10 3.928171e+09
-4.837829e+10 -5.615360e+10 3.429210e+09
1.882317e+10 -3.637616e+10 -1.913400e+08
-5.366002e+10 -2.966123e+10 -2.707733e+09
-3.328049e+10 1.034719e+11 -7.209918e+08
-5.868869e+10 8.042145e+10 -4.113446e+09
-5.289421e+09 -3.863942e+10 -1.608994e+09
-9.817408e+10 4.195908e+09 -4.660869e+09
1.495689e+09 -8.494467e+10 -2.729643e+09
1.168374e+11 4.617157e+10 -2.295291e+09
5.285098e+10 -6.931490e+09 3.601274e+09
5.103993e+10 2.782443e+10 -4.303006e+08
-1.375477e+11 -9.100868e+10 -1.206855e+09
-2.832904e+10 -2.269350e+10 1.215087e+09
3.733099e+10 -6.559067e+09 -2.986418e+09
-1.579370e+10 4.461037e+10 1.734235e+09
1.393984e+11 -7.324231e+09 -1.219712e+10
5.322905e+10 -6.400361e+10 -4.265743e+09
-8.121142e+10 -7.607373e+09 -1.242681e+09
6.433301e+09 -9.527688e+10 1.322250e+09
3.692201e+10 5.169301e+08 2.426888e+09
7.216886e+10 3.949544e+10 1.364773e+09
4.263989e+10 1.057814e+11 -4.730304e+09
2.838452e+10 8.802888e+10 -2.133931e+09
8.031596e+10 -1.025326e+11 -7.807680e+09
7.784624e+10 -6.173780e+10 -8.013748e+08
6.523935e+10 -1.264283e+10 -1.904490e+08
6.183630e+10 4.083000e+10 -1.092490e+09
2.330000e+10 3.825095e+10 -1.021105e+09
-1.819318e+11 -9.882359e+09 -1.128211e+10
3.759510e+09 -1.142603e+11 6.200092e+08
5.642794e+10 4.693992e+10 -7.839439e+08
-9.474450e+10 -4.230722e+10 -1.028452e+09
1.495174e+11 -6.957749e+09 3.896813e+09
1.414503e+11 6.911062e+10 1.492397e+10
-4.982515e+10 -3.189488e+10 -2.277221e+09
-4.777574e+10 3.628175e+10 1.745174e+09
-3.801081e+10 -4.883765e+10 -2.050352e+09
2.358028e+10 -7.704755e+10 1.049136e+09
9.158741e+10 4.855535e+10 -1.245502e+08
-3.125132e+09 -1.350170e+11 -6.388834e+09
9.167739e+08 -1.308855e+11 3.554542e+09
1.792369e+10 -1.181574e+11 8.142672e+08
1.098831e+11 -5.078303e+10 -2.081885e+09
2.946755e+10 -2.471695e+10 3.108190e+08
1.376364e+10 8.048204e+10 3.605397e+08
8.573528e+10 1.631787e+10 -1.512692e+09
-3.351176e+10 2.607977e+10 -5.613685e+08
-2.547329e+10 -3.858610e+10 4.738234e+08
8.854605e+10 -3.965030e+10 -4.424839e+09
-9.521337e+10 -9.731005e+10 6.176702e+09
-5.023522e+10 -1.037445e+11 1.983787e+09
1.416419e+08 -1.240427e+11 7.739294e+09
-1.056871e+11 -5.497896e+10 -4.435810e+09
-4.318570e+10 2.379021e+09 -1.336088e+09
-4.406917e+10 3.633545e+10 -2.792653e+09
-6.976642e+10 4.371524e+10 2.287845e+08
8.814808e+10 -7.668954e+09 3.319807e+09
2.088970e+10 -9.620675e+10 1.545136e+09
2.924451e+10 3.972152e+10 3.615407e+08
5.734412e+10 5.228748e+10 -1.727529e+09
-2.818600e+10 3.528373e+10 -4.277668e+08
6.995319e+10 7.457690e+10 -7.867160e+09
4.362020e+09 -1.286081e+11 -6.881024e+09
-1.093310e+10 -4.527999e+10 -1.416027e+09
-2.126223e+10 -5.575257e+10 1.332896e+09
-7.722816e+10 8.419249e+10 2.824366e+09
6.378843e+10 6.043169e+09 -2.121370e+09
-3.829209e+10 -1.932212e+10 -2.935229e+09
-1.139304e+11 6.118230e+10 -1.033999e+09
-4.867763e+10 4.418626e+09 -1.258010e+09
3.659120e+09 -5.111094e+10 -2.448263e+09
-5.124614e+10 -1.320584e+10 1.251110e+09
-3.160590e+10 -1.330152e+11 3.389631e+09
-6.051951e+09 -1.102866e+11 3.426432e+09
6.787488e+10 -7.048530e+10 1.481937e+09
3.194349e+10 -6.193705e+10 -6.021638e+08
-4.840860e+10 4.777596e+10 2.512056e+09
-5.147566e+10 -2.412131e+10 2.843516e+09
1.437928e+11 -5.642641e+10 -1.936564e+09
1.360500e+10 -6.063679e+10 1.006096e+09
-6.997458e+10 -2.814641e+10 2.207615e+09
1.624839e+10 1.280977e+11 1.207197e+09
-1.530939e+10 1.327558e+11 -5.974986e+09
2.034857e+10 -4.169621e+10 -1.362342e+09
-2.175987e+09 -9.819238e+10 -9.376553e+07
-4.320368e+10 1.265801e+10 1.429600e+09
-4.812385e+10 9.667667e+09 -4.144737e+08
-5.497325e+10 2.158209e+10 -5.803272e+08
-1.415220e+11 5.925935e+09 -3.361322e+09
1.690079e+10 -1.730505e+11 1.076095e+09
4.752607e+10 -1.464080e+10 -1.311064e+09
4.359638e+09 -4.629869e+10 4.075981e+09
1.518398e+11 -5.871024e+10 1.283474e+09
3.481590e+10 -2.710747e+10 -4.079347e+08
-5.554507e+09 -7.097591e+10 3.421787e+09
-1.349899e+09 -5.454026e+10 -2.913728e+08
-2.120404e+10 5.381477e+10 1.960308e+09
-3.495896e+10 3.943926e+10 -1.579573e+09
-3.725226e+09 -3.909973e+10 -6.643953e+08
-2.152615e+10 -2.764963e+10 -1.361034e+09
8.438527e+10 -1.379920e+11 -5.349606e+08
-2.104007e+10 -4.502154e+10 9.916314e+07
4.210118e+10 1.268724e+11 -2.315038e+09
-4.408967e+10 -8.227131e+10 -3.070486e+09
3.089217e+10 -7.893248e+10 1.125231e+09
9.519840e+10 1.247361e+11 -7.436701e+09
2.237276e+08 -4.839980e+10 5.483559e+08
5.318432e+09 -4.293797e+10 6.234442e+09
5.437756e+10 -1.062766e+10 -2.302231e+08
4.177579e+10 -1.937792e+10 -1.773450e+09
-3.776219e+10 -3.025268e+10 2.292987e+09
-4.089716e+10 3.892957e+10 -1.228952e+09
3.697762e+10 -2.303371e+10 2.726781e+09
-1.249308e+11 9.949863e+10 3.208593e+09
-1.331327e+11 -1.210996e+11 -8.794351e+09
-1.644230e+09 -5.146429e+10 -1.123712e+09
7.350565e+10 -5.079420e+10 -1.435945e+09
8.798461e+08 -4.395425e+10 7.667622e+08
-5.596970e+10 -1.994453e+09 -3.064417e+09
-2.516400e+10 2.673480e+10 2.722017e+09
5.304934e+10 1.851889e+11 6.085958e+09
1.015106e+10 3.802725e+10 -2.281346e+09
-4.566381e+10 2.232403e+10 4.585959e+09
1.206090e+11 9.211019e+09 -2.255284e+09
1.187321e+11 8.061075e+10 1.034428e+10
4.354013e+10 2.100530e+10 1.994810e+09
1.068231e+11 6.731816e+10 1.223213e+08
2.614782e+10 -2.390349e+10 5.305927e+09
1.394164e+11 2.270828e+10 -4.441205e+08
-3.140716e+10 -1.378937e+10 -1.211119e+09
-1.171642e+10 4.185209e+10 -1.524538e+09
-1.725243e+10 -5.561240e+10 -3.004075e+09
9.297549e+10 1.096142e+11 -1.026009e+10
6.294664e+10 -4.352966e+10 1.856180e+09
-1.534813e+11 2.880717e+10 -1.114559e+10
-1.164458e+11 -4.703398e+09 -3.251334e+09
2.169190e+10 -2.856996e+10 6.626084e+08
1.359915e+11 -1.017742e+11 -3.652490e+09
5.651578e+10 3.998701e+10 2.968730e+08
-1.090163e+11 -3.996543e+10 6.720048e+09
-1.392199e+11 9.420857e+10 7.237416e+09
-9.015392e+10 -7.551423e+10 -1.098221e+10
-4.583015e+10 -4.887567e+10 -2.030887e+08
-2.247711e+10 6.122212e+10 1.438720e+09
-1.039483e+11 1.151687e+11 -5.149947e+09
-6.647929e+10 -1.525290e+11 -8.611640e+09
3.490488e+10 -3.119299e+10 -2.637701e+09
-5.889767e+09 4.769987e+10 -2.006021e+09
-7.204339e+10 -1.289162e+11 -1.252102e+10
7.431833e+10 -2.007828e+10 1.690397e+09
7.128189e+10 -4.317026e+10 5.637202e+09
-3.960592e+10 2.255260e+10 -1.685064e+09
1.076888e+11 9.707916e+10 -1.079499e+10
7.385552e+10 1.467359e+11 4.323477e+09
-7.469723e+09 7.374833e+10 7.300703e+08
-2.053483e+10 1.661607e+11 2.024419e+10
2.765235e+10 2.992711e+10 -1.340037e+09
1.289742e+07 -4.601451e+10 1.391294e+09
-9.245939e+09 5.061861e+10 2.424100e+09
-1.559927e+10 -3.759445e+10 3.879112e+09
1.334352e+10 -6.863286e+10 -1.810853e+09
5.396187e+10 -6.005946e+10 9.413714e+08
-7.708410e+09 3.500895e+10 -7.325038e+08
6.708509e+10 8.099405e+10 2.194698e+07
-2.778665e+10 -2.701215e+10 4.716243e+09
3.237511e+10 2.897121e+10 3.524140e+09
-3.337931e+09 -4.209919e+10 -2.378528e+09
6.209371e+10 1.324937e+10 -3.471109e+08
-4.998487e+10 -1.145449e+10 1.540136e+09
8.328571e+10 1.149390e+11 9.998960e+09
-8.944428e+10 4.504275e+10 -8.458974e+08
6.432570e+10 -4.091568e+10 -1.896229e+08
-2.879373e+10 3.067437e+10 -4.659725e+08
1.778651e+10 -4.048014e+10 8.804731e+07
-5.960825e+10 2.970859e+10 -1.004555e+08
1.910869e+10 4.076427e+10 6.013490e+09
-8.485597e+10 1.675268e+10 -9.334578e+07
4.961156e+10 -5.283696e+10 4.124747e+08
-4.913730e+10 -1.901401e+10 -4.105346e+09
-4.406468e+10 -3.163960e+10 2.791683e+09
-1.007207e+10 5.628168e+10 -1.039189e+09
-2.319043e+10 8.959084e+10 -7.870913e+08
9.198124e+10 1.207130e+11 -4.678032e+08
-1.783429e+10 1.408694e+11 -3.104720e+09
-4.432204e+10 -4.831807e+09 2.011511e+08
4.517595e+10 -9.687838e+10 -3.032895e+09
-4.680762e+10 2.460698e+10 -2.423594e+09
-5.365972e+10 7.624106e+10 1.520804e+09
9.121540e+09 4.854739e+10 -2.316136e+09
-1.313703e+11 5.173316e+10 6.271239e+09
-2.104562e+10 3.207944e+10 5.186343e+08
-1.369715e+11 3.098789e+10 -8.455797e+09
5.760379e+09 4.678187e+10 7.255550e+08
-3.175902e+10 6.375812e+10 1.243533e+07
-1.117152e+11 4.599523e+10 -4.439524e+09
-4.658215e+10 -5.477008e+10 -3.514963e+08
-6.486511e+09 -3.976983e+10 -1.306996e+09
1.239668e+10 -3.210440e+10 1.575687e+08
-3.467891e+10 5.619807e+10 -1.071719e+09
-1.032357e+11 -9.153943e+10 2.783790e+09
-1.546956e+11 7.031650e+10 5.117461e+09
-9.965476e+10 8.194637e+10 -6.120449e+09
8.830502e+10 -1.537401e+11 -1.986530e+09
-1.093923e+10 -5.561627e+10 -2.157071e+09
8.901311e+10 -6.885314e+10 1.512632e+09
-7.901980e+10 -6.750432e+10 1.196011e+09
-7.943072e+10 7.958007e+10 -6.025546e+08
-1.012727e+11 -6.609326e+10 -1.337352e+09
1.064304e+10 3.457185e+10 1.634323e+08
3.944191e+10 5.517377e+10 8.771470e+08
3.283457e+10 -3.116452e+10 5.981295e+08
9.594993e+10 4.245013e+09 1.310970e+09
-1.259731e+10 -5.306846e+10 -1.424300e+09
-4.918485e+10 -1.473285e+11 -2.130847e+09
-3.414741e+10 1.182318e+10 2.411747e+09
3.436986e+10 7.179776e+10 -3.739271e+08
-4.463287e+10 -5.930364e+10 -2.535092e+08
-1.046209e+10 5.328226e+10 -8.539640e+08
-6.038336e+10 1.389653e+11 -1.386990e+10
4.364544e+10 -2.891291e+10 -4.763606e+08
2.905944e+09 -5.763239e+10 -1.871024e+09
-3.470279e+10 1.722594e+10 -4.476124e+09
3.217692e+10 1.461051e+11 9.072318e+08
8.784672e+10 3.421025e+10 -1.240232e+09
3.149682e+10 -1.707559e+10 -8.878584e+07
3.678643e+10 2.419978e+10 -1.701763e+09
-7.822218e+09 -5.486306e+10 4.379866e+08
1.043276e+11 -1.085570e+10 6.688465e+09
-1.005825e+09 3.884086e+10 1.846249e+08
1.291151e+11 6.410586e+10 -5.496620e+09
-1.258114e+10 1.235196e+11 2.773752e+09
-5.074338e+09 1.394081e+11 3.215239e+09
-5.974513e+10 4.112065e+10 1.579148e+09
7.690300e+10 -3.397322e+10 7.729224e+08
-3.975072e+10 -3.996441e+10 -5.997071e+08
8.185593e+10 1.496289e+09 6.792046e+08
-1.469581e+11 -6.760036e+10 -1.649461e+09
1.291330e+11 -8.657743e+10 -6.619032e+09
9.962021e+10 1.230972e+11 -1.282272e+10
-5.242992e+09 7.704586e+10 -3.303871e+08
4.138771e+07 6.789840e+10 8.910684e+08
1.224314e+11 1.138667e+10 2.369491e+09
-1.812560e+10 4.394114e+10 2.225825e+09
3.547888e+10 -6.121381e+10 1.569664e+09
-3.336233e+10 6.592094e+09 5.605633e+08
3.923458e+10 -1.759015e+10 -8.117337e+08
1.178296e+10 3.772863e+10 -3.351154e+09
-1.700627e+10 3.697496e+10 -5.676981e+08
2.689447e+10 -4.070996e+10 -9.104511e+08
-6.117889e+10 1.367284e+11 6.212560e+09
-4.915020e+10 2.780746e+10 4.724430e+09
-2.505616e+09 -5.440259e+09 -9.249194e+07
5.544344e+09 -3.360465e+09 1.935817e+07
-4.958430e+09 5.368819e+09 -2.593635e+08
1.857791e+09 5.552738e+09 -3.559979e+07
-8.699569e+08 5.349925e+09 1.846198e+08
-5.665589e+09 -1.984655e+08 1.136274e+08
6.325037e+09 -9.794837e+08 3.421133e+08
2.262428e+09 -5.919888e+09 -9.100892e+07
-1.484414e+09 -5.357313e+09 1.293610e+08
2.995237e+10 -5.505947e+10 -2.843553e+09
4.254397e+09 -4.331708e+09 4.813832e+08
-5.881434e+09 3.108556e+09 1.792665e+08
3.200533e+08 -5.272111e+09 -3.774435e+08
-6.291337e+09 1.403970e+09 4.051333e+08
-2.412069e+09 4.328129e+09 1.992298e+08
-6.526133e+09 -2.368164e+09 -6.746927e+07
-4.654309e+09 -4.448278e+09 -1.576207e+08
5.700457e+09 5.541584e+09 4.063930e+08
5.622577e+09 2.684765e+09 -3.268591e+08
6.820405e+09 7.519158e+08 -3.353087e+08
-1.180584e+11 -3.430518e+10 1.723325e+08
3.887322e+09 6.029483e+09 2.504788e+08
-4.201576e+09 -5.317567e+09 -4.310112e+07
1.105466e+09 7.005765e+09 -7.092277e+07
-1.802614e+09 5.041051e+09 1.721726e+08
5.887069e+09 -1.823104e+07 3.260068e+08
2.155668e+09 -4.448736e+09 -3.574418e+08
1.919660e+09 -2.239889e+08 -3.115410e+08
5.656731e+09 4.051447e+09 -1.690423e+08
-6.712576e+09 -1.926467e+09 -2.792360e+08
4.112308e+09 -4.406991e+09 -2.919235e+08
-1.915125e+10 -4.351377e+10 1.350604e+09
-4.760333e+08 2.232355e+09 9.933061e+07
9.369920e+09 -3.894240e+09 2.869732e+08
3.640934e+10 -2.778982e+10 -2.881564e+08
1.621176e+10 8.778627e+09 -6.581630e+08
-7.967251e+09 -1.800682e+10 3.622918e+08
1.762520e+10 -3.047202e+09 9.142105e+08
9.186118e+09 -6.197260e+08 7.726702e+08
4.678939e+10 -1.762661e+10 -1.541450e+09
-3.353014e+10 5.984989e+10 -2.023168e+09
-2.070857e+08 -1.893243e+10 -2.398491e+07
1.893561e+10 -4.551777e+10 8.686299e+08
2.813457e+10 1.618210e+10 -3.928789e+09
3.269621e+10 -4.803682e+10 1.166230e+09
2.209006e+10 -1.493455e+10 5.047868e+08
8.019201e+09 1.351149e+09 7.691460e+08
8.901118e+09 1.628775e+10 4.890968e+08
1.366664e+10 3.603439e+10 -7.553119e+08
1.428570e+10 -1.649004e+10 -4.354989e+08
-3.876698e+10 3.018924e+10 3.019615e+07
-4.390605e+10 -2.689063e+10 -3.594809e+09
-8.310094e+09 4.076978e+10 -2.181682e+09
-1.826409e+10 -5.164668e+10 -2.060005e+09
1.454691e+10 4.434228e+10 -1.909194e+09
-2.777825e+08 -1.725293e+10 7.104674e+08
9.750431e+09 1.054137e+10 -7.506539e+08
-3.049366e+10 1.176488e+10 1.734274e+08
-5.755423e+09 -2.418277e+10 1.989453e+08
-1.756520e+10 -3.269760e+10 -6.708278e+08
5.925368e+09 1.578951e+10 -9.786320e+08
1.034473e+10 -2.013455e+10 -5.671399e+07
-4.265716e+09 3.531448e+10 -1.339764e+08
-9.355556e+09 -1.120623e+10 -4.080761e+08
9.692933e+10 -3.889735e+10 -1.124029e+10
-7.035460e+09 -2.615752e+10 3.532194e+08
7.001766e+09 -1.559726e+10 8.594511e+08
1.976347e+09 2.004047e+10 -2.412864e+07
1.353907e+10 -1.011245e+10 -2.008818e+08
1.026901e+10 6.364097e+10 -1.324987e+09
-2.117054e+10 2.013243e+10 -3.715242e+08
3.583671e+10 -1.662156e+10 3.423127e+08
-1.894991e+10 -6.718759e+09 2.401718e+07
-3.967309e+10 -1.323649e+10 6.655238e+08
-2.804574e+10 -3.320395e+10 1.194445e+08
-6.934057e+10 -4.662409e+10 1.323735e+09
1.297131e+10 2.069148e+10 2.626364e+08
1.021324e+09 2.326279e+10 -3.277974e+08
1.404310e+10 1.558055e+10 1.989871e+08
-1.340680e+10 2.046757e+10 -7.096596e+08
-1.224609e+10 2.608257e+10 -2.226774e+08
-2.207320e+10 -6.179245e+09 4.157589e+08
-2.403901e+10 -1.910021e+10 8.320937e+08
-5.584537e+10 -3.881871e+10 8.460240e+07
-5.130492e+10 5.241119e+09 -1.068162e+08
3.440322e+10 4.646692e+09 -6.022916e+08
-7.123210e+10 -1.369293e+11 9.069614e+09
2.246043e+10 7.850148e+09 -2.918788e+08
1.532859e+10 6.089812e+09 3.925011e+08
6.519812e+09 -2.686107e+10 1.252489e+08
-3.492766e+10 -3.689024e+09 -1.342630e+09
2.494840e+10 1.690791e+10 -4.432334e+08
-2.169630e+10 2.762551e+09 5.810539e+08
-2.349261e+10 2.254228e+09 9.731789e+07
1.019065e+09 -2.598617e+10 -1.915080e+09
-1.598875e+10 1.062466e+10 2.385269e+08
3.815427e+09 -1.400095e+10 -5.503775e+07
2.870814e+10 1.119600e+11 -6.281076e+09
-2.294474e+10 -2.507487e+10 -7.596467e+08
-7.348759e+09 -1.347033e+10 4.088410e+08
-1.811263e+10 -2.285368e+09 1.051033e+09
4.533060e+10 4.702438e+10 -2.197855e+09
6.399947e+10 1.259880e+08 -4.564505e+07
-1.996138e+10 5.966209e+09 2.556992e+08
-5.210797e+10 1.508454e+10 1.598382e+09
-1.929661e+10 3.232175e+10 4.792511e+09
-9.556284e+09 1.336901e+10 -9.112839e+07
-2.779259e+10 -3.870182e+07 -1.491981e+09
-6.767377e+10 3.713051e+10 2.310777e+09
-1.909013e+10 -1.162218e+10 -8.747258e+08
-1.033053e+10 2.992603e+10 1.170470e+09
3.714522e+10 6.038018e+10 2.790489e+08
2.058166e+10 -2.639913e+10 -1.350174e+09
4.477697e+10 2.430987e+10 2.079535e+08
-3.139541e+10 1.015574e+10 -2.879363e+09
9.824638e+09 -4.026631e+10 1.302095e+09
2.606446e+10 -3.139819e+10 -1.470940e+09
3.004617e+10 -9.418258e+09 1.139575e+09
-1.282554e+10 -5.070413e+10 -3.252194e+09
4.473777e+10 1.023662e+11 -4.400603e+09
-5.627282e+10 5.133767e+10 -4.576442e+09
-4.542123e+10 2.377374e+10 -7.295363e+08
-2.351635e+10 -2.195403e+10 -2.890678e+09
2.832118e+10 -1.453429e+10 8.416774e+08
-2.151720e+09 3.770642e+10 -1.082620e+09
-7.532061e+09 3.139314e+10 -4.825750e+07
1.632879e+10 -3.012893e+10 4.823606e+08
-1.380471e+10 -1.193393e+10 2.852662e+08
-4.719509e+10 4.847844e+10 -3.665961e+09
-6.859064e+10 1.553214e+10 -1.244247e+09
-7.969174e+10 7.523103e+10 -3.397967e+09
9.833136e+09 2.291166e+10 2.514429e+08
-2.752744e+10 1.842257e+10 8.402535e+07
-6.683928e+09 1.657163e+10 -2.435441e+08
-3.496935e+10 1.816646e+10 -6.074889e+08
-1.538714e+10 7.132221e+09 2.986307e+08
-2.201934e+10 -1.474968e+09 -7.192356e+07
-5.151851e+09 2.006199e+10 -2.630095e+08
-5.862106e+09 2.114979e+10 -5.543616e+07
-6.926173e+09 -6.484731e+10 -4.832861e+08
3.240579e+10 -3.601134e+10 1.142861e+08
1.005340e+11 6.696197e+10 2.351415e+09
1.837043e+10 3.229600e+10 1.718420e+08
1.797852e+10 -3.887288e+10 -2.507217e+09
1.750409e+10 -2.282856e+09 -8.040629e+08
1.448925e+10 -1.364025e+08 5.568387e+08
1.137907e+10 -5.560973e+10 -5.181653e+08
-3.070467e+10 -1.525313e+10 -6.098261e+08
-6.447127e+10 -2.508118e+10 1.048359e+08
2.992766e+10 1.997796e+10 1.342778e+09
-3.252417e+09 2.879625e+10 1.295312e+09
-2.007172e+10 6.864842e+10 -2.473903e+09
9.729325e+10 4.402502e+10 3.646422e+09
-1.165589e+10 -3.309829e+10 -5.333550e+08
2.510260e+10 2.103002e+10 -1.037459e+08
-2.690220e+10 -7.136407e+10 -3.139772e+09
2.713685e+09 -3.361849e+10 1.026731e+09
3.694499e+10 6.308508e+09 4.157248e+08
1.352787e+10 7.007493e+10 -6.136441e+08
1.828142e+10 -1.192975e+10 2.625887e+08
-5.230207e+10 -2.476246e+10 -1.834232e+08
8.165497e+10 8.345310e+09 8.864663e+08
-6.558569e+10 3.784329e+10 -7.890383e+08
6.212198e+10 7.246853e+10 -2.996430e+08
6.142978e+10 -6.504434e+09 5.621768e+08
2.456518e+10 1.243160e+10 2.845303e+08
2.182336e+10 -4.942813e+09 -8.980850e+08
2.098172e+10 3.167989e+10 1.820116e+08
-1.233438e+10 1.352475e+10 5.604448e+08
2.894307e+10 4.056893e+08 -6.665644e+08
2.829229e+10 7.873239e+10 -9.641573e+08
-2.981868e+10 -8.767864e+10 -1.795894e+09
-3.516667e+10 1.975815e+10 -5.601043e+08
7.823151e+09 2.845282e+10 -2.101698e+08
1.139249e+10 -6.774943e+10 8.551501e+08
-6.776891e+09 7.357485e+10 3.619085e+09
5.796899e+10 3.598100e+09 2.210291e+08
5.582871e+10 4.200804e+08 -4.966074e+08
1.279479e+09 1.866850e+10 -2.423565e+08
1.673927e+10 1.957714e+10 3.956189e+08
-1.698915e+10 -9.065264e+09 2.285175e+08
-2.037428e+10 -3.023174e+10 9.438163e+08
2.438592e+10 -1.262478e+10 -8.500740e+08
-6.657438e+10 -6.216991e+10 -1.371417e+09
2.677134e+10 -3.678278e+10 -7.844801e+08
-8.075511e+10 -7.254868e+09 -2.036050e+09
-3.188178e+10 9.792288e+09 6.780867e+08
-4.731425e+10 5.684072e+10 -1.608803e+09
5.591672e+10 -9.349172e+09 -4.913199e+09
2.526669e+09 -2.273140e+10 1.789343e+09
-1.367279e+10 1.935573e+10 2.056149e+08
-3.107224e+10 2.853335e+09 1.802397e+09