# vtk DataFile Version 2.0
Electric current density generated by TTH
ASCII
DATASET UNSTRUCTURED_GRID
POINTS 1249 double
1.259246e-05 -3.084264e-21 -5.783533e-22
9.575383e-06 8.178150e-06 -5.783533e-22
-8.092963e-06 -3.392585e-07 -1.016978e-06
-8.176646e-07 1.059666e-05 -2.327694e-06
-9.254358e-06 2.888683e-06 2.299567e-06
1.005730e-05 -6.562931e-06 1.553785e-06
-1.160726e-06 7.880152e-06 -6.641664e-07
-1.436079e-06 -1.055141e-05 -2.324098e-06
-6.949800e-06 -1.040111e-05 -6.211159e-07
-4.245953e-07 -7.870535e-06 -2.390360e-07
-1.229493e-05 -2.112318e-06 7.352883e-07
6.729750e-06 7.151237e-06 2.325211e-06
9.362926e-06 8.235811e-06 -7.515125e-07
-2.724488e-06 -7.385047e-06 -9.036132e-08
8.378252e-06 5.017551e-06 -2.314998e-06
2.446805e-06 8.541194e-06 1.939838e-06
7.570539e-06 2.569030e-06 -7.572338e-07
5.825569e-07 1.041151e-05 -2.353104e-06
-1.431456e-06 -1.192059e-05 -1.557199e-06
3.512570e-06 -1.197716e-05 7.150003e-07
-9.694923e-07 9.713922e-06 -2.314267e-06
5.253106e-06 1.058805e-05 1.747216e-06
7.735387e-06 -6.506411e-06 2.358087e-06
-4.267781e-06 -7.862929e-06 1.981260e-06
6.871411e-06 -6.572692e-06 2.248092e-06
1.093339e-05 -4.994248e-06 1.541314e-06
2.669242e-06 9.265873e-06 -2.286802e-06
9.018623e-06 -5.959167e-06 2.289363e-06
1.034990e-05 5.795005e-06 1.707849e-06
4.406482e-06 -1.005948e-05 2.238659e-06
-9.002831e-06 -2.897544e-06 2.231014e-06
-7.024894e-06 -5.162799e-06 1.812773e-06
1.237753e-05 -1.626039e-06 7.078271e-07
-5.335290e-08 -8.818330e-06 1.892128e-06
-2.788690e-06 7.430081e-06 -5.557333e-07
8.600733e-06 -6.045852e-06 -2.344416e-06
1.366112e-06 1.091062e-05 2.234071e-06
-4.945344e-06 9.608152e-06 -2.290228e-06
4.625373e-06 -6.374784e-06 1.708273e-07
7.898039e-06 -9.659196e-06 7.289103e-07
2.629512e-06 1.217720e-05 7.858223e-07
-1.171546e-05 -4.372805e-06 6.369233e-07
1.139544e-06 8.440740e-06 -1.624351e-06
8.117863e-06 6.526035e-06 -2.354076e-06
1.718484e-06 -1.006420e-05 2.361210e-06
-3.164706e-07 1.245482e-05 7.830688e-07
1.526505e-06 8.864455e-06 2.011844e-06
-5.134489e-06 8.364475e-06 2.324284e-06
-7.979472e-06 2.994650e-06 -1.630229e-06
-9.312978e-06 3.190231e-06 -2.329392e-06
6.898247e-06 4.863614e-06 -1.539157e-06
6.801505e-06 7.310082e-06 -2.348428e-06
1.924571e-06 1.026912e-05 -2.351337e-06
-6.280213e-06 8.822623e-06 2.284220e-06
-1.047330e-05 6.809716e-06 -6.798008e-07
5.717252e-07 -7.935454e-06 6.320904e-07
-6.689853e-06 8.074890e-06 2.347505e-06
-6.239738e-06 5.051855e-06 8.507260e-07
3.339769e-06 -8.125492e-06 1.866719e-06
6.472950e-07 7.952453e-06 7.088378e-07
-3.413531e-06 7.175678e-06 5.957169e-07
7.005195e-06 -8.720255e-06 -2.159856e-06
-7.491925e-06 -8.409961e-06 -2.123901e-06
8.588351e-06 -6.606320e-06 2.282719e-06
9.321235e-06 2.960262e-06 -2.317808e-06
-4.728907e-06 8.636330e-06 -2.329725e-06
8.631486e-06 -5.827106e-07 -1.754793e-06
8.254547e-06 1.551094e-06 -1.489639e-06
-7.231457e-06 -3.405149e-06 -7.527923e-07
3.303980e-06 8.056993e-06 1.804478e-06
7.793367e-06 9.032296e-06 1.640288e-06
-1.041843e-05 1.918687e-06 -2.333319e-06
-1.762840e-06 9.219829e-06 2.205200e-06
-6.651984e-06 -9.693712e-06 -1.802465e-06
1.041227e-05 -6.935247e-06 -6.166808e-07
4.519662e-06 8.573825e-06 -2.298966e-06
5.814312e-06 -5.500675e-06 7.845019e-07
7.143301e-06 -3.592819e-06 -7.613099e-07
3.566808e-06 -8.649607e-06 -2.193208e-06
1.025871e-05 5.050736e-06 2.031595e-06
-5.283883e-07 -1.249882e-05 -6.186305e-07
-7.898689e-06 -8.968931e-06 1.617789e-06
-5.516969e-06 -8.939896e-06 2.345353e-06
1.634953e-06 9.592274e-06 2.307645e-06
9.602486e-06 1.886690e-06 2.318981e-06
-8.990166e-06 6.559993e-06 2.183915e-06
-7.222138e-06 7.304526e-06 -2.360952e-06
-9.724425e-06 -7.834192e-06 6.960148e-07
-6.081761e-06 6.348371e-06 -1.871636e-06
1.149906e-05 -3.177387e-06 -1.640066e-06
2.183156e-06 -7.579414e-06 2.887077e-07
1.119259e-05 -4.439004e-06 -1.516987e-06
-6.508960e-06 -5.931827e-06 1.883059e-06
-2.261307e-06 1.059374e-05 -2.283479e-06
6.369110e-06 -1.013745e-05 -1.595162e-06
-3.460121e-06 -7.076747e-06 -1.881800e-07
-1.151875e-06 -1.129535e-05 2.077293e-06
1.245356e-05 8.835906e-07 7.046589e-07
2.791714e-06 -1.155596e-05 -1.682063e-06
8.530316e-06 -1.923461e-06 1.834550e-06
7.473713e-06 5.703579e-06 2.210736e-06
1.056234e-05 -4.451005e-06 2.015218e-06
9.318771e-06 5.071732e-06 2.330796e-06
-6.513973e-06 -8.499124e-06 2.312603e-06
5.316504e-06 -1.053240e-05 1.766426e-06
2.748177e-06 7.410921e-06 -4.005132e-07
9.926440e-06 2.721843e-06 2.360501e-06
2.840408e-06 -9.806817e-06 2.361211e-06
-8.134812e-06 1.148237e-06 1.229917e-06
-7.762867e-06 -1.393065e-06 2.830142e-07
1.120355e-05 5.491546e-06 7.292048e-07
-3.983491e-06 -1.122494e-05 -1.659674e-06
8.904215e-06 8.904215e-06 -5.783533e-22
1.058398e-05 4.267161e-06 -2.044951e-06
-2.442720e-06 -1.228038e-05 -5.766393e-07
-4.058066e-06 -9.800082e-06 -2.331195e-06
-6.927367e-07 -8.519089e-06 -1.655322e-06
7.956104e-06 7.430009e-07 7.458042e-07
3.835988e-06 1.186507e-05 -7.513071e-07
1.205060e-05 8.510943e-07 -1.468085e-06
3.045528e-06 7.490095e-06 9.860600e-07
7.592911e-06 9.924725e-06 6.676863e-07
1.007902e-05 -7.720179e-07 -2.358121e-06
-1.122417e-05 -3.920119e-06 -1.681423e-06
1.150859e-05 -3.868886e-06 -1.387941e-06
-8.070897e-06 -7.507362e-06 -2.224687e-06
1.246982e-05 -6.980409e-07 -6.901844e-07
9.574169e-06 -7.997413e-06 7.357619e-07
7.118792e-06 4.342722e-06 1.412427e-06
1.134599e-05 -5.277888e-06 -6.055477e-07
-7.504702e-06 2.664588e-06 6.591157e-07
9.423450e-06 -3.431536e-06 -2.352620e-06
1.005910e-05 3.657750e-06 -2.313584e-06
-6.788378e-06 4.851403e-06 1.418969e-06
1.241223e-05 1.544902e-06 -6.258970e-07
3.812752e-06 8.173800e-06 -2.026627e-06
2.187690e-06 1.179927e-05 1.563865e-06
5.187319e-06 1.138286e-05 6.218694e-07
7.692661e-06 -9.222731e-06 1.553099e-06
-7.903142e-06 -8.840000e-06 -1.711752e-06
7.364949e-06 9.265341e-06 -1.732195e-06
-5.336320e-06 -6.591527e-06 1.584973e-06
5.296878e-06 -5.993536e-06 -7.693921e-07
1.206554e-05 -6.383409e-07 1.465811e-06
5.886058e-06 7.617850e-06 -2.282685e-06
-6.121882e-08 -1.201504e-05 1.546926e-06
5.002091e-06 -7.778029e-06 -2.146729e-06
-8.790097e-06 -8.876172e-06 -6.811453e-07
-7.706367e-06 2.037188e-06 -6.840010e-07
-1.131602e-05 3.318127e-06 1.771460e-06
-6.020133e-06 -1.009911e-05 -1.801848e-06
-4.488112e-07 8.589134e-06 -1.708179e-06
-4.307784e-06 7.397057e-06 1.668227e-06
-6.114693e-06 1.092378e-05 5.854972e-07
-4.132316e-06 6.887139e-06 8.592455e-07
8.484982e-06 9.214669e-06 -5.555682e-07
5.244031e-06 -1.137518e-05 5.572786e-07
7.028806e-06 -3.539846e-06 -5.512378e-09
-1.202881e-05 -3.462338e-06 -5.914346e-07
9.833233e-06 -4.562814e-06 2.281388e-06
-5.862387e-06 5.264579e-06 2.110557e-07
5.020049e-06 9.228053e-06 2.345358e-06
-1.787367e-06 -7.963636e-06 -1.137247e-06
4.340273e-07 -9.564816e-06 2.268211e-06
9.954046e-06 7.542131e-06 6.923981e-07
4.936068e-06 6.284949e-06 -7.483776e-07
-6.378142e-06 8.987882e-06 -2.225285e-06
-4.341307e-06 -6.762673e-06 8.706259e-07
-8.665667e-06 2.443971e-06 2.017211e-06
5.334903e-06 -6.599587e-06 1.590889e-06
8.166220e-06 -7.697088e-06 -2.143381e-06
-9.602937e-06 -4.265550e-06 -2.345059e-06
-6.100620e-06 -5.233536e-06 8.748117e-07
7.797522e-06 -3.028116e-06 1.446616e-06
8.599259e-06 9.072341e-06 6.536639e-07
-1.243508e-05 -1.489965e-06 5.643562e-07
7.219659e-06 -3.457408e-06 7.868918e-07
3.125914e-06 1.000416e-05 -2.348035e-06
-6.316215e-06 -1.077513e-05 -6.883222e-07
-5.636973e-06 -8.264101e-06 -2.350311e-06
-5.511998e-06 5.807975e-06 -7.934947e-07
-7.102545e-06 3.468676e-06 -4.018451e-07
-1.101997e-05 -6.637705e-07 -2.218476e-06
-7.869317e-06 -7.637975e-07 -4.132818e-07
-9.200206e-06 8.504583e-06 5.444616e-07
1.139924e-05 5.355059e-07 2.044951e-06
-1.165543e-05 -1.461639e-06 -1.810758e-06
1.173316e-05 -4.367825e-06 5.813356e-07
1.145950e-05 1.904765e-06 1.912059e-06
-1.229225e-05 -2.261848e-06 -6.591065e-07
-8.626114e-06 3.137812e-06 -2.113984e-06
-7.562565e-06 6.861216e-06 2.361222e-06
8.505017e-06 -9.200676e-06 -5.417516e-07
-8.355226e-06 8.554510e-06 1.610715e-06
1.212985e-05 -5.315145e-07 -1.387941e-06
-2.554079e-06 1.165969e-05 1.633633e-06
2.696064e-06 -1.170969e-05 1.545928e-06
-6.306004e-06 4.723277e-06 2.050734e-07
-5.370917e-06 -7.570658e-06 -2.162289e-06
5.402132e-06 9.141801e-06 -2.329297e-06
1.107261e-05 4.287220e-06 1.696485e-06
-6.070197e-06 -6.566702e-06 1.978690e-06
-4.711187e-06 -1.004524e-05 -2.197566e-06
-1.138009e-05 5.246295e-06 5.345240e-07
-2.266614e-06 -1.037067e-05 2.329821e-06
7.932374e-06 7.658038e-06 2.223583e-06
3.859383e-06 -1.121211e-05 1.711711e-06
6.599684e-06 -8.840963e-06 2.221135e-06
-1.039198e-05 -1.738643e-06 -2.341492e-06
-8.957339e-06 -2.022779e-06 -2.115873e-06
-6.969626e-06 5.206718e-06 -1.797375e-06
1.724268e-06 -1.237248e-05 -6.812657e-07
-4.502163e-06 7.961073e-06 2.097157e-06
7.844299e-06 3.475798e-06 1.687907e-06
-4.756101e-06 -1.078623e-05 -1.775155e-06
-8.139094e-06 -6.338649e-06 2.359776e-06
-1.221020e-05 2.679754e-06 6.515057e-07
-2.979941e-06 -8.096776e-06 -1.733440e-06
-1.061772e-05 -6.542852e-06 7.452789e-07
-2.189583e-06 -8.289813e-06 -1.682246e-06
-1.237254e-05 1.726582e-06 -6.799955e-07
-9.975011e-06 -4.901105e-06 2.190046e-06
7.875765e-06 -6.315490e-06 -2.357389e-06
8.178150e-06 9.575383e-06 -5.783533e-22
-4.351675e-06 7.900287e-06 -2.026743e-06
1.196745e-05 -2.009915e-06 -1.396761e-06
1.175876e-05 4.338035e-06 -5.246809e-07
-9.295271e-06 -5.480824e-06 -2.294027e-06
5.259341e-06 -6.056832e-06 8.328152e-07
-3.493518e-06 -7.665807e-06 1.520242e-06
-5.038311e-06 -6.060459e-06 2.315226e-07
6.512958e-06 4.489776e-06 -4.364963e-07
1.117223e-05 -2.934791e-06 1.957823e-06
5.594798e-06 6.902775e-06 1.940276e-06
-6.205079e-06 -6.099882e-06 -1.798645e-06
-7.681850e-06 6.451152e-06 -2.352839e-06
4.179499e-06 -6.935981e-06 -1.012425e-06
-1.206387e-05 3.402364e-06 -5.200737e-07
-9.111094e-06 5.689596e-06 -2.305459e-06
8.579692e-06 8.298517e-06 -1.633424e-06
-1.068737e-06 9.962417e-06 2.351809e-06
1.142522e-05 -2.396981e-06 -1.869251e-06
7.716470e-06 -2.592616e-06 -1.097438e-06
[...]
POINT_DATA 1249
VECTORS 10.000GHz_fone_imag double
-1.246620e-03 2.089597e-04 2.703140e-02
-1.068312e-03 -2.018011e-03 2.730432e-02
-3.949219e-02 -5.581692e-03 -9.724152e-02
-3.440216e-03 4.804263e-02 5.648229e-03
5.927001e-02 -1.880218e-02 -1.609568e-02
-2.013674e-02 1.329950e-02 2.671391e-02
-5.549170e-03 2.964283e-02 -1.122721e-01
-7.124394e-03 -4.919880e-02 7.776070e-03
-4.595885e-03 -7.528494e-03 2.914655e-02
3.983701e-04 -1.363318e-02 -1.096152e-01
9.611167e-03 1.447005e-03 2.980195e-02
-4.361091e-02 -4.778034e-02 -1.867101e-02
7.745614e-03 6.252691e-03 2.928578e-02
-3.824199e-03 -9.513348e-03 -1.079460e-01
5.022642e-02 3.029460e-02 -1.496294e-02
-2.028782e-02 -6.484570e-02 -5.345431e-02
2.883640e-02 8.575718e-03 -1.016492e-01
2.923800e-03 5.362087e-02 -1.766493e-03
-1.797621e-03 -2.321962e-02 2.569335e-02
-2.225313e-03 8.915136e-03 2.921811e-02
-4.879984e-03 6.610592e-02 -1.657340e-02
-1.134192e-02 -2.518450e-02 2.126085e-02
-4.694609e-02 4.032413e-02 -6.618980e-03
2.996386e-02 5.545206e-02 -4.192397e-02
-4.560332e-02 4.970010e-02 -2.585433e-02
-2.176051e-02 1.145747e-02 2.578846e-02
1.688545e-02 6.320266e-02 -1.528800e-02
-3.791379e-02 2.753156e-02 1.115821e-02
-2.241846e-02 -1.218005e-02 2.191125e-02
-1.830922e-02 3.867970e-02 1.008721e-02
6.607424e-02 2.114148e-02 -2.988939e-02
4.714459e-02 3.430821e-02 -5.722885e-02
-9.687220e-03 2.591603e-04 2.668739e-02
1.805598e-03 6.198006e-02 -5.079978e-02
-8.926735e-03 2.405888e-02 -1.021388e-01
4.533334e-02 -3.155271e-02 3.174213e-03
-6.520437e-03 -4.257967e-02 1.230113e-02
-2.175354e-02 3.965779e-02 1.125470e-02
-3.698687e-03 4.633279e-03 -1.189947e-01
-6.573735e-03 8.459275e-03 2.735997e-02
-1.389005e-03 -9.424535e-03 2.818434e-02
7.815164e-03 2.639902e-03 2.933076e-02
5.105940e-03 6.559965e-02 -6.836922e-02
4.379466e-02 3.630650e-02 2.795283e-03
-6.723996e-03 5.732072e-02 -1.590716e-03
-5.896234e-04 -1.010997e-02 2.728024e-02
-9.891014e-03 -6.887891e-02 -4.376978e-02
3.082170e-02 -5.176194e-02 -1.251075e-02
-5.384748e-02 1.923920e-02 -6.585348e-02
-6.078071e-02 2.133201e-02 -1.389146e-02
4.252381e-02 3.412355e-02 -7.803048e-02
4.359004e-02 4.836125e-02 -1.197689e-02
1.032961e-02 4.958321e-02 -3.570055e-04
2.915528e-02 -4.052821e-02 8.108967e-03
-7.587360e-03 5.600611e-03 2.931580e-02
4.129140e-04 3.394139e-02 -1.119738e-01
3.425645e-02 -4.023015e-02 -1.312579e-03
2.924061e-02 -2.809373e-02 -1.043725e-01
-2.501576e-02 5.653264e-02 -5.383037e-02
-1.390613e-03 -3.189823e-02 -1.081024e-01
1.517103e-02 -2.580345e-02 -1.100568e-01
2.539559e-02 -3.420245e-02 1.583006e-02
-2.524845e-02 -3.203013e-02 1.468347e-02
-3.660096e-02 2.649246e-02 9.755540e-03
5.837813e-02 1.603754e-02 -1.471637e-02
-3.154426e-02 5.875297e-02 -1.435658e-02
6.723215e-02 -3.879742e-03 -6.697433e-02
5.509592e-02 8.857317e-03 -7.260799e-02
-2.961634e-02 -1.120453e-02 -1.052575e-01
-2.899031e-02 -5.982028e-02 -5.888396e-02
-1.641666e-02 -1.908907e-02 2.182421e-02
-5.218021e-02 9.403255e-03 3.986033e-03
1.075457e-02 -6.145504e-02 -3.121880e-02
-1.707361e-02 -2.285162e-02 2.062858e-02
7.580993e-03 -5.490121e-03 2.996588e-02
3.009422e-02 5.958867e-02 -1.967197e-02
-2.638061e-02 2.186843e-02 -9.928229e-02
2.643805e-02 -1.467443e-02 -9.869056e-02
2.825785e-02 -6.390712e-02 -3.216562e-02
-3.374558e-02 -1.708076e-02 1.970218e-02
-8.722300e-04 -8.368203e-03 2.908544e-02
1.747497e-02 2.000278e-02 2.431137e-02
2.929432e-02 4.642023e-02 1.251476e-03
-8.890422e-03 -6.279523e-02 -2.077222e-02
-6.416823e-02 -1.308939e-02 -1.647560e-02
3.175190e-02 -2.390571e-02 1.494995e-02
-4.108087e-02 4.173113e-02 -1.322916e-03
6.340227e-03 5.506103e-03 2.918473e-02
-4.802695e-02 4.585453e-02 -5.161893e-02
2.427955e-02 -5.929739e-03 2.482088e-02
-3.880939e-03 1.140618e-02 -1.061777e-01
2.235806e-02 -8.215815e-03 2.645694e-02
4.559974e-02 4.616108e-02 -5.252005e-02
-8.215337e-03 4.568026e-02 9.320505e-03
1.140713e-02 -1.975487e-02 2.427786e-02
-5.521673e-03 -7.559381e-03 -1.058637e-01
2.355156e-03 3.612725e-02 1.665521e-02
-9.097379e-03 -6.015995e-04 2.977866e-02
6.455024e-03 -2.746470e-02 2.471920e-02
-6.699363e-02 1.494851e-02 -6.298593e-02
-4.951752e-02 -4.105825e-02 -2.940545e-02
-3.244018e-02 1.456042e-02 1.658323e-02
-4.485869e-02 -2.318769e-02 4.445205e-03
3.280028e-02 3.734934e-02 6.912458e-03
-1.293555e-02 2.802993e-02 2.328448e-02
4.244929e-03 1.250938e-02 -1.136339e-01
-5.140152e-02 -1.385416e-02 1.556553e-03
-1.740931e-02 5.312486e-02 -5.242579e-03
4.832790e-02 -6.751396e-03 -8.386500e-02
1.267945e-02 -1.009055e-03 -1.095016e-01
-9.311070e-03 -4.790117e-03 2.886139e-02
-6.454690e-03 -2.434434e-02 2.489466e-02
2.253761e-03 1.161247e-03 2.907624e-02
3.110576e-02 1.226383e-02 1.945530e-02
-1.499993e-03 -8.230636e-03 2.987653e-02
-1.889549e-02 -4.692502e-02 3.492784e-03
-4.318492e-03 -6.603130e-02 -7.185888e-02
-3.153402e-02 -2.442005e-03 -1.090993e-01
3.168479e-03 1.083417e-02 2.935257e-02
2.071698e-02 2.631586e-03 2.633923e-02
-1.624948e-02 -4.159337e-02 -1.012462e-01
-5.328666e-03 -6.989578e-03 2.927537e-02
5.501759e-02 -2.798574e-03 -6.537038e-03
-2.448615e-02 -9.048653e-03 2.483932e-02
1.935683e-02 -6.954062e-03 2.673017e-02
-3.087251e-02 -2.797468e-02 1.028255e-02
8.955717e-03 -9.916388e-04 2.798991e-02
-6.608160e-03 4.802944e-03 2.680834e-02
-5.078707e-02 -2.972303e-02 -8.527705e-02
8.535789e-03 -3.565695e-03 2.995440e-02
2.924531e-02 -1.057058e-02 -9.859276e-02
5.665155e-02 -2.382071e-02 -9.305825e-03
4.928646e-02 1.800752e-02 8.395333e-03
4.559190e-02 -3.531086e-02 -8.403842e-02
9.049389e-03 2.249284e-03 2.832681e-02
2.821251e-02 6.433789e-02 -4.434887e-02
-4.694904e-03 -2.509637e-02 2.620334e-02
-2.747238e-03 -8.058977e-03 2.964708e-02
-1.476754e-02 1.815047e-02 2.618101e-02
-1.883679e-02 -2.057124e-02 2.419412e-02
1.679729e-02 2.287874e-02 2.165543e-02
4.088990e-02 5.138331e-02 -7.275738e-02
2.586992e-02 -2.650595e-02 -1.077969e-01
-2.376835e-02 1.285948e-03 2.649940e-02
3.920910e-02 5.288469e-02 -2.432098e-02
-5.739415e-04 2.517885e-02 2.620520e-02
3.497775e-02 -5.641044e-02 -3.052427e-02
-5.873409e-03 -6.621520e-03 2.679389e-02
-3.447935e-02 9.865386e-03 -1.111649e-01
2.450520e-02 -6.418662e-03 2.326913e-02
-1.386164e-02 -2.715411e-02 2.117644e-02
-3.537897e-03 5.913272e-02 -6.301622e-02
3.464828e-02 -5.399102e-02 -7.159289e-02
3.114441e-03 -7.255481e-03 2.912122e-02
1.488876e-02 -3.101254e-02 -9.754115e-02
3.223932e-03 6.119739e-03 2.726734e-02
-3.448334e-03 7.974310e-03 2.598569e-02
1.242017e-03 -5.084390e-03 -1.163780e-01
-7.602877e-03 -2.067152e-03 2.928514e-02
-4.144136e-02 1.710044e-02 1.045337e-02
2.398850e-03 -9.038840e-03 -1.121720e-01
-2.690895e-02 -4.670927e-02 4.184566e-03
-6.908669e-03 -4.550723e-02 -9.673041e-02
-3.458058e-03 6.928107e-02 -2.517900e-02
-5.704849e-03 -4.709350e-03 2.736962e-02
2.007113e-02 2.431854e-02 -1.117375e-01
-2.618151e-02 3.664669e-02 1.368699e-02
2.058512e-02 3.395192e-02 -1.081346e-01
6.740141e-02 -1.912704e-02 -4.757569e-02
-3.629913e-02 5.201431e-02 -6.963687e-02
3.065933e-02 -2.813522e-02 1.740243e-02
-4.737327e-02 -2.128223e-02 5.933240e-04
3.057178e-02 2.407365e-02 -1.036934e-01
-5.503011e-02 2.307874e-02 -8.416322e-02
-6.185207e-03 -6.769493e-03 2.975199e-02
6.531932e-03 1.262498e-03 2.928275e-02
-3.036415e-02 1.989261e-02 -1.045970e-01
1.564012e-02 5.178430e-02 1.789322e-03
-4.685272e-03 -7.589840e-03 2.908260e-02
-3.203830e-02 -5.017201e-02 -1.013281e-02
-2.371363e-02 2.509822e-02 -1.071650e-01
-1.769831e-02 7.828423e-03 -1.179718e-01
-4.536718e-02 -2.887432e-03 1.397303e-02
-1.941966e-02 5.415548e-03 -1.106437e-01
6.487578e-03 -4.514362e-03 2.882647e-02
-3.410775e-02 -1.275781e-03 1.834755e-02
-2.853820e-02 -4.431627e-03 2.322039e-02
-5.682095e-03 3.482763e-03 2.777171e-02
-3.299212e-02 -6.188341e-03 2.311555e-02
-8.332706e-03 -1.165298e-03 2.748816e-02
-6.475012e-02 2.479808e-02 -4.212532e-02
4.547483e-02 -4.067845e-02 -5.288963e-03
5.214944e-03 -3.275721e-03 2.769103e-02
1.665673e-02 -1.791066e-02 2.276715e-02
2.021924e-02 -2.220702e-03 2.622495e-02
5.472608e-03 -2.648095e-02 2.623625e-02
-6.163509e-03 2.475157e-02 2.434118e-02
1.254976e-02 -4.033154e-03 -1.107877e-01
-3.530687e-02 -5.717965e-02 -3.167971e-02
2.689636e-02 4.421166e-02 6.506464e-03
-2.412197e-02 -9.764813e-03 2.265956e-02
4.383058e-02 4.671927e-02 -4.486109e-02
-1.934493e-02 -3.941662e-02 1.463069e-02
7.544562e-03 -4.965165e-03 2.913622e-02
1.105001e-02 5.124615e-02 7.032626e-03
-3.171659e-02 -3.115648e-02 1.440160e-02
-1.061818e-02 2.561272e-02 2.418717e-02
-2.501993e-02 3.373691e-02 9.857388e-03
-4.864116e-02 -8.512335e-03 1.183337e-03
-6.155466e-02 -1.522052e-02 -3.515348e-02
-5.470856e-02 4.156842e-02 -6.001683e-02
1.094345e-03 -9.046374e-03 2.948530e-02
3.699798e-02 -6.046380e-02 -4.113456e-02
-5.500273e-02 -2.393875e-02 -6.682138e-02
-1.418865e-02 -2.560166e-02 2.181671e-02
4.584848e-02 3.493683e-02 1.143554e-03
9.840671e-03 -5.996019e-04 2.898520e-02
-2.490252e-02 -6.412591e-02 -6.977213e-02
8.403490e-03 4.794922e-03 2.648517e-02
-1.460618e-02 -6.487975e-02 -7.207521e-02
-9.241057e-03 9.425242e-04 2.936135e-02
3.911900e-02 1.937801e-02 1.386081e-02
4.576901e-02 -3.637665e-02 -8.766118e-03
-7.283927e-04 4.214443e-05 2.745738e-02
-2.752286e-02 5.491320e-02 -5.026761e-02
2.016265e-02 -3.695413e-03 2.353471e-02
6.065496e-03 2.181252e-03 2.731623e-02
-3.978232e-02 -2.395125e-02 7.217063e-03
-2.108290e-02 2.694525e-02 -1.005062e-01
2.679751e-02 5.783267e-02 -7.741999e-02
1.881448e-03 4.493537e-05 -1.059143e-01
1.860966e-02 8.315978e-03 -1.152548e-01
-3.381298e-02 8.598440e-03 2.042843e-02
-4.329238e-02 -5.319672e-02 -5.136954e-02
-4.203208e-02 -4.298487e-02 -5.747227e-02
-4.966654e-02 4.121348e-02 -9.767826e-03
2.227827e-02 -3.300843e-02 -9.453555e-02
-6.285779e-03 2.245027e-03 2.637351e-02
-4.039489e-02 2.755177e-02 9.783408e-03
1.853690e-02 1.897152e-02 2.257504e-02
4.550361e-03 -6.312829e-02 -1.071308e-02
3.170829e-02 -6.662206e-03 2.257846e-02
4.572338e-02 -1.493354e-02 -9.563803e-02
3.887351e-03 7.226527e-03 2.771982e-02
-4.309245e-02 2.133017e-02 8.534937e-03
2.485490e-02 4.640506e-03 2.549594e-02
-4.831171e-02 -7.914696e-03 2.271917e-03
-6.195915e-02 -2.245862e-02 -7.309409e-02
-1.420686e-02 -2.187129e-02 2.532287e-02
2.944164e-02 2.187778e-03 2.363703e-02
2.348887e-03 7.819158e-03 2.820590e-02
5.765212e-02 -1.306226e-02 -8.052372e-02
2.040631e-02 -6.056248e-02 -4.355257e-02
4.583639e-03 7.717827e-03 2.612583e-02
1.305384e-02 -1.798418e-02 2.350745e-02
-3.166085e-02 4.906290e-03 2.238921e-02
-5.355376e-03 -1.244088e-03 2.787174e-02
2.201179e-03 -6.295255e-02 -1.849952e-02
-1.660805e-02 2.503166e-02 -1.097284e-01
7.045751e-02 2.247439e-03 -3.319115e-02
3.167555e-02 4.466797e-03 -9.916994e-02
-3.011488e-02 -4.660191e-02 -4.691202e-03
-2.502760e-02 -5.773719e-02 -3.140888e-02
-1.839782e-02 1.850170e-02 2.635482e-02
-6.711122e-04 4.804532e-02 1.235785e-02
-2.271410e-02 4.684739e-02 -9.573372e-02
-3.181079e-02 -5.347296e-02 -7.570226e-02
5.029025e-02 1.704555e-03 5.736726e-03
6.173631e-02 -1.906935e-02 -3.419245e-02
3.967166e-02 2.341399e-04 1.729481e-02
1.669500e-03 -6.869309e-02 -4.874072e-02
-9.306283e-03 -3.706977e-03 2.932752e-02
3.526031e-02 2.192661e-02 1.704127e-02
1.730976e-03 7.276987e-03 2.619758e-02
3.211668e-03 9.049122e-03 2.910420e-02
9.075009e-03 -2.488007e-03 2.905884e-02
5.599591e-03 2.790713e-03 2.779595e-02
5.073095e-03 3.295296e-03 2.941282e-02
1.878431e-02 3.662123e-02 1.377430e-02
1.930421e-03 6.890275e-02 -2.845155e-02
2.093589e-02 5.891106e-02 -7.625341e-03
7.769291e-03 5.668581e-02 -6.824024e-03
5.938789e-02 3.707964e-03 -4.790323e-03
5.758069e-02 2.061051e-02 -5.372736e-03
-2.973933e-04 8.211697e-04 2.779479e-02
-2.973899e-02 5.279915e-02 -5.852093e-03
-5.047092e-03 -4.425687e-03 -1.110669e-01
7.878817e-03 1.070532e-02 -1.076958e-01
-1.000406e-02 5.033481e-02 8.165314e-03
-4.969823e-02 -3.812345e-02 -2.365313e-02
-5.106846e-02 -2.109232e-02 -5.916043e-03
-2.180915e-02 -4.638455e-02 7.782143e-03
-1.887309e-02 -4.917155e-02 -3.058830e-03
-5.093297e-03 -5.777200e-03 -1.091707e-01
4.611851e-02 -2.628232e-02 5.784971e-03
9.422517e-04 -1.423642e-03 2.937254e-02
3.771551e-02 -3.666792e-02 8.912787e-03
-4.750759e-03 1.534288e-03 -1.182814e-01
1.251676e-03 -4.534314e-02 7.589166e-03
-1.515329e-02 4.854026e-02 6.927601e-03
-5.220371e-02 4.678948e-03 7.411745e-03
-5.857656e-02 -3.678608e-02 -4.975160e-02
-3.156849e-02 -2.797337e-02 1.176779e-02
3.364152e-02 2.476978e-02 1.090048e-02
1.405800e-02 -4.036134e-02 1.180040e-02
-4.313922e-02 7.589669e-03 1.428390e-02
6.468452e-04 7.791989e-04 3.004374e-02
-4.487771e-02 -5.422233e-03 1.251749e-02
-1.418459e-04 -9.023822e-03 -1.205689e-01
3.862523e-02 6.427051e-03 1.553815e-02
6.063083e-02 3.618920e-02 -4.499631e-02
2.411885e-02 3.818123e-02 1.437521e-02
-1.207166e-02 -1.976552e-02 -1.115893e-01
-6.428014e-02 2.229978e-02 -5.061007e-02
4.906120e-02 1.136522e-02 -9.450602e-02
1.946681e-02 2.970274e-02 1.830095e-02
1.412123e-02 4.156118e-02 1.600685e-02
-1.862790e-04 5.871139e-04 2.801421e-02
2.975224e-02 -1.765810e-02 1.970177e-02
2.984746e-02 -2.974887e-02 1.523487e-02
8.623092e-03 3.623201e-02 -1.071229e-01
-2.305506e-03 -6.106391e-03 -1.159380e-01
1.082399e-02 -4.018654e-02 1.249550e-02
-3.626223e-02 2.053982e-02 1.743501e-02
-2.497565e-02 3.018865e-02 1.382795e-02
3.103291e-02 2.090738e-02 1.954157e-02
4.169931e-04 -3.307903e-05 -1.204186e-01
5.192108e-02 3.194344e-02 -6.118802e-02
-1.414899e-03 2.078102e-05 2.830850e-02
6.884987e-02 2.021252e-02 -4.729208e-02
-2.625283e-04 3.886752e-02 1.794752e-02
-2.278903e-02 -2.748363e-02 1.933110e-02
-1.245068e-02 -6.427727e-02 -7.160647e-02
-2.807357e-02 2.034874e-02 1.941450e-02
3.908275e-02 -8.458886e-03 1.525378e-02
-5.992811e-03 -3.718685e-02 1.665890e-02
-1.378015e-02 3.190048e-02 1.912512e-02
3.419371e-02 -4.046556e-03 2.112732e-02
-9.343347e-04 3.253180e-02 1.830054e-02
2.506154e-04 -8.957183e-04 2.916147e-02
-5.857629e-02 3.947665e-02 -5.110841e-02
7.094898e-03 3.666813e-02 1.540315e-02
1.869569e-02 -3.375022e-02 2.026979e-02
-2.409554e-02 2.890958e-02 1.669084e-02
3.839922e-02 -7.081501e-03 -9.589766e-02
2.108412e-02 -3.058196e-02 2.035307e-02
3.198363e-02 5.341605e-02 -8.313414e-02
-4.411683e-02 2.885818e-02 -9.329823e-02
-3.209991e-02 -1.807331e-02 1.962545e-02
1.509285e-02 -6.061837e-02 -5.597501e-02
-6.652320e-04 -1.433698e-03 2.883453e-02
3.427469e-02 6.260467e-03 1.727374e-02
4.181480e-02 -3.040692e-02 -7.890291e-02
-5.955775e-02 -1.863772e-02 -6.045454e-02
2.999711e-02 -1.184239e-02 2.068573e-02
-7.413685e-03 -3.456316e-02 1.558165e-02
-2.784491e-02 4.828356e-02 -8.090114e-02
-1.069694e-02 6.140448e-02 -4.268650e-02
-3.645972e-02 1.173873e-02 1.898409e-02
2.260846e-02 2.148630e-02 1.931788e-02
3.955172e-02 4.978274e-02 -4.254335e-02
9.125858e-04 3.620655e-04 2.786862e-02
9.386111e-04 1.024614e-04 2.808229e-02
-1.629373e-02 -2.066790e-02 2.140213e-02
-3.906113e-02 4.307192e-02 -8.578327e-02
2.323034e-04 -5.791497e-02 -7.486398e-02
1.470192e-02 5.610707e-02 -6.577198e-02
-1.418816e-02 -2.790249e-02 2.322131e-02
-1.261108e-02 3.077686e-02 2.381289e-02
-1.735504e-02 4.772477e-02 -9.192945e-02
-1.371313e-02 6.791214e-02 -5.699694e-02
8.462100e-04 -2.926229e-02 2.050054e-02
1.401298e-02 2.654722e-02 2.213658e-02
-3.666301e-04 -4.713799e-04 2.891113e-02
6.093489e-02 -3.595399e-02 -6.379574e-02
2.256536e-02 -1.891263e-02 2.027203e-02
5.431287e-03 2.764332e-02 2.491852e-02
-6.630142e-02 -1.258853e-02 -6.865766e-02
2.580589e-02 1.209063e-02 2.342449e-02
4.233386e-02 -4.717741e-02 -6.097478e-02
-1.687244e-02 -3.325030e-03 2.525003e-02
3.497306e-02 -7.997790e-03 -9.995572e-02
-7.060365e-02 7.285461e-03 -5.762754e-02
-3.039213e-02 -6.300237e-02 -6.331416e-02
1.250170e-04 6.577669e-04 3.034602e-02
3.843425e-03 1.525251e-03 -1.086498e-01
-2.791092e-02 -5.693476e-02 -5.327487e-02
2.675642e-02 4.589074e-04 2.276070e-02
-2.659033e-02 -7.905797e-03 2.106431e-02
1.224445e-02 -2.473875e-02 2.437719e-02
-7.856945e-03 -2.627240e-02 2.452983e-02
1.153892e-02 -6.225870e-02 -7.501222e-02
-1.473469e-02 2.360711e-02 2.539313e-02
3.902403e-03 -2.802657e-02 2.581644e-02
-2.416712e-02 -6.706222e-03 2.420589e-02
-9.517900e-04 5.320053e-05 2.947202e-02
-2.082821e-02 1.721668e-02 2.097583e-02
1.001173e-02 -1.608837e-02 -1.065944e-01
5.084242e-02 4.645619e-02 -6.323216e-02
-4.268549e-02 5.078712e-02 -1.934491e-02
-7.705682e-03 -2.723655e-02 2.470325e-02
2.075307e-02 2.195473e-02 2.151297e-02
5.307260e-02 -3.723075e-02 -2.460787e-02
-3.693636e-02 -4.352382e-02 -8.979671e-02
-6.024918e-02 3.225787e-02 -2.962035e-02
7.393618e-03 -1.703245e-02 -1.163124e-01
1.195650e-04 -1.676434e-04 2.996857e-02
-2.476898e-02 2.110091e-04 2.165381e-02
-6.596967e-02 -1.134001e-03 -2.639535e-02
4.631598e-02 -4.346659e-02 -2.308656e-02
-2.118694e-02 6.551621e-02 -2.784698e-02
-3.791308e-02 -3.744007e-02 1.033791e-03
-2.975379e-02 -8.663601e-03 -1.044999e-01
-1.507101e-02 -2.130640e-02 2.426360e-02
-5.889447e-02 -2.849993e-02 -4.788882e-02
1.870542e-02 -1.584735e-02 2.260752e-02
-4.401943e-03 2.498002e-02 2.588418e-02
-3.042346e-04 -6.837470e-04 3.046437e-02
-3.343097e-02 -2.544114e-02 1.314436e-02
6.035167e-02 -3.337366e-02 -4.139193e-02
6.561912e-02 1.684892e-02 -2.002537e-02
-1.635006e-02 1.598307e-02 2.671803e-02
9.341549e-04 -2.419872e-02 2.629954e-02
1.467318e-02 -1.881543e-02 2.360283e-02
-2.336041e-02 -3.401938e-02 -1.042667e-01
-2.130935e-02 -1.477940e-02 2.552049e-02
-1.094225e-02 -2.912263e-02 -1.048403e-01
-2.699192e-02 2.326676e-02 -1.044257e-01
1.364766e-03 -7.610188e-04 2.891398e-02
-3.994086e-02 5.054094e-02 -4.486709e-02
-1.332874e-02 -8.750565e-03 -1.111059e-01
-2.237545e-02 4.677259e-03 2.410466e-02
-2.298761e-02 3.183104e-03 -1.140901e-01
1.455109e-02 6.877157e-02 -5.330479e-02
6.614010e-03 2.184585e-02 2.660792e-02
1.392292e-03 2.126992e-02 2.397028e-02
4.102257e-02 -1.645087e-02 7.175472e-03
5.397680e-02 -1.006960e-02 -6.775675e-03
-5.917203e-02 2.904454e-02 -1.579771e-02
-1.401605e-04 3.957488e-04 2.675267e-02
-2.140764e-02 -8.017132e-03 2.317180e-02
2.040438e-02 3.525892e-02 -1.097443e-01
2.354475e-02 7.263520e-03 2.677253e-02
6.140699e-02 -7.586767e-03 -1.671465e-02
-6.749938e-03 2.132974e-02 2.295082e-02
1.100284e-02 2.228496e-02 2.633935e-02
4.337870e-03 1.226549e-02 -1.182805e-01
1.919064e-02 1.590835e-02 2.558072e-02
-2.233498e-02 5.039084e-03 2.639916e-02
3.563302e-03 -2.254002e-02 2.424544e-02
-6.655516e-04 2.629776e-03 2.793580e-02
-4.308470e-03 2.572610e-02 2.542594e-02
-3.944709e-02 9.481311e-03 -9.656925e-02
1.352246e-02 -1.618426e-02 2.385115e-02
2.318895e-02 -5.151821e-02 -1.608735e-04
1.323033e-02 6.485728e-02 -1.650542e-02
-4.787412e-02 -1.738088e-02 1.142181e-04
7.799687e-03 -1.994377e-02 2.476960e-02
3.796744e-02 9.577676e-03 -1.063155e-01
-1.442318e-02 -4.935321e-02 3.325424e-03
-4.311843e-02 -3.561543e-02 -9.101679e-02
-1.534907e-03 3.719935e-04 2.868901e-02
-4.000841e-02 -4.711030e-02 -5.097593e-02
5.564489e-02 4.377196e-02 -2.980819e-02
2.268629e-02 6.042258e-03 2.452771e-02
-6.716468e-02 1.381788e-02 -2.654876e-02
2.065482e-02 -1.194859e-02 2.558316e-02
-1.635667e-02 1.663513e-02 2.607929e-02
1.278038e-02 -6.110215e-02 -7.145458e-03
-1.705641e-02 -1.556962e-02 2.356021e-02
-1.871210e-02 1.135429e-02 2.686770e-02
-6.751963e-02 -1.022569e-02 -4.899458e-02
-1.123397e-04 6.444731e-04 2.819289e-02
-4.689912e-05 1.039802e-03 2.798730e-02
-5.811567e-02 1.704936e-02 -4.788969e-03
3.131526e-02 5.258785e-02 -1.930688e-02
2.348769e-02 3.241585e-02 -1.086939e-01
5.673787e-02 3.173991e-02 -1.170099e-02
3.364205e-02 1.128605e-02 -1.108562e-01
5.618889e-02 1.994536e-02 -5.711798e-02
1.827699e-02 1.374841e-02 2.661459e-02
-4.467999e-02 -3.254939e-02 1.344052e-03
3.915100e-02 -4.084839e-02 -7.609179e-02
1.391582e-02 -5.951359e-02 -2.068338e-02
-6.684428e-04 4.645838e-04 3.036531e-02
-1.245557e-02 1.813684e-02 2.529672e-02
-1.044196e-02 -6.302370e-02 -1.188884e-02
3.298735e-02 -4.461350e-02 -7.028642e-03
1.793506e-02 9.403318e-03 2.446579e-02
-7.391891e-03 -6.481908e-03 -1.073268e-01
7.212161e-04 5.384330e-02 -8.308460e-02
5.280527e-02 -1.971609e-02 -1.258982e-02