# vtk DataFile Version 2.0
Electric current density generated by TTH
ASCII
DATASET UNSTRUCTURED_GRID
POINTS 3323 double
-1.081832e-05 2.820012e-05 -2.924383e-22
-2.576903e-05 -1.491769e-05 -9.163213e-07
-8.075752e-06 2.871886e-05 8.653280e-07
-2.436773e-05 1.717798e-05 -8.828180e-07
7.721148e-06 2.719590e-05 -9.375165e-07
-2.642741e-05 1.156923e-05 1.183035e-06
7.963464e-06 -2.730876e-05 1.052430e-06
2.567294e-05 -1.520451e-05 8.607419e-07
2.573683e-05 1.510410e-05 -8.568314e-07
-2.893009e-05 7.023041e-06 9.206126e-07
2.924463e-05 5.594043e-06 -9.168686e-07
-1.151525e-05 2.792278e-05 -2.924383e-22
2.924463e-05 -5.594043e-06 9.168686e-07
-1.048617e-05 -2.792835e-05 8.659384e-07
2.729861e-05 -7.159577e-06 -8.968453e-07
2.729861e-05 7.159577e-06 8.968453e-07
-2.850643e-05 -8.560746e-06 9.257132e-07
-1.361409e-05 2.654679e-05 -8.639760e-07
-2.475405e-05 -1.655751e-05 -9.116149e-07
-1.804705e-05 -2.183025e-05 -9.772757e-07
6.393777e-06 -2.916181e-05 -8.440682e-07
1.281347e-07 -2.832500e-05 -9.780904e-07
-1.220508e-05 2.762822e-05 -2.924383e-22
1.191297e-05 -2.572914e-05 -9.970926e-07
1.442148e-05 2.401144e-05 6.514049e-07
-1.516084e-05 2.378129e-05 8.797667e-07
-2.399369e-05 -1.416463e-05 3.306172e-07
-9.393337e-06 2.828242e-05 -8.939562e-07
-2.935185e-05 -5.268144e-06 -8.764325e-07
-1.702771e-05 2.260476e-05 -9.602552e-07
1.089630e-06 2.821324e-05 9.075988e-07
-1.870780e-05 2.325634e-05 -8.515893e-07
-4.560558e-06 2.793579e-05 -9.640115e-07
-1.288739e-05 2.731663e-05 -2.924383e-22
-1.103899e-05 2.774032e-05 -8.425042e-07
-2.891172e-05 6.901926e-06 -9.568981e-07
2.576492e-05 1.075108e-05 -4.827720e-07
2.576492e-05 -1.075108e-05 4.827720e-07
1.611545e-05 -2.338082e-05 -1.024364e-06
-2.834264e-05 1.683933e-06 -1.021929e-06
2.792737e-05 -9.512310e-07 5.368257e-07
2.792737e-05 9.512310e-07 -5.368257e-07
-6.625607e-06 2.751709e-05 9.624797e-07
-1.325885e-05 2.506198e-05 9.970060e-07
-1.356175e-05 2.698818e-05 -2.924383e-22
-3.821877e-06 2.959250e-05 -8.600058e-07
2.980534e-05 9.828756e-07 8.758081e-07
2.980534e-05 -9.828756e-07 -8.758081e-07
-2.697628e-05 -7.177472e-06 4.753631e-07
2.632575e-05 -8.983272e-06 2.066367e-08
2.632575e-05 8.983272e-06 -2.066367e-08
-8.375219e-06 2.664456e-05 -5.086705e-07
2.378764e-05 1.532518e-05 -9.575707e-07
2.378764e-05 -1.532518e-05 9.575707e-07
1.970963e-05 -2.246603e-05 -8.109923e-07
-1.422774e-05 2.664309e-05 -2.924383e-22
1.963514e-05 2.247389e-05 8.552695e-07
1.723590e-05 -2.190673e-05 -3.685323e-07
2.509026e-05 1.608430e-05 8.925323e-07
2.509026e-05 -1.608430e-05 -8.925323e-07
-2.171144e-05 2.045013e-05 -8.715940e-07
1.059085e-05 -2.796432e-05 -7.929691e-07
-1.717871e-05 -2.435597e-05 -8.911019e-07
-1.709760e-05 2.311792e-05 1.166091e-06
-2.798261e-05 9.341111e-07 6.338189e-07
-1.802555e-05 2.231684e-05 -1.149524e-06
-1.488496e-05 2.628157e-05 -2.924383e-22
1.953513e-05 -2.095692e-05 1.138340e-06
1.953513e-05 2.095692e-05 -1.138340e-06
2.585296e-06 2.797067e-05 -7.608435e-07
6.275823e-06 2.916191e-05 8.683120e-07
-1.405888e-06 -2.778952e-05 1.461766e-07
-2.665465e-05 1.339603e-05 -8.663882e-07
2.872027e-05 -7.885798e-06 9.098251e-07
2.872027e-05 7.885798e-06 -9.098251e-07
-2.627358e-05 9.135337e-06 3.008966e-08
7.971426e-06 2.876221e-05 8.520883e-07
-1.553300e-05 2.590384e-05 -2.924383e-22
-1.930392e-05 -2.278343e-05 -8.367337e-07
1.072102e-06 -2.831339e-05 -9.839131e-07
-2.599691e-05 -1.147558e-05 -1.036297e-06
-2.269421e-07 -2.986161e-05 -8.360284e-07
-1.890274e-05 -2.042035e-05 1.560667e-07
-1.731039e-05 -2.241799e-05 -9.767798e-07
2.380503e-05 -1.454555e-05 -4.325172e-07
2.380503e-05 1.454555e-05 4.325172e-07
2.957372e-05 3.991977e-06 -8.564736e-07
2.957372e-05 -3.991977e-06 8.564736e-07
-1.617145e-05 2.551013e-05 -2.924383e-22
2.043439e-05 -2.175604e-05 -8.507526e-07
2.048189e-05 2.169472e-05 8.624827e-07
2.192135e-05 2.022856e-05 8.692991e-07
2.192135e-05 -2.022856e-05 -8.692991e-07
-1.915850e-05 2.017591e-05 -1.277455e-07
-3.657610e-06 2.846891e-05 -1.153788e-06
2.559678e-05 -1.523144e-05 -9.076534e-07
2.559678e-05 1.523144e-05 9.076534e-07
-2.688583e-05 -1.298286e-05 8.422100e-07
1.505093e-05 2.576836e-05 8.565065e-07
-1.679994e-05 2.510069e-05 -2.924383e-22
-1.062158e-05 2.667048e-05 -1.155056e-06
-2.531739e-05 -1.152249e-05 1.229950e-08
3.505269e-06 2.771852e-05 5.282132e-07
1.542873e-05 2.391231e-05 1.058557e-06
1.840366e-05 -2.140227e-05 9.011505e-07
1.840366e-05 2.140227e-05 -9.011505e-07
1.612141e-05 2.380173e-05 -1.164760e-06
-2.824296e-05 9.559969e-06 -8.799332e-07
-2.591306e-05 -1.232484e-05 1.151584e-06
2.334232e-05 -1.692473e-05 -1.180687e-06
-1.741806e-05 2.467578e-05 -2.924383e-22
2.334232e-05 1.692473e-05 1.180687e-06
-2.295511e-05 1.915393e-05 -7.996787e-07
-1.509783e-05 2.577036e-05 -8.310711e-07
1.613926e-05 2.323658e-05 9.536179e-07
1.022909e-05 -2.640520e-05 -9.724469e-07
-3.738347e-07 -2.983565e-05 8.602743e-07
-2.771814e-05 -3.336531e-06 -4.832229e-07
-1.940242e-05 -2.266832e-05 8.602590e-07
2.439142e-06 -2.974985e-05 -8.488836e-07
-2.304154e-05 -1.579961e-05 5.259162e-07
-1.802545e-05 2.423564e-05 -2.924383e-22
-7.205954e-06 2.898060e-05 8.354522e-07
-2.663266e-05 -1.106217e-05 1.181610e-06
-5.457666e-06 2.935524e-05 8.402896e-07
-2.779867e-05 4.357697e-06 8.156953e-07
1.208520e-05 -2.735684e-05 7.876802e-07
-1.283864e-05 2.494833e-05 -7.204974e-07
1.772228e-05 2.249723e-05 -1.134919e-06
1.765069e-05 -2.255088e-05 1.134258e-06
-1.085323e-05 2.777101e-05 8.804923e-07
-3.774954e-06 2.847627e-05 1.159541e-06
-1.862171e-05 2.378055e-05 -2.924383e-22
-1.166363e-05 2.620536e-05 1.148535e-06
1.229488e-05 2.715918e-05 -8.841027e-07
5.818391e-06 2.775932e-05 -1.003141e-06
-2.992964e-05 -1.518467e-06 -7.124906e-07
5.074017e-06 2.755958e-05 -6.714593e-07
-1.682994e-06 -2.848036e-05 1.093235e-06
-9.810723e-06 -2.678763e-05 1.092182e-06
-1.121052e-05 -2.622874e-05 1.090591e-06
-1.953887e-05 -2.079025e-05 1.093529e-06
-8.333518e-06 -2.743117e-05 -1.144251e-06
-1.920649e-05 2.331080e-05 -2.924383e-22
-1.279641e-05 -2.565008e-05 -1.142984e-06
-3.596880e-06 -2.850224e-05 -1.160250e-06
1.875917e-05 -2.117792e-05 -9.535706e-07
1.875917e-05 2.117792e-05 9.535706e-07
-2.076011e-05 -1.975604e-05 -1.140900e-06
1.069256e-05 2.670208e-05 1.168212e-06
-2.556984e-05 1.299855e-05 -1.148623e-06
6.951608e-06 -2.770361e-05 1.106905e-06
2.270548e-05 -1.692540e-05 9.741908e-07
2.270548e-05 1.692540e-05 -9.741908e-07
-1.977943e-05 2.282668e-05 -2.924383e-22
-2.402702e-05 -1.528005e-05 -1.066947e-06
2.752732e-05 -4.932422e-06 5.787527e-07
2.752732e-05 4.932422e-06 -5.787527e-07
1.099100e-05 2.555710e-05 -9.993593e-08
1.704282e-05 2.207469e-05 4.085810e-07
-2.531839e-05 1.583460e-05 -8.362300e-07
-2.634174e-05 -1.408206e-05 8.287186e-07
-2.638973e-05 -1.412654e-05 -7.575957e-07
-2.510676e-05 1.198763e-05 1.167790e-07
-2.666114e-05 -8.717314e-06 -7.099709e-07
-2.034016e-05 2.232847e-05 -2.924383e-22
1.613112e-05 -2.393480e-05 1.184912e-06
-2.756158e-05 -5.762718e-06 8.359828e-07
2.223772e-05 1.998776e-05 -7.956407e-07
2.230384e-05 -1.989997e-05 8.059409e-07
9.802558e-06 2.603350e-05 6.514793e-08
-7.954339e-06 2.758327e-05 1.154945e-06
3.876638e-06 2.961488e-05 8.308360e-07
6.300721e-06 2.805584e-05 1.166332e-06
1.715313e-05 2.446834e-05 8.157236e-07
-2.004964e-05 2.054567e-05 1.154967e-06
-2.088836e-05 2.181649e-05 -2.924383e-22
-1.442397e-05 2.481117e-05 1.152798e-06
-2.437960e-05 -1.744101e-05 -7.019469e-07
-2.302010e-05 1.563769e-05 -1.762525e-07
2.766157e-05 -3.316608e-06 -3.197377e-07
2.766157e-05 3.316608e-06 3.197377e-07
-1.888985e-05 2.313137e-05 8.339769e-07
1.252869e-05 2.709701e-05 8.453394e-07
2.286198e-05 1.590134e-05 -2.751043e-07
2.286198e-05 -1.590134e-05 2.751043e-07
-3.040566e-06 -2.840206e-05 1.107662e-06
-2.142367e-05 2.129106e-05 -2.924383e-22
-8.607113e-06 -2.723350e-05 1.106417e-06
-1.242880e-05 -2.570880e-05 1.104068e-06
-2.048061e-05 -1.990000e-05 1.104412e-06
1.848090e-05 2.351043e-05 7.908066e-07
1.775875e-05 -2.405626e-05 7.947121e-07
1.780987e-05 2.404125e-05 -7.736671e-07
1.034101e-05 2.803249e-05 -8.187947e-07
2.834758e-05 -8.461739e-07 -1.001631e-06
2.834758e-05 8.461739e-07 1.001631e-06
1.949548e-05 2.255445e-05 -8.842222e-07
-2.194576e-05 2.075250e-05 -2.924383e-22
1.949548e-05 -2.255445e-05 8.842222e-07
2.066811e-05 2.148044e-05 -8.872114e-07
2.066811e-05 -2.148044e-05 8.872114e-07
-2.221251e-05 -1.995904e-05 8.361727e-07
-1.408190e-05 -2.632888e-05 8.404033e-07
-7.896085e-06 -2.878613e-05 8.491057e-07
-4.266265e-06 -2.955629e-05 8.358887e-07
1.536487e-05 2.567600e-05 -7.704558e-07
1.532638e-05 -2.567739e-05 7.919030e-07
-2.680834e-05 7.709331e-06 4.263946e-07
-2.245432e-05 2.020114e-05 -2.924383e-22
1.604150e-05 2.280241e-05 3.846484e-07
-6.438045e-06 -2.830775e-05 -1.193793e-06
-1.022618e-05 -2.716985e-05 -1.193793e-06
-2.811720e-05 -1.913886e-06 8.604233e-07
-2.782122e-05 1.105899e-05 -7.505321e-07
6.043215e-06 -2.926146e-05 8.188598e-07
2.689542e-05 -7.249933e-06 3.040026e-07
2.689542e-05 7.249933e-06 -3.040026e-07
2.889424e-05 -2.275000e-06 1.193678e-06
2.889424e-05 2.275000e-06 -1.193678e-06
-2.294904e-05 1.963732e-05 -2.924383e-22
-2.483922e-05 -1.253235e-05 -1.156184e-07
-2.794325e-05 5.789696e-06 -1.096152e-06
1.140991e-05 -2.539268e-05 -2.295572e-07
-1.890790e-05 -2.201024e-05 -1.193952e-06
-2.741576e-05 4.777220e-06 1.742320e-07
-2.975858e-05 2.808691e-06 -8.060921e-07
2.647168e-05 1.396298e-05 7.629051e-07
2.648550e-05 -1.397905e-05 -7.385242e-07
-4.182533e-07 -2.901244e-05 -1.193958e-06
-2.700940e-05 -1.283058e-05 -7.936863e-07
-2.342960e-05 1.906139e-05 -2.924383e-22
2.728143e-05 5.878772e-06 -4.585358e-07
2.728143e-05 -5.878772e-06 4.585358e-07
-2.600945e-05 -1.252300e-05 -1.185397e-06
-2.086668e-05 2.141851e-05 7.929425e-07
-2.766921e-05 3.156157e-06 -2.768915e-07
1.804110e-06 -2.783123e-05 4.126054e-07
1.133024e-06 -2.787177e-05 4.263270e-07
1.222554e-05 -2.727993e-05 -8.024838e-07
-2.713726e-05 -7.986418e-06 9.509328e-07
-1.637375e-05 2.270825e-05 6.299492e-07
-2.389571e-05 1.847371e-05 -2.924383e-22
[...]
POINT_DATA 3323
VECTORS 10.000GHz_fone_imag double
2.329439e+10 8.438337e+09 3.226895e+08
-1.263153e+10 2.198348e+10 3.974936e+08
2.236526e+10 7.433192e+09 -8.851274e+08
1.524215e+10 1.988573e+10 -6.257535e+08
3.036666e+10 -6.803219e+09 1.071385e+08
1.133772e+10 2.575506e+10 -2.350716e+08
-3.091464e+10 -7.567233e+09 1.132905e+08
-1.297120e+10 -2.160453e+10 9.033942e+08
1.290405e+10 -2.127507e+10 6.448398e+08
6.525720e+09 2.498741e+10 -8.670222e+08
4.364074e+09 -2.485849e+10 6.602885e+08
2.197530e+10 9.701487e+09 -5.736465e+08
-4.354393e+09 -2.477392e+10 5.628910e+08
-2.379902e+10 9.474443e+09 -6.925657e+08
-8.453713e+09 -2.902039e+10 -7.674547e+08
8.659625e+09 -2.884047e+10 -6.434496e+08
-8.253625e+09 2.636663e+10 -3.585820e+08
2.243119e+10 1.164975e+10 -7.337914e+08
-1.409311e+10 2.111222e+10 -6.523214e+08
-2.627541e+10 2.067791e+10 1.316777e+06
-2.477748e+10 -6.584578e+09 1.422326e+09
-3.408942e+10 -1.555242e+09 -4.793314e+08
2.249913e+10 9.006798e+09 -5.427379e+08
-2.789335e+10 -1.383448e+10 3.733711e+08
3.121706e+10 -1.984938e+10 -9.521910e+08
2.690616e+10 1.758714e+10 5.938768e+07
-1.718974e+10 2.745404e+10 -3.919630e+08
2.427352e+10 8.389301e+09 1.834048e+07
-4.131542e+09 2.472375e+10 5.270079e+08
2.400514e+10 2.142184e+10 1.508999e+09
3.151695e+10 -1.416544e+09 -2.470089e+08
1.999110e+10 1.497777e+10 -7.217347e+08
3.349853e+10 5.319517e+09 -9.750651e+08
2.278521e+10 1.115173e+10 -1.363470e+09
2.227300e+10 9.065191e+09 8.619820e+08
6.537401e+09 2.559871e+10 2.207389e+08
1.227981e+10 -2.990831e+10 -4.285984e+08
-1.240798e+10 -2.977750e+10 -4.127301e+08
-2.666770e+10 -1.658889e+10 5.667909e+08
-2.564002e+06 3.159883e+10 -7.113121e+08
-1.527538e+09 -3.195176e+10 5.862524e+08
1.793925e+09 -3.236580e+10 5.893833e+08
3.107505e+10 6.375664e+09 -1.902559e+08
2.693663e+10 1.496217e+10 -4.701191e+08
2.166188e+10 1.053447e+10 -4.412212e+07
2.461226e+10 8.157117e+08 -4.948885e+08
4.430956e+08 -2.669734e+10 3.533753e+07
-1.452552e+09 -3.059100e+10 -3.161525e+08
-9.072577e+09 2.957099e+10 -4.202249e+08
-1.132449e+10 -3.092172e+10 -1.706286e+09
1.144292e+10 -3.111210e+10 -3.918585e+07
3.012270e+10 9.733972e+09 -1.660575e+08
1.518858e+10 -2.634046e+10 4.122969e+08
-1.599064e+10 -2.661151e+10 2.587346e+08
-1.864179e+10 -1.518625e+10 -6.898933e+08
2.183276e+10 1.225519e+10 -6.620003e+08
1.770351e+10 -1.550348e+10 1.208754e+08
-2.671004e+10 -2.023981e+10 -7.576450e+08
1.243472e+10 -2.206367e+10 1.772911e+09
-1.366713e+10 -2.269187e+10 1.118780e+09
1.775845e+10 1.759666e+10 1.570680e+08
-2.284013e+10 -8.279575e+09 4.619115e+07
-2.123161e+10 1.454655e+10 -8.994125e+08
2.432468e+10 1.628957e+10 1.255936e+09
8.218331e+08 3.136056e+10 -5.569769e+08
2.626147e+10 2.246928e+10 -3.913957e+08
2.024471e+10 1.252257e+10 -9.085959e+08
-2.152854e+10 -1.886048e+10 2.577593e+08
2.271361e+10 -2.101471e+10 -1.053111e+08
3.367259e+10 -2.811740e+09 3.584125e+08
2.624199e+10 -5.176507e+09 -7.959601e+08
-3.286139e+10 1.580720e+09 6.107263e+08
1.027887e+10 2.330470e+10 -1.035584e+09
-6.706834e+09 -2.382915e+10 4.565828e+08
6.928399e+09 -2.378685e+10 5.737904e+08
9.568924e+09 3.153834e+10 4.047120e+08
2.404216e+10 -8.163726e+09 7.687020e+08
2.088277e+10 1.147759e+10 5.787265e+07
-2.021958e+10 1.718105e+10 6.376262e+08
-3.156321e+10 -3.593483e+08 -1.439149e+09
-1.292049e+10 2.841464e+10 -4.983352e+08
-2.590092e+10 4.281740e+08 5.264745e+08
-2.320691e+10 2.276279e+10 8.485698e+08
-2.437973e+10 1.853184e+10 1.419817e+09
-1.633898e+10 -2.735971e+10 -8.862648e+07
1.684179e+10 -2.718974e+10 -6.710422e+08
3.443070e+09 -2.622718e+10 5.946447e+08
-3.377162e+09 -2.630219e+10 6.025346e+08
2.104586e+10 1.319465e+10 8.261400e+08
-1.974025e+10 -1.850000e+10 -7.133212e+08
1.949563e+10 -1.801540e+10 -6.560955e+08
1.760192e+10 -1.884373e+10 7.532672e+08
-1.901522e+10 -1.847513e+10 -4.840827e+08
2.441950e+10 2.150910e+10 5.949466e+08
3.274930e+10 5.004403e+09 -3.209928e+07
-1.229771e+10 -2.139958e+10 -4.620115e+08
1.288832e+10 -2.134051e+10 1.346320e+08
-1.027142e+10 2.181117e+10 4.141863e+08
2.047139e+10 -1.339922e+10 4.643167e+08
2.023832e+10 1.342357e+10 3.134083e+08
2.692861e+10 1.106067e+10 3.215209e+08
-1.425456e+10 3.169001e+10 -4.224519e+08
3.228841e+10 -3.293909e+09 9.536479e+08
2.725935e+10 -1.527033e+10 -9.561584e+08
-2.433335e+10 -1.870549e+10 1.189026e+09
2.258532e+10 -2.056359e+10 1.634898e+09
2.362385e+10 -1.730893e+10 -2.332873e+08
8.265919e+09 2.336529e+10 1.201270e+09
-1.255564e+10 2.624771e+10 -4.547093e+08
-1.715021e+10 -2.268215e+10 6.236024e+08
2.086551e+10 1.378499e+10 3.091373e+08
1.760970e+10 -2.360855e+10 -2.688705e+08
1.574985e+10 1.881541e+10 1.370856e+08
2.133466e+10 1.212076e+10 -6.471283e+08
2.524132e+10 -1.951404e+10 -2.054397e+08
-2.919245e+10 -1.155854e+10 2.879364e+08
-2.415828e+10 1.346425e+09 6.192638e+08
-4.025870e+09 3.189407e+10 7.118336e+08
-1.962505e+10 1.526243e+10 1.814460e+09
-2.573055e+10 -1.870548e+09 -6.128518e+08
-1.771232e+10 2.731698e+10 4.209682e+08
2.099000e+10 1.573577e+10 -1.562147e+09
2.504677e+10 5.978385e+09 -6.359479e+08
-1.133976e+10 2.913191e+10 1.230049e+08
2.432118e+10 3.907328e+09 7.339654e+07
3.565047e+09 3.036309e+10 -1.114097e+09
-2.200552e+10 -1.067171e+10 9.964694e+08
2.818076e+10 1.426273e+10 -5.163083e+08
2.380727e+10 -1.887183e+10 5.867790e+08
-2.453842e+10 -1.896998e+10 -1.365005e+08
2.518908e+10 9.779081e+09 1.602902e+08
2.902072e+10 2.179878e+09 -2.452416e+09
1.905692e+10 1.472753e+10 -2.592987e+08
2.680940e+10 1.236563e+10 -1.242920e+09
2.366679e+10 -1.109269e+10 6.135317e+07
2.903686e+10 -6.733259e+09 3.882604e+08
-1.700858e+09 2.384318e+10 -1.305466e+08
3.121901e+10 -5.643095e+09 1.223675e+09
-2.981223e+10 1.203519e+08 -8.727879e+08
-2.737938e+10 1.083561e+10 6.434222e+08
-2.669130e+10 1.088222e+10 -1.515258e+09
-2.122735e+10 2.107717e+10 -2.996224e+08
-2.738329e+10 9.118906e+09 -8.535487e+08
1.939984e+10 1.666159e+10 3.819190e+08
-2.560025e+10 1.370160e+10 -1.756615e+09
-2.889955e+10 3.658228e+09 -3.867926e+08
-2.511995e+10 -2.247131e+10 -7.366435e+08
2.552099e+10 -2.198903e+10 7.576657e+05
-2.019627e+10 2.069851e+10 9.640372e+08
2.877553e+10 -1.038241e+10 -3.063010e+08
1.307560e+10 2.618254e+10 -1.065044e+09
-2.976153e+10 -9.361635e+09 1.923159e+08
-1.901497e+10 -2.630467e+10 -4.638524e+08
1.667883e+10 -2.441244e+10 -1.971129e+09
1.800480e+10 1.668401e+10 1.466797e+08
-1.667846e+10 2.604861e+10 4.198943e+08
-5.981487e+09 -3.111218e+10 9.166741e+08
6.058518e+09 -3.120494e+10 9.324230e+08
2.889035e+10 -1.296123e+10 8.229842e+07
2.735222e+10 -2.079540e+10 3.874297e+08
1.258952e+10 2.114765e+10 -2.206196e+08
-1.113604e+10 2.244942e+10 -9.166781e+08
-1.129027e+10 2.234495e+10 4.461889e+07
1.453150e+10 2.959157e+10 4.698506e+08
-1.075719e+10 3.205551e+10 2.109866e+08
1.834868e+10 1.492358e+10 1.093091e+09
-2.383929e+10 -1.509316e+10 1.545645e+09
-7.940619e+09 3.134173e+10 1.071587e+09
1.659197e+10 -1.772775e+10 -4.039576e+08
-1.718244e+10 -1.867006e+10 4.327916e+08
3.267084e+10 -1.228145e+10 -2.066345e+08
2.846242e+10 8.190969e+09 -2.437810e+08
2.570081e+10 -3.790066e+09 5.783903e+08
3.054836e+10 -6.197461e+09 -1.789629e+09
2.053065e+10 -1.377928e+10 1.929537e+08
2.174036e+10 1.965922e+10 -3.233345e+08
1.764946e+10 1.847688e+10 -3.554937e+08
2.654314e+10 1.454037e+10 1.051261e+08
-1.443814e+10 1.984042e+10 3.908261e+08
1.850816e+10 2.707045e+10 5.190032e+07
-3.530104e+09 -3.127160e+10 7.791559e+08
3.459118e+09 -3.162971e+10 7.235398e+08
2.130121e+10 1.694473e+10 1.145114e+08
2.416282e+10 -1.119941e+10 3.903601e+08
1.937389e+10 -2.850462e+10 2.285482e+09
-1.933939e+10 -2.562019e+10 8.246072e+08
-3.068458e+10 3.236444e+09 -2.680339e+08
1.690548e+10 1.677402e+10 -4.677267e+08
-2.812186e+10 8.989359e+09 -2.516505e+08
-2.777232e+10 1.478072e+10 9.096121e+07
-2.162478e+10 2.208552e+10 -6.174606e+08
1.962729e+10 -1.572537e+10 4.055337e+07
-1.947695e+10 -1.494345e+10 3.566299e+08
1.980654e+10 -1.440527e+10 3.936033e+07
2.400131e+10 -9.132171e+09 6.819046e+08
6.075837e+08 -3.024652e+10 -1.848221e+08
2.045248e+08 -3.196237e+10 -3.306219e+08
2.020487e+10 -1.624710e+10 8.986659e+08
1.847594e+10 1.707857e+10 1.012176e+08
-2.001046e+10 -1.856803e+10 1.958951e+07
1.930097e+10 -1.721968e+10 1.038489e+09
-1.910387e+10 -1.865059e+10 8.301121e+07
-1.631907e+10 1.927403e+10 1.578422e+08
-2.242928e+10 1.242533e+10 -1.106522e+09
-2.446417e+10 6.339160e+09 6.332938e+08
-2.434077e+10 4.247948e+09 3.441934e+08
2.107259e+10 -1.229281e+10 -1.675171e+08
-2.143262e+10 -1.276125e+10 4.249227e+07
9.159687e+09 3.160824e+10 3.485427e+08
1.925905e+10 2.138310e+10 1.227683e+09
2.721557e+10 -1.996048e+10 -4.954642e+08
-2.754156e+10 6.803690e+09 6.495455e+07
-2.553149e+10 8.767638e+09 2.764947e+08
-1.784285e+09 3.301733e+10 2.016535e+08
8.819563e+09 2.343048e+10 3.162717e+08
-2.485048e+10 -4.786277e+09 -7.682894e+07
-8.627619e+09 -3.053383e+10 1.567392e+08
8.643040e+09 -3.043646e+10 1.708177e+08
-1.868082e+09 -2.882196e+10 6.808386e+08
2.417572e+09 -2.904471e+10 1.702572e+08
1.467762e+10 2.013301e+10 -7.598136e+08
-1.475057e+10 3.021008e+10 2.692249e+08
5.257618e+09 2.950999e+10 -1.154401e+09
-3.076441e+10 -1.453966e+10 -1.287508e+09
-2.319211e+10 2.085388e+10 1.223541e+08
7.066917e+09 3.242081e+10 -1.616187e+08
3.401307e+09 2.635862e+10 -1.089733e+09
1.124341e+10 -2.258005e+10 -2.822336e+08
-1.202674e+10 -2.265896e+10 2.504181e+07
-3.028866e+10 3.252675e+08 1.683826e+09
-1.053607e+10 2.326768e+10 1.931944e+08
1.628694e+10 1.839110e+10 -2.760163e+07
7.526723e+09 -3.335621e+10 2.746352e+08
-7.465070e+09 -3.303838e+10 2.291108e+08
-1.340520e+10 2.670840e+10 2.812999e+08
1.793726e+10 1.812379e+10 -1.198963e+09
3.427719e+09 3.195376e+10 -6.120914e+08
-3.254373e+10 -1.849931e+09 9.979103e+08
-3.572895e+10 -1.250016e+09 1.617638e+09
-2.391310e+10 -1.024952e+10 -4.569246e+08
-7.946097e+09 3.103860e+10 -6.037209e+08
2.566284e+10 1.908156e+10 -2.934952e+08
1.577651e+10 1.987169e+10 3.123393e+08
-2.494014e+10 2.490243e+09 9.855881e+08
-1.793316e+10 1.796896e+10 3.906104e+08
-3.024366e+10 3.307376e+09 3.081109e+08
-3.062984e+10 -5.144483e+09 2.022339e+08
1.053039e+10 2.222753e+10 4.039466e+08
-5.685174e+09 3.285000e+10 9.868494e+08
-3.421674e+09 -3.451797e+10 -1.025247e+09
4.247537e+09 -3.284234e+10 -7.894658e+08
9.658099e+09 2.819628e+10 -7.989175e+08
2.501166e+10 1.477724e+10 4.227958e+08
1.359446e+10 2.014087e+10 5.411277e+08
9.787408e+09 2.426516e+10 4.346960e+08
3.194300e+10 4.747645e+09 -2.347080e+08
9.629941e+09 -2.443096e+10 5.008521e+08
-1.114018e+10 -2.259506e+10 -6.129314e+08
2.924697e+10 1.699315e+10 4.162518e+08
-2.493548e+10 3.858323e+09 -1.384233e+09
-2.418219e+10 9.778198e+09 7.685579e+08
-2.125963e+10 2.058514e+10 -1.367667e+08
2.702972e+10 1.547917e+10 -2.444627e+08
-3.014543e+10 3.353219e+08 -2.787846e+08
1.389564e+10 1.989590e+10 1.748503e+08
-2.908288e+10 1.279977e+10 6.924425e+08
3.029148e+10 -1.675237e+10 -4.085108e+08
-2.531828e+10 1.927584e+10 7.356817e+08
-1.030274e+10 2.460433e+10 7.285994e+08
7.905980e+09 -2.353593e+10 -4.670324e+08
-7.846082e+09 -2.451695e+10 -6.843978e+08
-2.162374e+10 -1.255996e+10 -1.892250e+09
2.412501e+10 3.354679e+09 -8.463191e+07
1.789471e+10 1.652946e+10 3.186292e+08
-2.039305e+10 -2.612398e+10 -1.455118e+09
1.283093e+10 1.993530e+10 2.097795e+08
1.935724e+10 -2.524092e+10 1.238283e+09
1.379661e+10 2.170700e+10 -7.417098e+08
2.505803e+10 -2.074614e+10 2.084711e+09
-2.562194e+10 -1.933822e+10 8.497653e+08
-1.231733e+10 -2.196885e+10 5.121692e+07
1.142193e+10 -2.180814e+10 -3.013060e+08
-8.312940e+09 2.739177e+10 -9.314149e+08
2.717493e+10 8.955880e+09 2.594596e+08
3.514065e+09 2.672743e+10 -1.196065e+09
-5.570468e+09 2.699584e+10 -1.366613e+09
1.389836e+10 1.941749e+10 -3.837060e+08
-2.693725e+10 -1.292769e+10 -4.294852e+08
-1.263334e+10 -2.752257e+10 1.051908e+09
1.272947e+10 -2.636222e+10 1.885788e+08
-1.868015e+10 2.216640e+10 5.897315e+08
-2.926883e+10 1.133075e+10 -1.225427e+09
2.491338e+10 3.861982e+08 1.222204e+08
2.585221e+10 2.633479e+10 1.559395e+09
6.851968e+09 2.826740e+10 8.039704e+08
2.828159e+10 1.365168e+10 7.462252e+08
2.477676e+10 -1.167720e+10 1.700985e+08
1.268602e+10 2.206464e+10 4.640842e+08
-2.657284e+10 1.495838e+10 2.322952e+08
1.280080e+10 2.767022e+10 7.844853e+08
2.102065e+09 -2.551143e+10 1.270098e+08
-2.098850e+09 -2.535326e+10 9.076487e+07
-3.211573e+09 -3.092516e+10 -1.615215e+08
3.106094e+09 -3.048375e+10 -2.952769e+08
1.516800e+10 -2.969583e+10 -2.048064e+07
-1.569344e+10 -2.923354e+10 -6.083130e+08
2.161467e+10 1.213688e+10 3.025178e+08
-8.769222e+09 2.680988e+10 -8.634131e+08
1.230592e+10 2.138602e+10 5.769283e+08
-2.863009e+10 5.311468e+09 -4.453974e+08
-1.749438e+10 -2.098765e+10 -1.552256e+08
1.518529e+10 -1.976298e+10 9.216618e+08
1.452022e+10 2.166183e+10 -8.830870e+07
-2.742479e+10 -1.556736e+10 -8.589415e+08
-2.042845e+10 -1.403011e+10 -1.797695e+08
-6.018141e+09 2.502307e+10 7.070746e+07
6.975167e+09 2.331326e+10 -1.098556e+09
1.647589e+10 2.565014e+10 -5.672099e+07
1.063919e+10 2.500328e+10 5.371588e+08
1.228326e+10 2.145358e+10 -4.776358e+08
2.588772e+10 -1.327742e+10 1.338629e+07
9.900735e+09 2.804916e+10 -2.598113e+08
2.112991e+10 -2.113229e+10 1.908707e+09
-2.260401e+10 -1.974815e+10 6.206417e+08
-2.134504e+10 1.171600e+10 -3.281438e+07
-2.749765e+10 -1.616811e+10 -2.687327e+08
3.076217e+10 1.425574e+10 1.150853e+09
7.838338e+09 -2.597355e+10 -8.892872e+07
-7.767589e+09 -2.582737e+10 -1.857211e+08
-3.071460e+10 -5.111472e+09 -9.443781e+07
1.089408e+10 2.311012e+10 -4.600593e+07
-2.482972e+10 -5.238793e+09 4.782528e+08
2.548035e+10 1.634487e+10 6.574446e+06
2.545497e+10 -9.526986e+09 2.385681e+08
-1.157302e+10 2.811719e+10 -4.911712e+08
-3.345340e+10 -4.581196e+09 -3.263319e+08
2.854308e+10 -6.772953e+08 2.131982e+07
2.562221e+10 2.016679e+09 -1.046429e+09
2.388871e+10 1.587370e+09 -1.091024e+09
-2.601643e+10 1.855998e+10 -2.951187e+08
2.034449e+10 2.210755e+10 -1.621151e+08
9.862051e+09 2.206768e+10 7.192519e+08
2.753101e+10 -1.793509e+10 -2.536159e+08
3.213811e+10 -1.336880e+09 -2.100869e+08
-2.797369e+10 -9.746693e+09 1.515081e+09
2.091260e+10 1.313121e+10 3.585643e+08
2.360993e+10 -2.505878e+10 2.437261e+08
-2.267518e+10 -2.392921e+10 -3.181362e+07
2.487298e+10 -5.234215e+09 1.445420e+07
2.978675e+09 -3.140888e+10 1.724699e+07
-2.925088e+09 -3.137013e+10 4.444141e+07
-2.459016e+10 -1.531384e+10 7.576532e+08
9.356172e+09 2.196430e+10 1.451668e+08
2.443503e+10 -1.446995e+10 2.235750e+07
-1.725582e+10 1.913328e+10 6.152313e+08
-2.052381e+10 1.561633e+10 -1.233544e+09
-2.057318e+10 1.359211e+10 -4.253543e+08
2.024015e+10 1.732926e+10 1.215985e+09
-2.423552e+10 -1.509795e+09 4.581688e+06
1.618671e+10 2.103606e+10 1.687446e+08
2.934828e+10 1.502002e+09 2.624146e+08
-1.564948e+09 2.876692e+10 -4.475894e+08
3.084614e+10 1.070362e+08 1.126729e+08
9.173821e+09 2.318870e+10 -2.835088e+07
1.675470e+10 2.151031e+10 -1.134113e+08
-2.475100e+10 -1.024630e+09 -1.277305e+09
-2.429910e+10 6.412270e+09 -3.732438e+07
-2.407874e+10 8.306842e+09 8.372257e+08
2.745510e+10 -7.309362e+09 -1.165701e+09
-1.750159e+10 1.721551e+10 -6.499262e+08
-2.466425e+10 3.187724e+09 -8.454777e+08
-2.483686e+10 7.658411e+09 -7.856622e+08
-2.394935e+10 -1.330573e+10 5.460635e+08
-2.475823e+10 -1.463955e+10 -4.391390e+08
8.803051e+09 2.269614e+10 -2.400844e+08
-2.693185e+10 -1.208293e+10 -3.661371e+08
1.624705e+09 2.538108e+10 -5.640427e+08
-3.320624e+10 -1.307444e+10 -5.717202e+08
-2.133554e+10 1.378034e+10 -2.700212e+08
3.472143e+09 3.048977e+10 4.955713e+08
-2.459405e+10 2.952721e+09 -4.664822e+08
-2.313899e+10 1.097188e+10 4.505479e+08
-2.815817e+10 -7.223978e+09 -1.994780e+09
-1.619785e+10 -1.871154e+10 -1.769209e+09
1.837949e+10 -2.083592e+10 1.730026e+07
8.320221e+09 2.345060e+10 2.224724e+08
9.095750e+09 -2.680942e+10 1.239154e+08
-8.080315e+09 -2.652706e+10 8.937447e+07
-2.178528e+10 -2.019462e+10 1.034706e+08
2.076659e+10 -1.989235e+10 1.216942e+08
2.274841e+10 -7.183055e+09 1.248867e+08
-2.149516e+10 -2.093296e+10 -1.326268e+09
2.163219e+10 -2.217745e+10 -9.484507e+08
1.928099e+10 1.488764e+10 9.606912e+08
-7.573188e+09 3.161946e+10 4.342763e+08
-1.523345e+10 -3.328774e+10 -1.481634e+09
6.349442e+09 2.314398e+10 -1.243684e+08
1.577261e+10 -3.003530e+10 -5.643587e+08
4.219791e+09 -3.318729e+10 -1.427648e+09
-4.246473e+09 -3.319547e+10 -1.414755e+09
-1.244393e+10 -2.435358e+10 -9.689523e+08
1.303952e+10 -2.361661e+10 -1.149834e+09
2.124368e+10 1.600857e+10 7.009293e+08
-2.051217e+09 2.952508e+10 2.185624e+08
-2.805180e+10 -1.029331e+10 1.408912e+08
-2.355834e+10 -1.029794e+10 1.406481e+08
-2.272820e+10 -9.095293e+09 -7.069887e+08
7.948901e+09 2.226459e+10 8.928053e+07
3.608485e+10 6.078981e+09 -1.543684e+09
2.604433e+10 1.991284e+10 2.607806e+09
-3.079636e+09 2.549619e+10 6.637862e+08
2.489641e+10 -1.067100e+09 4.174762e+07
3.276426e+10 -3.908284e+08 -1.729842e+09
-2.649037e+10 2.504977e+09 9.673534e+08
1.013259e+10 -2.306682e+10 2.606386e+08
-9.437543e+09 -2.211241e+10 -2.330247e+07
-2.402168e+10 9.125752e+09 -8.257587e+08
-1.790101e+10 1.733421e+10 3.711088e+07
6.090913e+09 2.449935e+10 2.139816e+08
-2.627182e+10 1.154261e+09 2.095566e+08
-2.002002e+10 1.750545e+10 9.287117e+08
-1.340959e+10 -2.010665e+10 4.410819e+08
1.366217e+10 -2.100937e+10 8.702659e+06
2.360355e+10 -1.063067e+10 -2.594482e+08
2.769696e+10 -1.311696e+10 4.172679e+08
-2.361253e+10 -6.367036e+09 2.712574e+08
2.332753e+10 -9.705144e+09 1.168095e+08
2.028405e+10 -1.426577e+10 8.843259e+07
-2.335345e+10 -1.735255e+10 -1.053810e+09
5.974539e+09 2.431954e+10 -6.051348e+08
-2.622077e+10 -2.640690e+08 4.228550e+07
-1.939036e+10 1.581280e+10 -1.465193e+09
1.417570e+09 3.180562e+10 -4.158503e+08
-2.615987e+10 -3.098602e+09 6.292575e+08
2.078421e+10 -1.377881e+10 -1.833607e+07
-2.063383e+10 -1.352731e+10 -3.584297e+08
-1.452779e+10 2.439078e+10 3.759783e+07
-2.779115e+10 -1.256316e+10 1.864656e+08
-1.277076e+10 -3.427351e+10 -1.176734e+09
1.596294e+10 -3.481935e+10 -8.729337e+07
5.311334e+09 2.383300e+10 -1.297619e+09
1.637969e+10 2.302993e+10 1.230215e+09
1.020715e+08 -2.598402e+10 -5.007982e+08
6.628065e+08 -2.606446e+10 -8.395789e+07
1.916454e+09 2.640922e+10 -3.192842e+08
2.942528e+10 -2.961569e+09 -1.754229e+08
3.188261e+10 7.541340e+09 -3.950215e+07
2.731089e+10 2.166259e+09 -3.025209e+08
1.882366e+10 2.636536e+10 3.494948e+08
-8.205582e+09 3.002738e+10 -1.158108e+09
2.579199e+10 1.791473e+10 -5.264071e+08
5.425122e+09 2.434785e+10 -1.293656e+08
-2.493580e+10 -2.437089e+09 -1.280760e+08
2.056151e+10 1.400561e+10 1.965989e+09
-1.426416e+10 1.982170e+10 2.845749e+08
-5.690306e+09 3.079135e+10 7.454373e+08
7.070050e+09 2.384206e+10 1.714664e+08
2.906741e+10 3.436506e+09 1.870384e+08
5.414238e+09 2.454830e+10 6.407649e+08
2.543584e+10 1.204033e+10 -1.001035e+09
2.470897e+10 4.480772e+09 1.486771e+09
2.303756e+10 9.117756e+09 1.782607e+09
4.051008e+09 2.599717e+10 -4.202852e+08
-2.157323e+10 -1.043547e+10 4.193017e+08
1.665498e+10 1.916631e+10 -8.917243e+08
2.885481e+10 -1.982488e+10 -1.115189e+09
-2.280217e+10 -1.069684e+10 -6.033255e+08
2.321463e+09 3.224038e+10 -1.386673e+09
3.030686e+10 -8.985396e+09 -9.169936e+08
-3.188971e+10 6.928559e+09 2.219725e+08
-3.184987e+10 6.086154e+09 -1.815788e+08
-3.125506e+10 9.378192e+09 -5.001930e+08
-2.967525e+10 1.292823e+10 7.129789e+08
3.226621e+09 2.465150e+10 9.336565e+08
2.340901e+10 -7.836195e+09 1.441395e+09
-3.275417e+10 3.654710e+09 -4.100495e+08
-2.326598e+10 2.442234e+10 3.203111e+08
3.132397e+10 5.687273e+09 -4.173196e+07
-2.032195e+10 2.542729e+10 6.793673e+08
-2.910289e+10 1.681827e+10 6.593815e+08
2.967453e+10 -4.547578e+08 2.897505e+08
-5.487941e+09 -2.441946e+10 -8.771681e+08
5.838309e+09 -2.433493e+10 -9.483083e+08
2.372847e+10 1.670379e+10 -2.141317e+08
1.796841e+09 2.416490e+10 2.963227e+08
-3.419351e+10 -1.167357e+10 -6.395129e+08
-3.118662e+10 -6.964527e+09 -6.615391e+08
1.076232e+10 -2.640001e+10 3.182502e+08
-1.131188e+10 -2.661082e+10 1.080043e+09
-2.160078e+10 1.444986e+10 -4.740881e+08
2.319662e+10 2.652946e+10 -7.451891e+08
1.969217e+10 2.443435e+10 -1.612924e+09
-2.335556e+10 -1.534711e+10 -1.677772e+08