# vtk DataFile Version 2.0
Electric current density generated by TTH
ASCII
DATASET UNSTRUCTURED_GRID
POINTS 9954 double
3.134036e-05 2.480504e-05 -1.339111e-22
1.013281e-05 -3.781618e-05 4.743150e-07
9.183928e-06 -3.777688e-05 -4.466478e-08
2.227174e-05 -3.219793e-05 4.743150e-07
2.389972e-05 3.100872e-05 4.743150e-07
2.227174e-05 3.219793e-05 4.743150e-07
2.150622e-05 3.284770e-05 5.227045e-07
2.389616e-05 -3.101924e-05 4.777961e-07
2.478505e-05 -3.048072e-05 5.294656e-07
2.597106e-05 2.929578e-05 4.743269e-07
2.677264e-05 2.873663e-05 5.267215e-07
3.112629e-05 2.507314e-05 -1.339111e-22
1.520072e-05 -3.603978e-05 4.518436e-07
1.432117e-05 -3.655153e-05 5.211977e-07
1.279386e-05 3.698568e-05 4.658701e-07
1.178387e-05 3.747039e-05 5.278423e-07
1.015268e-05 3.777470e-05 4.525164e-07
9.245916e-06 3.776346e-05 -6.164768e-08
1.933998e-05 3.399884e-05 4.520883e-07
2.037317e-05 3.358464e-05 5.282002e-07
-3.602744e-05 -1.559934e-05 5.220214e-07
-3.544602e-05 -1.627025e-05 3.496725e-07
3.090993e-05 2.533939e-05 -1.339111e-22
3.249861e-05 -2.197415e-05 5.120141e-07
3.874673e-06 3.887813e-05 4.188664e-07
4.810337e-06 3.900153e-05 5.322403e-07
3.928385e-05 7.413103e-07 -5.307427e-07
3.928385e-05 -7.413103e-07 -5.307427e-07
3.732705e-05 1.233784e-05 5.357840e-07
3.732705e-05 -1.233784e-05 5.357840e-07
3.164754e-05 -2.331160e-05 -5.343607e-07
3.283819e-05 2.127626e-05 -4.610942e-07
3.274390e-05 2.125060e-05 3.863434e-07
3.069129e-05 2.560377e-05 -1.339111e-22
-3.906079e-05 -2.333363e-06 -4.624227e-07
-3.896474e-05 -2.320093e-06 3.848321e-07
-3.905867e-05 2.342386e-06 -4.614233e-07
-3.895795e-05 2.343527e-06 3.793303e-07
3.872761e-05 -6.665359e-06 -5.322279e-07
3.872761e-05 6.665359e-06 -5.322279e-07
3.082272e-05 2.442595e-05 -5.385185e-07
3.077074e-05 -2.449058e-05 -5.384282e-07
3.441986e-05 -1.864490e-05 -4.715150e-07
3.428246e-05 -1.865912e-05 3.824387e-07
3.047039e-05 2.586626e-05 -1.339111e-22
-3.884626e-05 6.137245e-06 -5.385861e-07
6.137195e-06 -3.884627e-05 -5.385865e-07
3.589831e-05 -1.547192e-05 4.347022e-07
3.589831e-05 1.547192e-05 4.347022e-07
3.259320e-05 -2.200996e-05 -5.387136e-07
3.899572e-05 -5.170062e-06 -5.400603e-07
3.899572e-05 5.170062e-06 -5.400603e-07
-3.900220e-05 -4.236716e-06 5.124818e-07
3.393081e-05 1.971791e-05 5.169279e-07
3.771493e-05 -1.032012e-05 4.428022e-07
3.024725e-05 2.612685e-05 -1.339111e-22
2.853776e-05 2.659080e-05 -3.547368e-07
2.856157e-05 -2.652701e-05 -3.217310e-07
-3.541160e-05 1.713364e-05 5.403530e-07
-3.576228e-05 1.620556e-05 5.229846e-07
-3.618386e-05 1.526149e-05 5.253393e-07
-3.656481e-05 1.432477e-05 5.253365e-07
1.990766e-05 -3.339945e-05 -8.712748e-08
2.153372e-05 -3.237495e-05 -8.712741e-08
2.424536e-05 3.039837e-05 -9.175837e-08
3.507463e-05 -1.701876e-05 -3.290555e-07
3.002188e-05 2.638552e-05 -1.339111e-22
3.532159e-05 -1.709019e-05 5.151162e-07
3.506566e-05 1.704772e-05 -3.350448e-07
3.530434e-05 1.710920e-05 5.124823e-07
2.948351e-05 2.615898e-05 5.466918e-07
2.948335e-05 -2.616090e-05 5.467049e-07
3.771181e-05 1.027427e-05 4.314717e-07
8.384299e-07 -3.925299e-05 5.227480e-07
1.915140e-06 -3.892711e-05 3.135014e-07
2.863149e-06 -3.917280e-05 5.272059e-07
8.384299e-07 3.925299e-05 5.227480e-07
2.979429e-05 2.664224e-05 -1.339111e-22
1.915140e-06 3.892711e-05 3.135014e-07
2.810273e-06 3.917762e-05 5.274756e-07
-2.421049e-06 -3.917946e-05 -5.203098e-07
-2.421049e-06 3.917946e-05 -5.203098e-07
1.093630e-05 3.774865e-05 5.331343e-07
1.362162e-05 3.698758e-05 5.467007e-07
1.609085e-05 -3.599946e-05 5.466456e-07
1.883957e-05 3.464064e-05 5.466394e-07
-5.822698e-06 3.879135e-05 -5.103199e-07
-5.663731e-06 3.849983e-05 2.023480e-07
2.956451e-05 2.689699e-05 -1.339111e-22
-1.832883e-05 3.468036e-05 -5.103247e-07
-1.828390e-05 3.435133e-05 2.023352e-07
-3.120047e-05 2.380539e-05 -5.172342e-07
-3.092682e-05 2.361878e-05 2.023406e-07
-3.396736e-05 1.961306e-05 -5.092368e-07
-3.370344e-05 1.945232e-05 2.023406e-07
-1.538135e-05 3.607945e-05 -5.085304e-07
-1.530108e-05 3.577495e-05 1.908531e-07
-1.052337e-05 3.778799e-05 5.103247e-07
-1.054954e-05 3.745693e-05 -2.023352e-07
2.933255e-05 2.714977e-05 -1.339111e-22
-8.892398e-06 -3.820470e-05 -5.103246e-07
-8.932747e-06 -3.787507e-05 2.023352e-07
-2.786463e-05 -2.760210e-05 -5.085352e-07
-2.763234e-05 -2.740395e-05 2.089119e-07
-2.131870e-05 -3.292151e-05 5.085305e-07
-2.116475e-05 -3.265620e-05 -2.042448e-07
-2.893376e-05 2.648606e-05 -5.103246e-07
-2.878069e-05 2.619135e-05 2.023352e-07
-2.133513e-05 3.291310e-05 -5.092686e-07
-2.116155e-05 3.265737e-05 2.023376e-07
2.909843e-05 2.740055e-05 -1.339111e-22
-2.271157e-05 3.197651e-05 -5.085329e-07
-2.256926e-05 3.169540e-05 1.908423e-07
-2.273976e-05 -3.195647e-05 5.085329e-07
-2.254322e-05 -3.171936e-05 -2.023376e-07
-1.064021e-05 -3.775241e-05 5.092634e-07
-1.050108e-05 -3.747194e-05 -2.056718e-07
-2.899994e-05 -2.640675e-05 -5.085329e-07
-2.880104e-05 -2.616238e-05 1.908423e-07
-1.225017e-05 3.726114e-05 -5.092634e-07
-1.209914e-05 3.698689e-05 2.056718e-07
2.886217e-05 2.764930e-05 -1.339111e-22
-1.989336e-05 3.382929e-05 5.172362e-07
-1.974090e-05 3.353523e-05 -2.023376e-07
-3.223298e-05 2.235415e-05 5.103225e-07
-3.191169e-05 2.227012e-05 -2.023375e-07
-7.379557e-06 3.852084e-05 -5.085328e-07
-7.299506e-06 3.822345e-05 2.023377e-07
-4.039783e-06 3.901568e-05 5.096807e-07
-4.005278e-06 3.870713e-05 -2.013402e-07
-4.027492e-06 -3.903077e-05 -5.148070e-07
-4.002674e-06 -3.870678e-05 1.997794e-07
2.862378e-05 2.789602e-05 -1.339111e-22
-1.692820e-05 3.537290e-05 5.059342e-07
-1.693416e-05 3.538592e-05 -5.115653e-07
-3.012332e-05 2.512996e-05 5.115653e-07
-2.989971e-05 2.490544e-05 -2.010039e-07
-2.407247e-05 3.095678e-05 5.059342e-07
-2.408107e-05 3.096823e-05 -5.115653e-07
-3.011146e-05 -2.512003e-05 5.054608e-07
-3.012332e-05 -2.512996e-05 -5.115653e-07
-1.383273e-05 3.669293e-05 -5.054608e-07
-1.316535e-05 3.711800e-05 -5.453797e-07
2.838328e-05 2.814069e-05 -1.339111e-22
-1.477047e-05 3.646587e-05 -5.410817e-07
-1.383817e-05 3.670742e-05 5.115653e-07
-3.308758e-05 2.104584e-05 -5.054608e-07
-3.370134e-05 2.030139e-05 -5.410817e-07
-3.310062e-05 2.105417e-05 5.115653e-07
-2.405561e-05 -3.101708e-05 -5.196475e-07
-2.388691e-05 -3.071851e-05 1.989792e-07
-1.224569e-05 -3.725263e-05 5.054608e-07
-1.156068e-05 -3.764868e-05 5.453797e-07
-1.225050e-05 -3.726734e-05 -5.115653e-07
2.814069e-05 2.838328e-05 -1.339111e-22
-9.006924e-06 3.816531e-05 -5.054608e-07
-8.290482e-06 3.850117e-05 -5.453797e-07
-9.010451e-06 3.818038e-05 5.115653e-07
-7.361581e-06 -3.851770e-05 5.059322e-07
-7.364048e-06 -3.853181e-05 -5.115674e-07
-3.217138e-05 -2.246504e-05 -5.150523e-07
-3.187894e-05 -2.230722e-05 1.876901e-07
-2.663778e-05 2.877906e-05 5.059321e-07
-2.662629e-05 2.880875e-05 -5.114419e-07
-2.664735e-05 -2.878973e-05 -5.115675e-07
2.789602e-05 2.862378e-05 -1.339111e-22
-2.643248e-05 -2.855759e-05 1.989770e-07
-1.539428e-05 -3.606565e-05 5.054584e-07
-1.537413e-05 -3.609072e-05 -5.114419e-07
-1.842953e-05 -3.461311e-05 5.054584e-07
-1.841951e-05 -3.463513e-05 -5.112838e-07
-1.989763e-05 -3.379053e-05 5.054584e-07
-1.934234e-05 -3.427341e-05 5.425623e-07
-2.064727e-05 -3.353742e-05 5.453759e-07
-1.990549e-05 -3.380387e-05 -5.115675e-07
-3.398306e-05 -1.960094e-05 -5.121202e-07
2.764930e-05 2.886217e-05 -1.339111e-22
-3.372489e-05 -1.941117e-05 1.973403e-07
-2.785803e-05 2.761992e-05 -5.115675e-07
-2.760660e-05 2.743265e-05 2.135721e-07
-3.310064e-05 -2.105416e-05 -5.115675e-07
-3.283373e-05 -2.088439e-05 1.989770e-07
-1.692750e-05 -3.537195e-05 5.054584e-07
-1.776676e-05 -3.516720e-05 5.463014e-07
-1.611245e-05 -3.590517e-05 5.425623e-07
-1.695828e-05 -3.537365e-05 -5.113211e-07
-1.383818e-05 -3.670742e-05 -5.115675e-07
2.740055e-05 2.909843e-05 -1.339111e-22
-1.372660e-05 -3.641143e-05 1.989770e-07
-2.538759e-05 2.990652e-05 -5.115675e-07
-2.518288e-05 2.966537e-05 1.989770e-07
-3.116148e-05 -2.380498e-05 5.054584e-07
-3.067807e-05 -2.465051e-05 5.425611e-07
-3.118967e-05 -2.379250e-05 -5.113212e-07
-2.538759e-05 -2.990652e-05 -5.115675e-07
-2.518288e-05 -2.966537e-05 1.989770e-07
-5.704111e-06 -3.881230e-05 -5.115742e-07
-5.682560e-06 -3.849881e-05 2.066337e-07
2.714977e-05 2.933255e-05 -1.339111e-22
3.267114e-05 2.208204e-05 -5.466100e-07
-3.930981e-05 3.125170e-06 -5.466078e-07
-3.930247e-05 -3.158884e-06 -5.466875e-07
3.501528e-05 -1.812796e-05 -5.466825e-07
3.428046e-05 -1.948966e-05 -5.466160e-07
-3.939809e-05 -1.575063e-06 -5.466829e-07
-3.939809e-05 1.575063e-06 -5.466829e-07
3.351177e-05 2.077621e-05 -5.466830e-07
2.986546e-05 -2.563805e-05 -5.432604e-07
2.989217e-05 2.561509e-05 -5.438373e-07
2.689699e-05 2.956451e-05 -1.339111e-22
2.737971e-05 2.808296e-05 5.084746e-07
-3.865532e-05 7.543222e-06 -5.454344e-07
-3.861378e-05 -7.639659e-06 -5.434492e-07
7.543033e-06 -3.865539e-05 -5.454362e-07
7.639712e-06 3.861379e-05 -5.434514e-07
3.805501e-05 -7.951162e-06 -3.924175e-08
3.805501e-05 7.951162e-06 -3.924175e-08
-2.203199e-05 3.259904e-05 -5.414078e-07
-2.846852e-05 -2.715970e-05 -5.414068e-07
-1.619566e-05 3.591953e-05 5.463611e-07
2.664224e-05 2.979429e-05 -1.339111e-22
-2.347314e-05 3.164686e-05 5.463611e-07
-2.967384e-05 -2.592249e-05 5.463611e-07
-3.275663e-05 2.189784e-05 -5.463611e-07
-6.521588e-06 -3.885814e-05 5.463489e-07
-3.184234e-05 -2.320671e-05 5.463489e-07
-1.464672e-05 -3.657813e-05 5.463489e-07
-2.610542e-05 2.951260e-05 5.463489e-07
-2.746448e-05 2.828094e-05 5.467337e-07
-8.325889e-06 -3.853306e-05 5.467336e-07
-9.971459e-06 3.814037e-05 -5.467336e-07
2.638552e-05 3.002188e-05 -1.339111e-22
-1.310991e-05 -3.717327e-05 5.467123e-07
-2.485865e-05 3.059035e-05 5.467123e-07
-1.786461e-05 3.514219e-05 5.467336e-07
-7.599616e-07 3.925704e-05 5.234905e-07
-7.599616e-07 -3.925704e-05 5.234905e-07
5.633586e-07 3.932551e-05 -5.388410e-07
5.633586e-07 -3.932551e-05 -5.388410e-07
-3.241074e-06 -3.925819e-05 -5.458903e-07
3.192741e-05 -2.245736e-05 -3.855894e-07
-2.457195e-06 3.918615e-05 5.231052e-07
2.612685e-05 3.024725e-05 -1.339111e-22
[...]
POINT_DATA 9954
VECTORS 10.000GHz_fone_imag double
4.284936e+10 -5.316613e+10 -1.155683e+09
-7.025543e+10 -1.867949e+10 3.154010e+08
-7.207061e+10 -1.611727e+10 2.174550e+08
-6.009036e+10 -4.171829e+10 2.678425e+08
5.642461e+10 -4.437550e+10 5.927134e+08
5.961985e+10 -3.956709e+10 7.094796e+08
5.915364e+10 -3.832550e+10 -1.277872e+09
-5.753532e+10 -4.459163e+10 8.154010e+08
-5.507245e+10 -4.504265e+10 9.962646e+07
5.461957e+10 -4.884579e+10 -1.212583e+09
5.172524e+10 -4.810883e+10 7.251364e+08
4.198511e+10 -5.350110e+10 -5.415827e+08
-7.612691e+10 -3.175137e+10 -1.476175e+09
-6.490769e+10 -2.578033e+10 1.206602e+09
6.824440e+10 -2.175726e+10 5.842120e+08
6.820314e+10 -2.047436e+10 -3.351610e+08
7.216458e+10 -1.962311e+10 -4.235023e+07
7.203309e+10 -1.848403e+10 7.713893e+08
6.248976e+10 -3.555305e+10 -6.127256e+08
6.070147e+10 -3.665394e+10 4.941437e+08
-2.938990e+10 6.835990e+10 -3.396178e+07
-3.052206e+10 6.777901e+10 2.245788e+08
4.457398e+10 -5.364872e+10 -4.522899e+08
-3.995758e+10 -5.874569e+10 -6.509598e+08
7.126779e+10 -6.901095e+09 4.135603e+08
7.047227e+10 -8.960948e+09 -1.747487e+08
1.611878e+09 -7.159048e+10 9.904353e+08
-1.585479e+09 -7.156776e+10 -9.106744e+08
2.475327e+10 -6.881776e+10 -6.868877e+08
-2.234144e+10 -6.872780e+10 3.129326e+08
-4.270615e+10 -5.654003e+10 -8.203367e+08
3.882663e+10 -6.048027e+10 -2.167468e+09
3.871127e+10 -6.127187e+10 -1.783796e+09
4.387130e+10 -5.286836e+10 4.382573e+08
-4.521967e+09 7.288369e+10 -1.155737e+09
-3.713419e+09 7.231718e+10 2.988500e+08
2.926775e+09 7.258353e+10 8.654594e+08
5.006493e+09 7.246286e+10 3.511423e+08
-1.237311e+10 -7.122912e+10 -5.281342e+08
1.294968e+10 -7.315833e+10 4.614945e+08
4.532507e+10 -5.667881e+10 2.170689e+08
-4.388973e+10 -5.715395e+10 3.439800e+08
-3.546712e+10 -6.366011e+10 2.530275e+08
-3.569860e+10 -6.315108e+10 5.459973e+08
4.432942e+10 -5.279902e+10 -3.950528e+08
1.302231e+10 7.315199e+10 6.602741e+08
-7.412972e+10 -1.228430e+10 -1.378118e+08
-2.872166e+10 -6.574481e+10 5.012098e+08
2.867891e+10 -6.564854e+10 -4.955905e+08
-4.066263e+10 -6.067531e+10 -9.823867e+07
-8.628599e+09 -7.198301e+10 1.414867e+09
8.612725e+09 -7.196863e+10 -1.412849e+09
-7.563888e+09 7.141193e+10 6.367345e+08
3.562683e+10 -6.327896e+10 -1.088812e+08
-2.125951e+10 -7.338791e+10 1.150503e+08
4.569242e+10 -5.291267e+10 -2.617879e+08
5.040059e+10 -5.259935e+10 2.716848e+08
-5.402252e+10 -5.380841e+10 7.137893e+08
3.208681e+10 6.586234e+10 3.085744e+08
3.057025e+10 6.805020e+10 2.321635e+08
2.947948e+10 6.658489e+10 1.399234e+09
2.630412e+10 6.639816e+10 9.235465e+08
-6.378466e+10 -3.741050e+10 -6.459648e+08
-6.216119e+10 -3.965339e+10 -7.808710e+08
5.774136e+10 -4.552824e+10 1.222444e+08
-3.307123e+10 -6.589518e+10 -6.299477e+08
4.496550e+10 -5.176575e+10 -3.393359e+07
-3.092497e+10 -6.346395e+10 4.770099e+08
3.238169e+10 -6.681453e+10 6.998083e+08
3.106449e+10 -6.309211e+10 -4.724232e+08
4.775184e+10 -5.363306e+10 1.619662e+09
-4.801247e+10 -5.345147e+10 -1.794606e+09
1.977903e+10 -6.964485e+10 -7.927941e+07
-7.167150e+10 -1.945101e+09 -4.391041e+07
-7.289714e+10 -3.454240e+09 1.126484e+09
-7.227870e+10 -5.590227e+09 3.009735e+08
7.159581e+10 -1.936349e+09 5.271593e+08
4.577589e+10 -5.060350e+10 5.418206e+07
7.375056e+10 -4.469177e+09 -2.773579e+08
6.932857e+10 -5.203343e+09 -6.736308e+08
-7.214693e+10 3.863316e+09 2.128286e+09
7.251025e+10 5.163043e+09 -1.279823e+09
6.937044e+10 -1.783881e+10 5.115163e+08
6.724112e+10 -2.570588e+10 7.630441e+08
-6.373256e+10 -2.934638e+10 -2.797836e+08
6.462419e+10 -3.468420e+10 -2.163036e+08
7.153979e+10 1.192178e+10 1.732406e+09
7.040860e+10 1.177453e+10 8.356057e+08
4.692207e+10 -5.144680e+10 -2.154354e+08
6.362412e+10 3.359667e+10 -2.086071e+09
6.581978e+10 3.484441e+10 -1.800095e+09
4.458870e+10 5.571759e+10 -6.480657e+08
4.532075e+10 5.891969e+10 -3.717419e+08
3.501492e+10 6.173394e+10 6.583766e+08
3.584413e+10 6.476109e+10 -8.271402e+08
6.521010e+10 2.854535e+10 -6.045783e+07
6.867092e+10 2.935169e+10 9.117565e+08
6.916687e+10 1.936097e+10 1.526394e+09
7.073061e+10 1.891290e+10 4.965901e+08
4.737233e+10 -5.048349e+10 -5.828487e+08
-7.008927e+10 1.627449e+10 2.074152e+09
-7.247140e+10 1.692792e+10 1.782385e+09
-5.091521e+10 4.970875e+10 -3.946196e+08
-4.860278e+10 4.825023e+10 -5.028930e+08
-6.004962e+10 4.007495e+10 -3.488736e+07
-5.977206e+10 3.665300e+10 1.019733e+09
4.778621e+10 5.190114e+10 1.998764e+07
4.968408e+10 5.439313e+10 -1.072936e+09
6.144495e+10 4.042411e+10 -1.453942e+09
6.315341e+10 4.104423e+10 6.933165e+07
4.690320e+10 -4.990370e+10 8.206480e+08
5.664136e+10 4.192651e+10 -4.050785e+08
5.999930e+10 4.292114e+10 1.574413e+09
-5.952893e+10 4.027087e+10 7.077486e+08
-6.084220e+10 4.374107e+10 -1.885281e+08
-6.991410e+10 1.920859e+10 -1.089011e+09
-7.229926e+10 1.966297e+10 -7.590365e+08
-4.723340e+10 5.317869e+10 3.034779e+08
-4.952182e+10 5.491312e+10 -1.646382e+09
6.738035e+10 2.224414e+10 -1.069063e+09
6.971688e+10 2.253471e+10 4.952743e+07
4.751806e+10 -5.040274e+10 -3.763451e+08
6.032779e+10 3.690626e+10 -6.869920e+08
6.387910e+10 3.778646e+10 -1.290227e+08
4.084655e+10 5.841120e+10 -1.134471e+09
4.209649e+10 6.070312e+10 -2.284254e+09
6.957420e+10 1.363789e+10 1.209221e+09
7.272009e+10 1.346775e+10 1.267900e+08
7.238548e+10 8.211008e+09 -1.572052e+08
7.652154e+10 8.792513e+09 8.033992e+08
-7.190849e+10 6.977478e+09 -8.501873e+08
-7.142215e+10 5.194962e+09 2.247396e+08
4.834610e+10 -4.947024e+10 1.418352e+08
6.480089e+10 3.070920e+10 4.497373e+08
6.472053e+10 3.231768e+10 -1.318224e+09
4.717030e+10 5.543246e+10 -6.809475e+08
4.609840e+10 5.752157e+10 9.641262e+08
5.672353e+10 4.316891e+10 -3.402858e+07
5.787456e+10 4.475431e+10 -8.125811e+08
-4.639599e+10 5.428392e+10 2.322566e+08
-4.545487e+10 5.353754e+10 4.436062e+08
6.734682e+10 2.519204e+10 -1.211146e+08
6.669442e+10 2.358344e+10 2.664076e+09
4.975026e+10 -5.018964e+10 1.309344e+09
6.473660e+10 2.512845e+10 -1.303045e+08
6.715484e+10 2.556245e+10 -1.714481e+09
3.883360e+10 6.000570e+10 -2.366198e+08
3.782619e+10 6.151635e+10 -4.771736e+08
3.900735e+10 6.112279e+10 -1.025146e+09
-5.557637e+10 4.359448e+10 3.983053e+08
-6.003406e+10 4.473001e+10 -5.847062e+08
-6.894477e+10 2.217991e+10 1.350122e+08
-6.813755e+10 2.047746e+10 1.507773e+09
-6.686848e+10 2.260289e+10 -6.202705e+08
4.875386e+10 -4.789367e+10 -6.797434e+07
6.983906e+10 1.558236e+10 -2.537063e+08
6.993675e+10 1.468526e+10 2.393529e+09
7.049246e+10 1.790143e+10 -6.029500e+08
-7.060345e+10 1.377561e+10 -3.447769e+08
-7.158330e+10 1.436092e+10 1.129691e+09
-4.007311e+10 6.001782e+10 5.920024e+08
-4.264714e+10 6.119433e+10 -2.444411e+08
5.339445e+10 4.835823e+10 -9.100027e+07
5.332866e+10 4.752071e+10 -1.093883e+09
-5.383726e+10 4.728009e+10 1.683315e+09
5.002761e+10 -4.815485e+10 1.181870e+09
-5.600186e+10 5.148141e+10 1.133211e+09
-6.508646e+10 2.793270e+10 -3.311403e+08
-6.743772e+10 2.703041e+10 9.929992e+08
-6.374382e+10 3.333980e+10 -3.980208e+08
-6.339690e+10 3.232628e+10 -3.132747e+08
-6.159538e+10 3.569775e+10 8.028809e+08
-6.129614e+10 3.446517e+10 -3.254709e+08
-6.019699e+10 3.675783e+10 -9.906393e+08
-6.276957e+10 3.515941e+10 2.632825e+08
-3.499390e+10 6.233137e+10 -4.302457e+08
4.961917e+10 -4.867388e+10 7.336471e+08
-3.529886e+10 6.351760e+10 2.225243e+09
5.010351e+10 5.176050e+10 -2.178639e+09
5.221356e+10 5.314202e+10 -1.023391e+09
-3.953154e+10 6.197227e+10 -5.021768e+08
-3.965736e+10 6.228399e+10 4.613709e+08
-6.505439e+10 3.113345e+10 9.396113e+07
-6.454216e+10 3.180565e+10 -6.973543e+07
-6.453561e+10 2.955407e+10 3.598295e+08
-6.452929e+10 3.135085e+10 -5.599612e+08
-6.770790e+10 2.582325e+10 -2.881201e+08
5.094072e+10 -4.791165e+10 -1.198958e+09
-6.945550e+10 2.642280e+10 -3.034776e+08
5.408020e+10 4.736253e+10 -1.511464e+08
5.616424e+10 4.792817e+10 -4.936997e+08
-4.283793e+10 5.627041e+10 -6.817127e+07
-4.355179e+10 5.520757e+10 5.292073e+08
-4.365759e+10 5.736587e+10 -3.644277e+08
-5.454971e+10 4.703040e+10 -1.727826e+08
-5.618242e+10 4.719354e+10 1.075719e+09
-7.200921e+10 1.034561e+10 -8.038272e+08
-7.460754e+10 1.085750e+10 -1.264203e+09
5.258123e+10 -4.551657e+10 -2.021372e+08
3.913560e+10 -5.995282e+10 -7.474221e+08
4.380961e+09 7.079185e+10 1.955427e+08
-5.626448e+09 7.166202e+10 2.935112e+08
-3.419506e+10 -6.499525e+10 5.965519e+08
-3.458313e+10 -6.246364e+10 9.785060e+08
-3.078195e+09 7.140950e+10 -9.236756e+06
2.462962e+09 7.159671e+10 -5.478938e+08
3.699490e+10 -6.030429e+10 7.587363e+08
-4.582856e+10 -5.396779e+10 8.063838e+08
4.620976e+10 -5.407526e+10 -7.698626e+08
5.064407e+10 -4.912245e+10 1.655549e+08
5.420204e+10 -5.028129e+10 -1.722360e+09
1.328706e+10 7.099800e+10 -5.784060e+08
-1.390645e+10 7.099054e+10 1.347354e+08
-7.034518e+10 -1.346572e+10 3.873182e+08
7.070370e+10 -1.400177e+10 -1.109888e+08
-1.401352e+10 -7.287126e+10 -1.376798e+09
1.497517e+10 -7.283362e+10 1.092570e+09
5.774847e+10 4.158845e+10 -6.282720e+08
-4.913775e+10 5.223159e+10 -1.710409e+08
6.387657e+10 2.954387e+10 -6.660223e+06
5.289357e+10 -4.742854e+10 3.951750e+08
5.638245e+10 4.261127e+10 -1.070125e+08
-4.628962e+10 5.418258e+10 5.308547e+08
3.900438e+10 5.813558e+10 3.175838e+08
-6.973775e+10 1.231387e+10 1.252872e+08
-4.276281e+10 5.810757e+10 -2.111846e+08
-6.739900e+10 2.778993e+10 3.113875e+08
5.282796e+10 4.658416e+10 4.944848e+08
5.149353e+10 4.955550e+10 8.468679e+08
-6.935918e+10 1.454086e+10 -9.546015e+07
6.819987e+10 1.821415e+10 1.498346e+08
5.122479e+10 -4.523239e+10 5.290235e+07
-6.781911e+10 2.378046e+10 -1.412317e+09
5.516684e+10 4.575980e+10 1.235298e+09
6.337089e+10 3.170957e+10 8.428912e+07
7.383543e+10 3.196479e+08 -1.675664e+09
-7.367249e+10 9.048961e+08 1.502836e+09
7.271247e+10 -1.065436e+09 2.852117e+08
-7.297801e+10 -1.112401e+09 -2.617970e+08
-7.044150e+10 4.904365e+09 2.965370e+09
-4.301130e+10 -6.161066e+10 1.614354e+09
7.188324e+10 5.461581e+09 -1.546022e+09
5.229377e+10 -4.459801e+10 1.217401e+09
-7.155123e+10 4.715944e+09 1.797844e+09
3.745157e+10 -6.363893e+10 -1.333568e+08
6.028122e+10 3.676385e+10 -7.324205e+08
4.170760e+10 5.742234e+10 -1.095763e+08
-5.796178e+10 4.186617e+10 6.391140e+07
4.842552e+10 5.439303e+10 -1.240954e+09
-6.843344e+10 1.769936e+10 6.869808e+07
4.579384e+10 5.664337e+10 -8.657325e+07
6.860323e+10 2.170925e+10 -1.988650e+07
6.149237e+10 3.462022e+10 -5.939502e+07
5.099897e+10 -4.417471e+10 -4.796952e+08
6.957961e+10 9.969216e+09 6.796768e+08
1.379005e+10 -7.292762e+10 -8.615670e+08
-1.307180e+10 -7.235767e+10 -2.579973e+07
-3.224127e+10 6.592147e+10 -2.298421e+08
-1.266378e+10 7.460297e+10 -1.053445e+09
7.424104e+10 -1.249702e+10 8.658924e+08
-7.155830e+09 7.216145e+10 -1.302974e+08
-7.249027e+10 -1.824549e+08 2.288153e+09
7.255435e+10 -3.423697e+08 -2.316399e+09
-1.930573e+10 -6.702667e+10 -3.008096e+08
5.447865e+10 -4.321445e+10 5.504893e+08
-2.382426e+10 6.775438e+10 -7.645361e+08
-2.405067e+10 6.743902e+10 2.184591e+09
-2.513944e+10 -6.639393e+10 4.843829e+08
2.492568e+10 -6.626083e+10 -5.622751e+08
-7.046492e+10 -1.299978e+10 4.055156e+08
1.344412e+10 7.050852e+10 -1.148326e+09
2.160298e+10 7.031142e+10 1.245958e+09
1.953044e+10 6.855770e+10 -6.716932e+08
-5.155093e+10 -5.000885e+10 -8.097491e+08
-5.275049e+10 -4.949611e+10 1.715398e+09
5.243246e+10 -4.353003e+10 8.986913e+08
3.371605e+10 6.340322e+10 1.897478e+08
-3.407563e+10 6.387292e+10 5.567753e+08
7.287839e+10 1.744982e+09 -8.142895e+08
-7.330237e+10 1.895363e+09 7.583457e+08
5.731232e+10 -4.303710e+10 -1.898293e+08
5.889264e+10 -4.151708e+10 -7.509632e+08
-5.686818e+10 -4.387013e+10 -3.638286e+08
-5.941060e+10 -4.347585e+10 6.871233e+08
-6.521521e+10 -3.627056e+10 1.557816e+08
-6.368331e+10 -3.237560e+10 2.720904e+08
5.225183e+10 -4.369124e+10 1.810110e+08
6.621972e+10 -2.777717e+10 -3.866053e+08
6.561908e+10 -3.176620e+10 9.717187e+08
-6.868123e+10 -1.866836e+10 -6.791418e+07
-6.807628e+10 -1.985146e+10 -5.671830e+08
5.363780e+10 -4.888223e+10 -2.321265e+08
5.571127e+10 -4.604485e+10 7.499213e+08
7.106231e+10 4.976902e+09 -5.634515e+08
-5.390496e+10 -4.783423e+10 3.910064e+08
-4.579237e+10 -5.553004e+10 -4.466798e+08
4.606926e+10 -5.495425e+10 -1.007471e+09
5.379647e+10 -4.231105e+10 -3.243548e+08
-1.042070e+10 6.923731e+10 -5.015092e+08
7.022693e+10 -9.946841e+09 -2.064802e+08
-2.501356e+10 6.717843e+10 -5.136798e+08
9.989861e+09 -7.131304e+10 -3.933608e+08
-1.003414e+10 -7.132344e+10 3.790046e+08
-2.118316e+10 6.971480e+10 -9.096335e+08
-1.983560e+10 6.626586e+10 1.240497e+09
7.306011e+10 5.671707e+09 -1.720694e+09
3.291600e+10 -6.341072e+10 4.462632e+08
-5.513369e+10 -4.822454e+10 -1.090938e+08
5.459040e+10 -4.239869e+10 -4.886641e+08
3.572478e+10 -6.519896e+10 -1.440473e+09
6.313056e+10 -3.432288e+10 5.997284e+08
6.683672e+10 -3.398956e+10 2.478632e+09
6.789933e+10 -2.508553e+10 7.709772e+08
6.619908e+10 -2.386610e+10 -1.698177e+08
6.928743e+10 -2.118403e+10 -9.078599e+06
6.689231e+10 -1.889586e+10 -1.635360e+09
-6.687634e+10 -2.376039e+10 7.165276e+08
-6.658306e+10 -2.463145e+10 1.447948e+08
-6.804756e+10 -3.117801e+10 -5.893705e+08
5.533961e+10 -4.280495e+10 -1.159822e+09
-6.568541e+10 -3.004888e+10 4.475187e+08
6.005623e+10 -3.718408e+10 -1.419814e+07
6.006556e+10 -3.865846e+10 4.107074e+07
-5.483507e+10 -4.506435e+10 4.239406e+08
-4.460354e+10 -5.482872e+10 -5.809281e+08
4.424236e+10 -5.512502e+10 7.068600e+08
-6.992980e+10 -1.065133e+10 -1.594049e+08
1.116228e+10 6.927203e+10 -9.938629e+07
-2.109110e+10 -7.040440e+10 4.459674e+08
-1.130455e+10 -6.910458e+10 5.573313e+08
5.617481e+10 -4.092886e+10 6.554467e+08
1.104017e+10 -6.901385e+10 -6.480730e+08
-2.387084e+08 7.266936e+10 -2.336956e+09
-1.139857e+09 7.181291e+10 2.080834e+09
1.237999e+09 7.335841e+10 -1.247482e+09
2.596792e+10 6.813930e+10 -3.483727e+08
5.305193e+10 -5.292112e+10 1.810367e+09
-3.019869e+10 -6.487110e+10 -7.247345e+07
2.893137e+10 -6.688963e+10 -1.662188e+08
-2.174972e+09 7.306323e+10 1.291639e+09
6.180488e+07 7.194219e+10 -3.976163e+07
5.390239e+10 -4.146962e+10 -9.191817e+08
2.059716e+10 -6.834872e+10 7.117961e+08
7.331054e+10 -9.589452e+09 -6.509284e+08
-7.200785e+10 5.561573e+09 -1.504937e+09
7.112509e+10 2.746792e+09 1.795995e+09
6.525252e+09 -7.092944e+10 -1.666140e+08
8.142397e+09 -7.868677e+10 1.236587e+09
6.435035e+09 -7.006832e+10 1.204268e+09
-8.141761e+09 -7.867516e+10 -1.236877e+09
-6.434749e+09 -7.002657e+10 -1.203683e+09
-6.527873e+09 -7.093710e+10 1.688137e+08
5.605072e+10 -4.001666e+10 3.175969e+08
3.479856e+10 -6.124915e+10 -2.798443e+08
7.058752e+10 -6.342610e+09 -4.224139e+08
-7.002766e+10 -8.182041e+09 -1.265984e+09
-7.034708e+10 -6.106087e+09 9.340286e+08
8.508817e+09 -6.964998e+10 1.636010e+08
-8.514521e+09 -6.964428e+10 -1.623073e+08
-8.741925e+09 7.010613e+10 -1.119943e+09
-9.908563e+09 7.312013e+10 5.816558e+08
-1.037439e+10 7.316624e+10 3.659297e+08
-5.556849e+10 -4.652651e+10 -1.942847e+08
5.546065e+10 -3.969827e+10 -1.925662e+08
8.947891e+09 7.016984e+10 3.697868e+08
-7.011168e+10 -8.936117e+09 7.123728e+08
2.494881e+10 7.129690e+10 -7.759555e+08
2.533848e+10 7.044763e+10 8.927443e+08
5.378239e+10 -5.071725e+10 2.429400e+08
4.649768e+10 -6.123711e+10 -8.761339e+08
4.390843e+10 -5.790260e+10 -5.879238e+08
-4.581396e+10 -5.934044e+10 1.241178e+09
-4.345586e+10 -5.716517e+10 9.864788e+08
-7.188758e+10 5.205101e+09 -6.420407e+08
5.672717e+10 -3.913847e+10 -6.430845e+07
-3.911479e+09 7.142778e+10 2.232016e+09
2.532748e+09 6.934991e+10 -1.025281e+09
2.007021e+10 6.827798e+10 -1.112837e+09
2.039019e+10 6.769587e+10 1.402868e+09
7.136363e+10 -8.612848e+09 -2.665762e+08
-7.075133e+10 -6.903012e+09 1.550839e+08
5.445433e+10 -4.961270e+10 -1.460788e+08
-7.173309e+10 -9.289926e+09 -1.182030e+09
-3.037058e+10 -6.463592e+10 -1.025421e+09
3.039923e+10 -6.484184e+10 1.075190e+09
5.638731e+10 -3.841034e+10 8.576841e+07
5.758219e+10 -4.525197e+10 -2.065966e+08
-6.380950e+10 -3.660164e+10 7.975140e+08
7.153813e+10 -4.266954e+09 -2.162534e+09
-7.169342e+10 -3.840097e+09 1.199519e+09
-5.286113e+10 -4.804561e+10 1.991092e+09
-5.175037e+10 -5.073800e+10 -1.186020e+09
-6.095146e+10 -4.260960e+10 -2.921609e+08
-2.709065e+10 -6.705762e+10 -4.988252e+08
2.707195e+10 -6.706746e+10 4.982245e+08
-2.072299e+10 6.863575e+10 -4.298570e+08
5.798248e+10 -3.794601e+10 -4.798756e+08
-2.231130e+10 6.872521e+10 4.991026e+07
2.307430e+10 -6.685742e+10 6.719428e+08
2.410060e+10 -6.805740e+10 -1.160010e+09
2.073383e+09 -7.069586e+10 7.565998e+08
4.298193e+09 -7.082930e+10 2.601590e+09
-2.083209e+09 -7.069626e+10 -7.501528e+08
-4.295931e+09 -7.084234e+10 -2.601197e+09
2.804189e+10 -6.597772e+10 1.277687e+09
-2.819123e+10 -6.550347e+10 -1.202509e+09
3.266697e+10 -6.569523e+10 -5.298691e+08
5.672200e+10 -3.723290e+10 -1.623082e+08
-2.269300e+10 -6.774473e+10 -4.543732e+08
-2.379054e+10 -6.771087e+10 1.547184e+09
-2.124058e+10 -6.832080e+10 2.888457e+08
-2.452807e+10 6.795636e+10 1.708145e+09
-1.571293e+10 6.951225e+10 -1.012244e+09
-1.647903e+10 6.919824e+10 -1.470873e+09
-1.366297e+10 6.936463e+10 -7.673244e+08
7.147806e+10 -1.740516e+10 -6.189181e+08
7.163455e+10 -1.364253e+10 -2.531589e+08
6.982710e+10 -1.425664e+10 1.042094e+09
5.741093e+10 -3.647462e+10 -4.792538e+08
1.518391e+10 6.897603e+10 1.010885e+09
1.588211e+10 7.059805e+10 -4.811836e+08
2.183423e+10 -6.720377e+10 -8.000711e+08
1.935670e+10 -7.034477e+10 -1.060577e+09
-6.791906e+10 -2.093936e+10 -5.002019e+08
-6.054745e+10 -3.467262e+10 1.693136e+09
-7.048908e+10 -1.548655e+10 -1.037663e+09
-6.973940e+10 -1.532896e+10 -5.103832e+08
6.613260e+10 -2.751589e+10 -7.607954e+08
-6.382900e+10 -3.158572e+10 -1.293680e+09
5.622062e+10 -3.728951e+10 -5.924654e+08
-5.702738e+10 -4.363703e+10 -6.125322e+08
5.832326e+10 -4.036334e+10 6.469079e+08
5.438258e+10 -4.454511e+10 -1.009241e+09
-6.128463e+10 -4.109696e+10 -1.848103e+09
5.307749e+10 -4.714139e+10 -1.467592e+09
-7.355593e+10 -1.097324e+10 1.255027e+09
1.110038e+10 7.186297e+10 -6.644690e+08
-7.144437e+10 -1.367447e+10 -5.768200e+08
1.402414e+10 7.259333e+10 5.684407e+08
-1.187819e+10 6.963226e+10 3.224968e+08
5.726467e+10 -3.618280e+10 -9.120918e+08
7.074224e+10 -1.258453e+10 -1.624563e+08
4.787521e+10 -5.592251e+10 -9.651856e+08
-4.842446e+10 -5.583957e+10 1.105179e+09
-6.718031e+10 -1.910899e+10 -1.554496e+09
6.388722e+10 -3.098934e+10 -2.155937e+09
-6.216593e+10 -3.434488e+10 1.967138e+08
-5.746318e+10 -4.171920e+10 -1.855641e+09
5.673334e+10 -4.223397e+10 -3.570320e+08
7.162538e+10 -3.527324e+09 -2.548246e+08
7.250739e+10 -3.671557e+09 1.645386e+08
5.981080e+10 -3.615020e+10 1.168301e+08
-7.201027e+10 -4.035894e+09 -5.797509e+07
-6.998851e+10 -3.638731e+09 -7.742688e+08
-3.745645e+10 -5.932696e+10 5.106558e+08
-3.840971e+10 -6.105638e+10 -3.817220e+08
-3.592858e+10 -6.267744e+10 1.513594e+09
-3.405218e+10 -6.251414e+10 9.082712e+08
-6.311225e+09 7.049931e+10 1.478423e+08
3.664131e+10 -6.109985e+10 -1.613719e+09
7.356651e+10 -5.876329e+09 7.402351e+08
5.657162e+10 -4.501748e+10 -5.037411e+07
5.888534e+10 -3.572959e+10 1.665201e+08
1.129924e+10 -6.996198e+10 7.047484e+07
-1.158126e+10 -6.979241e+10 6.427016e+05
6.960768e+10 -1.161633e+10 2.754893e+09
-6.605772e+10 -2.370147e+10 7.194946e+08
5.951512e+10 -3.752994e+10 -1.060519e+09
-5.515882e+10 -4.601790e+10 5.848525e+08
2.467249e+10 6.836920e+10 1.422159e+09
6.984361e+09 -7.460781e+10 -2.251449e+09
-6.985434e+09 -7.459596e+10 2.254490e+09
7.195884e+09 7.328241e+10 -1.104843e+09
6.128270e+10 -3.415490e+10 -1.010233e+09
9.949371e+09 7.300852e+10 5.540693e+08
3.978650e+10 -5.781858e+10 9.078162e+07
4.445610e+10 -5.895748e+10 -6.435719e+08
4.493403e+10 -5.508229e+10 7.966685e+08
-4.512697e+10 -5.561431e+10 -1.219634e+09
-3.549218e+10 5.819568e+10 3.187149e+09
-2.383294e+10 6.874891e+10 -8.846568e+08
-2.037067e+10 6.867027e+10 -6.430703e+08
-5.380915e+10 -5.006683e+10 1.555743e+08
1.040178e+10 -7.674552e+10 -1.584320e+09
6.019412e+10 -3.554305e+10 -6.146555e+08
-1.040856e+10 -7.676781e+10 1.592921e+09
1.127987e+10 6.872961e+10 1.714943e+09
-6.873537e+10 -1.083952e+10 -1.571835e+09
3.532183e+10 6.183656e+10 1.484106e+09
3.483122e+10 -6.108269e+10 -5.745463e+08
-1.042137e+10 7.030800e+10 -1.126212e+09