# vtk DataFile Version 2.0
Electric current density generated by TTH
ASCII
DATASET UNSTRUCTURED_GRID
POINTS 7544 double
-2.500000e-05 2.500000e-05 -1.000000e-07
2.500000e-05 1.102242e-05 -1.000000e-07
-3.617912e-05 4.000000e-05 1.000000e-07
-3.597041e-05 4.000000e-05 1.000000e-07
-3.575733e-05 4.000000e-05 1.000000e-07
-3.551170e-05 4.000000e-05 1.000000e-07
-3.519553e-05 4.000000e-05 1.000000e-07
-3.482855e-05 4.000000e-05 1.000000e-07
-3.446113e-05 4.000000e-05 1.000000e-07
-3.413529e-05 4.000000e-05 1.000000e-07
-3.386133e-05 4.000000e-05 1.000000e-07
-3.359230e-05 4.000000e-05 1.000000e-07
2.500000e-05 9.912534e-06 -1.000000e-07
-3.330338e-05 4.000000e-05 1.000000e-07
-3.298541e-05 4.000000e-05 1.000000e-07
-3.261386e-05 4.000000e-05 1.000000e-07
-3.219057e-05 4.000000e-05 1.000000e-07
-3.174025e-05 4.000000e-05 1.000000e-07
-3.128861e-05 4.000000e-05 1.000000e-07
-3.085832e-05 4.000000e-05 1.000000e-07
-3.043866e-05 4.000000e-05 1.000000e-07
-3.002406e-05 4.000000e-05 1.000000e-07
-2.961692e-05 4.000000e-05 1.000000e-07
2.500000e-05 8.942350e-06 -1.000000e-07
-2.921949e-05 4.000000e-05 1.000000e-07
-2.881312e-05 4.000000e-05 1.000000e-07
-2.827450e-05 4.000000e-05 1.000000e-07
-2.756019e-05 4.000000e-05 1.000000e-07
-2.679087e-05 4.000000e-05 1.000000e-07
-2.605950e-05 4.000000e-05 1.000000e-07
-2.544577e-05 4.000000e-05 1.000000e-07
-2.487046e-05 4.000000e-05 1.000000e-07
-2.425119e-05 4.000000e-05 1.000000e-07
-2.356627e-05 4.000000e-05 1.000000e-07
2.500000e-05 8.066095e-06 -1.000000e-07
-2.272001e-05 4.000000e-05 1.000000e-07
-2.170708e-05 4.000000e-05 1.000000e-07
-2.064642e-05 4.000000e-05 1.000000e-07
-1.952882e-05 4.000000e-05 1.000000e-07
-1.831880e-05 4.000000e-05 1.000000e-07
-1.705536e-05 4.000000e-05 1.000000e-07
-1.580892e-05 4.000000e-05 1.000000e-07
-1.453952e-05 4.000000e-05 1.000000e-07
-1.306811e-05 4.000000e-05 1.000000e-07
-1.134060e-05 4.000000e-05 1.000000e-07
2.500000e-05 7.206362e-06 -1.000000e-07
-9.440292e-06 4.000000e-05 1.000000e-07
-7.447897e-06 4.000000e-05 1.000000e-07
-5.358130e-06 4.000000e-05 1.000000e-07
-3.155411e-06 4.000000e-05 1.000000e-07
-8.302123e-07 4.000000e-05 1.000000e-07
1.584425e-06 4.000000e-05 1.000000e-07
3.768899e-06 4.000000e-05 1.000000e-07
5.682665e-06 4.000000e-05 1.000000e-07
7.390783e-06 4.000000e-05 1.000000e-07
9.103766e-06 4.000000e-05 1.000000e-07
2.500000e-05 6.359591e-06 -1.000000e-07
1.085587e-05 4.000000e-05 1.000000e-07
1.263984e-05 4.000000e-05 1.000000e-07
1.430799e-05 4.000000e-05 1.000000e-07
1.581746e-05 4.000000e-05 1.000000e-07
1.718334e-05 4.000000e-05 1.000000e-07
1.841909e-05 4.000000e-05 1.000000e-07
1.953704e-05 4.000000e-05 1.000000e-07
2.055799e-05 4.000000e-05 1.000000e-07
2.154358e-05 4.000000e-05 1.000000e-07
2.250260e-05 4.000000e-05 1.000000e-07
2.500000e-05 5.533983e-06 -1.000000e-07
2.336038e-05 4.000000e-05 1.000000e-07
2.408679e-05 4.000000e-05 1.000000e-07
2.472883e-05 4.000000e-05 1.000000e-07
2.532434e-05 4.000000e-05 1.000000e-07
2.588395e-05 4.000000e-05 1.000000e-07
2.645049e-05 4.000000e-05 1.000000e-07
2.702981e-05 4.000000e-05 1.000000e-07
2.757181e-05 4.000000e-05 1.000000e-07
2.805330e-05 4.000000e-05 1.000000e-07
2.850155e-05 4.000000e-05 1.000000e-07
2.500000e-05 4.738202e-06 -1.000000e-07
2.896429e-05 4.000000e-05 1.000000e-07
2.944016e-05 4.000000e-05 1.000000e-07
2.989856e-05 4.000000e-05 1.000000e-07
3.033308e-05 4.000000e-05 1.000000e-07
3.073794e-05 4.000000e-05 1.000000e-07
3.111165e-05 4.000000e-05 1.000000e-07
3.147776e-05 4.000000e-05 1.000000e-07
3.188937e-05 4.000000e-05 1.000000e-07
3.234682e-05 4.000000e-05 1.000000e-07
3.282465e-05 4.000000e-05 1.000000e-07
2.500000e-05 3.971765e-06 -1.000000e-07
3.326048e-05 4.000000e-05 1.000000e-07
3.359627e-05 4.000000e-05 1.000000e-07
3.387945e-05 4.000000e-05 1.000000e-07
3.413917e-05 4.000000e-05 1.000000e-07
3.438286e-05 4.000000e-05 1.000000e-07
3.464488e-05 4.000000e-05 1.000000e-07
3.493258e-05 4.000000e-05 1.000000e-07
3.523257e-05 4.000000e-05 1.000000e-07
3.553577e-05 4.000000e-05 1.000000e-07
3.582060e-05 4.000000e-05 1.000000e-07
2.500000e-05 3.247832e-06 -1.000000e-07
3.607712e-05 4.000000e-05 1.000000e-07
3.631657e-05 4.000000e-05 1.000000e-07
3.654658e-05 4.000000e-05 1.000000e-07
3.676207e-05 4.000000e-05 1.000000e-07
3.695495e-05 4.000000e-05 1.000000e-07
3.713331e-05 4.000000e-05 1.000000e-07
3.732036e-05 4.000000e-05 1.000000e-07
3.751110e-05 4.000000e-05 1.000000e-07
3.767983e-05 4.000000e-05 1.000000e-07
3.783213e-05 4.000000e-05 1.000000e-07
-4.000000e-05 -4.000000e-05 1.000000e-07
2.500000e-05 2.569914e-06 -1.000000e-07
3.798027e-05 4.000000e-05 1.000000e-07
3.812403e-05 4.000000e-05 1.000000e-07
3.826222e-05 4.000000e-05 1.000000e-07
3.839718e-05 4.000000e-05 1.000000e-07
3.853226e-05 4.000000e-05 1.000000e-07
3.866315e-05 4.000000e-05 1.000000e-07
3.878599e-05 4.000000e-05 1.000000e-07
3.890431e-05 4.000000e-05 1.000000e-07
3.902167e-05 4.000000e-05 1.000000e-07
3.913685e-05 4.000000e-05 1.000000e-07
2.500000e-05 1.934834e-06 -1.000000e-07
3.924708e-05 4.000000e-05 1.000000e-07
3.935189e-05 4.000000e-05 1.000000e-07
3.945009e-05 4.000000e-05 1.000000e-07
3.954904e-05 4.000000e-05 1.000000e-07
3.966297e-05 4.000000e-05 1.000000e-07
3.980343e-05 4.000000e-05 1.000000e-07
4.000000e-05 3.978305e-05 1.000000e-07
4.000000e-05 3.962710e-05 1.000000e-07
4.000000e-05 3.950424e-05 1.000000e-07
4.000000e-05 3.940147e-05 1.000000e-07
2.500000e-05 1.336084e-06 -1.000000e-07
4.000000e-05 3.930095e-05 1.000000e-07
4.000000e-05 3.919902e-05 1.000000e-07
4.000000e-05 3.908944e-05 1.000000e-07
4.000000e-05 3.897138e-05 1.000000e-07
4.000000e-05 3.884548e-05 1.000000e-07
4.000000e-05 3.871202e-05 1.000000e-07
4.000000e-05 3.857664e-05 1.000000e-07
4.000000e-05 3.844100e-05 1.000000e-07
4.000000e-05 3.830629e-05 1.000000e-07
4.000000e-05 3.817294e-05 1.000000e-07
2.500000e-05 7.703204e-07 -1.000000e-07
4.000000e-05 3.804210e-05 1.000000e-07
4.000000e-05 3.791299e-05 1.000000e-07
4.000000e-05 3.777174e-05 1.000000e-07
4.000000e-05 3.761282e-05 1.000000e-07
4.000000e-05 3.745028e-05 1.000000e-07
4.000000e-05 3.729031e-05 1.000000e-07
4.000000e-05 3.713093e-05 1.000000e-07
4.000000e-05 3.697129e-05 1.000000e-07
4.000000e-05 3.680445e-05 1.000000e-07
4.000000e-05 3.661796e-05 1.000000e-07
2.500000e-05 2.357266e-07 -1.000000e-07
4.000000e-05 3.641212e-05 1.000000e-07
4.000000e-05 3.620506e-05 1.000000e-07
4.000000e-05 3.600046e-05 1.000000e-07
4.000000e-05 3.579535e-05 1.000000e-07
4.000000e-05 3.558612e-05 1.000000e-07
4.000000e-05 3.537166e-05 1.000000e-07
4.000000e-05 3.513165e-05 1.000000e-07
4.000000e-05 3.485424e-05 1.000000e-07
4.000000e-05 3.454962e-05 1.000000e-07
4.000000e-05 3.423283e-05 1.000000e-07
2.500000e-05 -2.933216e-07 -1.000000e-07
4.000000e-05 3.391058e-05 1.000000e-07
4.000000e-05 3.358953e-05 1.000000e-07
4.000000e-05 3.324104e-05 1.000000e-07
4.000000e-05 3.279687e-05 1.000000e-07
4.000000e-05 3.226576e-05 1.000000e-07
4.000000e-05 3.172351e-05 1.000000e-07
4.000000e-05 3.119198e-05 1.000000e-07
4.000000e-05 3.070662e-05 1.000000e-07
4.000000e-05 3.025910e-05 1.000000e-07
4.000000e-05 2.981624e-05 1.000000e-07
2.500000e-05 -8.700176e-07 -1.000000e-07
4.000000e-05 2.937298e-05 1.000000e-07
4.000000e-05 2.892408e-05 1.000000e-07
4.000000e-05 2.846362e-05 1.000000e-07
4.000000e-05 2.797738e-05 1.000000e-07
4.000000e-05 2.738024e-05 1.000000e-07
4.000000e-05 2.665698e-05 1.000000e-07
4.000000e-05 2.591624e-05 1.000000e-07
4.000000e-05 2.519665e-05 1.000000e-07
4.000000e-05 2.454684e-05 1.000000e-07
4.000000e-05 2.393895e-05 1.000000e-07
2.500000e-05 -1.500519e-06 -1.000000e-07
4.000000e-05 2.322347e-05 1.000000e-07
4.000000e-05 2.235445e-05 1.000000e-07
4.000000e-05 2.141858e-05 1.000000e-07
4.000000e-05 2.046272e-05 1.000000e-07
4.000000e-05 1.944439e-05 1.000000e-07
4.000000e-05 1.826344e-05 1.000000e-07
4.000000e-05 1.689093e-05 1.000000e-07
4.000000e-05 1.533036e-05 1.000000e-07
4.000000e-05 1.358002e-05 1.000000e-07
4.000000e-05 1.166446e-05 1.000000e-07
2.500000e-05 -2.180186e-06 -1.000000e-07
4.000000e-05 9.890351e-06 1.000000e-07
4.000000e-05 8.299708e-06 1.000000e-07
4.000000e-05 6.873562e-06 1.000000e-07
4.000000e-05 5.458977e-06 1.000000e-07
4.000000e-05 3.897704e-06 1.000000e-07
4.000000e-05 2.174500e-06 1.000000e-07
4.000000e-05 2.749481e-07 1.000000e-07
4.000000e-05 -1.741028e-06 1.000000e-07
4.000000e-05 -3.843149e-06 1.000000e-07
4.000000e-05 -6.035097e-06 1.000000e-07
2.500000e-05 -2.850067e-06 -1.000000e-07
4.000000e-05 -8.184804e-06 1.000000e-07
4.000000e-05 -1.013576e-05 1.000000e-07
4.000000e-05 -1.190351e-05 1.000000e-07
4.000000e-05 -1.344282e-05 1.000000e-07
4.000000e-05 -1.475795e-05 1.000000e-07
4.000000e-05 -1.589882e-05 1.000000e-07
4.000000e-05 -1.699626e-05 1.000000e-07
4.000000e-05 -1.807214e-05 1.000000e-07
4.000000e-05 -1.911730e-05 1.000000e-07
4.000000e-05 -2.011822e-05 1.000000e-07
-4.000000e-05 4.000000e-05 1.000000e-07
2.500000e-05 -3.499764e-06 -1.000000e-07
4.000000e-05 -2.108869e-05 1.000000e-07
4.000000e-05 -2.208047e-05 1.000000e-07
4.000000e-05 -2.304549e-05 1.000000e-07
4.000000e-05 -2.383129e-05 1.000000e-07
4.000000e-05 -2.447959e-05 1.000000e-07
4.000000e-05 -2.505184e-05 1.000000e-07
4.000000e-05 -2.556483e-05 1.000000e-07
4.000000e-05 -2.615263e-05 1.000000e-07
4.000000e-05 -2.688626e-05 1.000000e-07
4.000000e-05 -2.765361e-05 1.000000e-07
2.500000e-05 -4.136984e-06 -1.000000e-07
4.000000e-05 -2.835303e-05 1.000000e-07
4.000000e-05 -2.887236e-05 1.000000e-07
4.000000e-05 -2.927231e-05 1.000000e-07
4.000000e-05 -2.967088e-05 1.000000e-07
4.000000e-05 -3.007922e-05 1.000000e-07
4.000000e-05 -3.049452e-05 1.000000e-07
4.000000e-05 -3.091490e-05 1.000000e-07
4.000000e-05 -3.134766e-05 1.000000e-07
4.000000e-05 -3.180196e-05 1.000000e-07
4.000000e-05 -3.224931e-05 1.000000e-07
2.500000e-05 -4.808521e-06 -1.000000e-07
4.000000e-05 -3.266810e-05 1.000000e-07
4.000000e-05 -3.303254e-05 1.000000e-07
4.000000e-05 -3.334538e-05 1.000000e-07
4.000000e-05 -3.363181e-05 1.000000e-07
[...]
POINT_DATA 7544
VECTORS 10.000GHz_fone_imag double
4.054462e+11 3.534724e+11 -1.535980e+09
2.027370e+09 -2.341357e+11 1.907654e+07
6.799932e+10 8.655017e+08 1.477498e+08
6.986256e+10 4.497849e+07 3.059352e+08
7.147887e+10 7.261030e+08 -5.261048e+08
7.206036e+10 -4.421269e+08 5.322782e+08
6.755480e+10 3.722111e+08 -4.253954e+08
7.065989e+10 7.265218e+08 -6.522034e+08
7.277722e+10 1.030391e+09 -1.818463e+08
7.393403e+10 1.398587e+08 1.832761e+07
7.793332e+10 1.554849e+09 1.903245e+08
7.914754e+10 -5.609787e+08 -2.488840e+08
8.317189e+08 -2.067508e+11 7.477034e+07
8.067805e+10 9.750687e+08 -1.231732e+08
8.026999e+10 1.297775e+08 -3.541265e+08
8.113213e+10 1.107094e+09 -8.740749e+07
8.105270e+10 1.264639e+08 -1.826874e+08
8.012311e+10 1.100213e+09 -3.451715e+08
8.573825e+10 1.402379e+09 1.116091e+08
9.211051e+10 1.544512e+08 3.116532e+08
9.090479e+10 3.139369e+08 -4.145044e+08
8.713127e+10 2.185602e+08 -4.300586e+08
8.812477e+10 -1.788536e+08 2.879742e+08
-3.441967e+09 -2.201316e+11 6.955344e+08
8.938923e+10 1.018328e+09 -1.798965e+08
8.448451e+10 -4.638757e+08 -2.712279e+08
8.012944e+10 8.121503e+08 -2.131002e+08
8.462394e+10 1.733108e+09 5.306178e+08
9.333200e+10 1.169313e+09 -4.181613e+08
9.363744e+10 -5.573545e+08 2.901519e+08
8.741175e+10 9.315548e+08 -3.296982e+08
9.898821e+10 2.323189e+09 -6.091528e+08
9.821975e+10 2.327904e+08 6.647138e+07
9.328710e+10 2.285256e+08 3.845219e+08
-5.210470e+08 -2.381340e+11 -1.870163e+09
9.853326e+10 7.677803e+08 2.505096e+07
9.396863e+10 -8.302718e+08 -2.426663e+08
8.977596e+10 1.688580e+09 -3.733289e+07
1.042142e+11 1.451620e+09 5.799568e+08
1.038375e+11 4.771527e+08 -5.865175e+08
9.560588e+10 1.327915e+07 -2.967262e+08
1.013421e+11 1.534556e+09 3.528773e+07
1.045822e+11 -2.497313e+08 1.407441e+08
1.055551e+11 -7.776227e+08 8.874291e+06
9.420082e+10 3.560616e+08 -1.429780e+08
-9.094888e+08 -2.311142e+11 1.327217e+09
1.023143e+11 6.159067e+08 -1.789232e+08
9.619468e+10 7.932092e+08 -2.282404e+08
8.541687e+10 8.218867e+08 -6.519022e+06
9.089526e+10 -5.649685e+08 -7.909551e+07
8.958860e+10 9.103623e+08 1.271254e+08
9.921354e+10 5.902039e+08 4.835806e+07
9.216306e+10 -4.259426e+08 -8.093895e+07
1.001363e+11 7.076581e+08 3.199729e+08
9.939513e+10 -2.045016e+08 -6.458987e+07
9.949407e+10 6.229063e+08 -2.691778e+08
1.646554e+08 -2.504192e+11 -1.489528e+09
1.091149e+11 -2.497372e+08 -3.788170e+07
9.939345e+10 -1.101467e+09 -4.802078e+07
1.057526e+11 -1.905051e+07 4.919604e+07
9.439634e+10 -1.667206e+09 -2.716958e+08
8.900752e+10 -4.934867e+07 2.223108e+08
9.830863e+10 -1.532665e+08 3.153169e+08
1.130415e+11 -2.808503e+08 -6.490734e+06
9.891422e+10 -1.295205e+09 2.785614e+08
1.015604e+11 -2.359021e+08 -2.625469e+07
9.118847e+10 -2.558418e+09 -2.773704e+08
1.295824e+09 -2.439398e+11 1.374962e+09
9.254613e+10 -4.183984e+08 8.197363e+08
9.843331e+10 -1.005138e+09 -8.202862e+05
9.736177e+10 -1.313326e+09 3.805703e+08
1.024473e+11 3.125396e+08 2.207335e+08
1.038403e+11 -9.977974e+08 -1.818801e+08
9.766643e+10 3.069113e+08 -3.525855e+07
9.804927e+10 -5.606891e+08 6.278158e+07
9.760328e+10 1.116807e+09 -6.115840e+08
9.508485e+10 -2.356870e+09 7.121440e+08
9.448924e+10 -3.481399e+08 -1.964225e+08
7.507812e+08 -2.372635e+11 -2.183182e+09
9.416020e+10 -1.259417e+09 -1.533000e+08
8.708578e+10 -1.474604e+08 -3.312987e+07
8.624349e+10 7.246603e+07 -1.231197e+08
8.978692e+10 -7.190662e+08 7.554251e+08
8.907577e+10 -5.881842e+08 -1.292390e+08
8.717384e+10 -2.636748e+08 9.251100e+07
8.589170e+10 -8.939909e+08 -3.074650e+08
8.102552e+10 2.559146e+06 3.567777e+08
7.704551e+10 -5.547230e+08 -2.945258e+08
7.913983e+10 4.211486e+08 3.052910e+07
7.892478e+08 -2.489832e+11 1.775542e+09
8.013855e+10 -5.961733e+08 -2.132138e+08
7.800534e+10 -4.743719e+08 5.326346e+08
7.775934e+10 -7.394334e+08 -3.657195e+08
7.671117e+10 -1.406958e+08 1.360895e+08
7.532364e+10 -8.831143e+08 1.759016e+07
7.467273e+10 5.525189e+07 2.534832e+07
7.226975e+10 -7.201571e+08 -2.556686e+08
6.869581e+10 5.966460e+06 -1.301125e+08
6.947184e+10 3.359691e+08 -1.068655e+08
6.793555e+10 -6.521335e+08 -3.669788e+07
4.222392e+08 -2.421806e+11 -2.092420e+08
6.605358e+10 -1.355249e+08 -2.165143e+08
6.361992e+10 -5.276491e+08 1.112054e+06
6.395506e+10 -7.905539e+06 1.501316e+08
6.550234e+10 1.855197e+08 4.626288e+08
6.360225e+10 -7.944751e+08 -4.876579e+08
6.173963e+10 1.207839e+07 6.699198e+07
6.241669e+10 -1.096155e+08 2.463611e+08
5.851323e+10 -6.621547e+08 8.480376e+07
5.844543e+10 2.393843e+07 -2.352248e+08
5.727407e+10 -6.954814e+08 -1.039753e+08
-8.824331e+09 7.920286e+09 -2.839303e+07
4.080657e+08 -2.294806e+11 2.535314e+08
5.524830e+10 -2.211810e+08 -9.530719e+07
5.363022e+10 -5.709831e+08 4.216863e+07
5.246960e+10 -1.434379e+08 2.710943e+08
5.235332e+10 -3.041252e+08 1.299776e+08
4.864761e+10 -7.990430e+08 -1.273062e+08
4.795332e+10 1.363121e+07 1.837313e+08
4.683414e+10 -6.353219e+08 7.794504e+06
4.565811e+10 -1.715808e+08 5.803651e+07
4.407271e+10 -3.424863e+08 3.811605e+08
4.314662e+10 -1.156820e+09 -1.023968e+08
-2.202374e+09 -2.511653e+11 -1.823446e+09
3.867407e+10 -9.634328e+08 -3.666743e+08
3.638402e+10 -5.907215e+08 2.476323e+08
3.439329e+10 -7.482873e+08 2.254202e+08
3.147145e+10 -9.804348e+08 -1.642370e+08
2.682269e+10 -1.500892e+09 6.763619e+06
1.913114e+10 -2.588824e+09 3.586115e+08
2.486342e+09 -1.959940e+10 -4.208524e+08
1.596998e+09 -2.762496e+10 -4.460457e+07
8.278650e+08 -3.245239e+10 -2.426172e+08
1.064398e+09 -3.546772e+10 -1.436034e+08
-4.906009e+08 -2.610592e+11 1.819059e+09
1.163515e+09 -3.833671e+10 5.294126e+08
2.554232e+08 -4.098605e+10 -4.679221e+08
2.392332e+08 -4.159271e+10 -3.372508e+08
4.491132e+08 -4.281142e+10 -2.462675e+07
5.178652e+08 -4.475599e+10 1.479738e+07
6.185451e+08 -4.649843e+10 -1.361767e+08
1.813958e+08 -4.832388e+10 5.245250e+07
9.370051e+08 -5.111119e+10 3.209410e+08
3.497126e+08 -5.402019e+10 3.084843e+08
1.845508e+08 -5.502287e+10 -5.861996e+08
-8.761717e+08 -2.524361e+11 1.277245e+08
6.349145e+08 -5.556455e+10 -2.602467e+08
5.498719e+08 -5.813492e+10 3.968987e+08
-3.487577e+08 -5.848580e+10 -2.275235e+08
3.500022e+08 -5.768978e+10 -1.608253e+08
6.342190e+08 -5.898426e+10 2.580857e+08
7.042385e+08 -6.268282e+10 -3.873235e+08
-4.699027e+07 -6.382164e+10 1.639981e+08
4.882112e+07 -6.313409e+10 -1.754474e+08
5.070155e+08 -6.477672e+10 1.999581e+08
-3.862973e+08 -6.577942e+10 7.983840e+07
3.079449e+09 -2.725932e+11 -1.819730e+09
3.263340e+08 -6.489147e+10 6.397480e+07
9.800506e+07 -6.630717e+10 2.179476e+08
6.607931e+08 -6.823426e+10 1.129418e+08
2.395467e+08 -7.140252e+10 1.383552e+08
6.791868e+08 -7.143939e+10 1.780611e+08
-2.922868e+08 -7.347291e+10 -7.960332e+08
3.216797e+08 -7.203124e+10 2.062387e+08
-1.367138e+08 -7.158761e+10 -2.379780e+08
8.199593e+08 -7.374657e+10 4.580628e+08
-1.462409e+08 -7.566949e+10 -2.214712e+08
-8.518582e+08 -2.742440e+11 1.233918e+08
9.067230e+08 -7.807081e+10 2.936782e+08
-1.231512e+08 -7.895312e+10 2.592735e+07
-1.387230e+08 -7.666078e+10 -5.925208e+07
2.036213e+08 -7.785370e+10 1.400829e+08
2.298275e+07 -7.776069e+10 4.741230e+08
7.202024e+07 -7.998901e+10 -2.866803e+08
-4.766590e+08 -7.945327e+10 7.068101e+07
1.724974e+08 -8.064721e+10 2.954072e+08
3.859446e+07 -8.414026e+10 2.689381e+08
4.093913e+08 -8.784461e+10 3.517064e+08
3.219215e+09 -2.679249e+11 -5.005089e+08
1.730989e+08 -9.278085e+10 2.570821e+07
8.929568e+08 -8.929892e+10 -1.832697e+08
-8.381073e+08 -9.013297e+10 1.429352e+08
7.598729e+08 -8.592997e+10 1.142378e+08
8.382304e+08 -9.006177e+10 -8.131873e+08
9.005288e+08 -8.770771e+10 3.608756e+08
4.209645e+08 -9.811717e+10 -3.599046e+06
-5.087308e+08 -9.567829e+10 2.162051e+08
1.981349e+09 -9.524472e+10 -2.781095e+08
-1.022158e+09 -9.828157e+10 -8.090051e+06
-8.396442e+08 -2.690055e+11 2.895946e+08
7.567235e+08 -9.147786e+10 -5.247018e+08
1.193616e+09 -9.378401e+10 3.083368e+08
1.122971e+09 -1.049248e+11 1.549885e+08
5.715418e+08 -1.037876e+11 -4.385317e+08
1.311771e+07 -8.937623e+10 -2.452065e+08
1.262458e+09 -9.381106e+10 4.021531e+07
4.542850e+08 -8.989007e+10 -6.713516e+07
1.029297e+09 -9.481230e+10 6.871193e+07
1.988564e+09 -9.450637e+10 -3.929684e+07
4.552520e+08 -1.034682e+11 -2.116676e+08
2.201297e+09 -2.616059e+11 5.724237e+08
2.145092e+09 -1.011040e+11 -1.712758e+08
-4.691874e+08 -1.036656e+11 1.494063e+08
-8.824093e+08 -9.567688e+10 -2.239892e+08
-2.169919e+09 -8.686689e+10 6.962190e+07
-3.195871e+08 -8.928628e+10 1.442505e+08
2.224169e+08 -9.988027e+10 1.175725e+08
1.927159e+08 -1.053320e+11 5.115746e+07
-1.702198e+09 -9.804678e+10 2.398430e+08
-2.843281e+08 -9.554977e+10 -2.411881e+08
-3.536539e+08 -8.927864e+10 9.221862e+07
-2.639340e+09 -2.557743e+11 -1.117810e+09
-7.936289e+08 -9.580100e+10 -3.332170e+07
1.336040e+08 -8.753395e+10 3.603540e+08
-8.212741e+07 -8.871696e+10 -4.884621e+08
-5.092058e+07 -9.096435e+10 2.325135e+08
6.704501e+08 -9.580725e+10 -1.741345e+08
-2.012292e+09 -9.785617e+10 -6.021167e+07
-7.352513e+07 -9.387909e+10 3.194803e+08
5.509250e+07 -1.022876e+11 3.057905e+08
1.676227e+07 -1.038598e+11 -4.490406e+08
-1.302884e+07 -1.042928e+11 9.528353e+08
8.286711e+09 7.062961e+09 -2.009909e+07
2.642324e+09 -2.721160e+11 -6.884043e+08
-9.699540e+08 -1.028340e+11 -6.955731e+08
2.303178e+08 -1.101145e+11 1.382745e+08
-1.951631e+09 -1.005133e+11 -2.649570e+08
-3.514047e+08 -9.440258e+10 5.309223e+08
6.942498e+08 -1.041870e+11 2.621596e+08
-5.401121e+08 -9.996991e+10 -1.307720e+09
-1.524585e+09 -9.469798e+10 8.881305e+08
-4.530355e+08 -9.366678e+10 -1.114777e+08
-1.447354e+09 -9.028343e+10 -3.524477e+07
-1.957304e+09 -7.915357e+10 -6.472705e+07
1.480817e+09 -2.410383e+11 8.950543e+08
9.839848e+08 -8.265222e+10 3.713206e+08
-1.830754e+09 -8.737243e+10 8.787318e+08
-1.590720e+09 -9.054343e+10 3.571180e+06
-6.848081e+07 -9.048345e+10 -3.927555e+07
1.640132e+08 -8.857167e+10 4.368343e+08
-1.175194e+09 -9.310358e+10 -2.221228e+08
2.382513e+08 -8.792834e+10 9.439777e+07
-8.220696e+08 -8.318344e+10 -5.913370e+08
1.538751e+08 -8.339612e+10 -2.384281e+08
1.834465e+08 -8.581341e+10 3.500820e+07
-2.310052e+09 -2.544684e+11 -1.135190e+08
-5.471686e+08 -8.292950e+10 -1.827523e+08
2.091467e+06 -8.408133e+10 8.800694e+07
-5.814441e+08 -7.817341e+10 -1.082568e+08
1.575852e+08 -7.949379e+10 -1.892581e+08
-4.109796e+08 -7.630626e+10 -3.477652e+08
2.492907e+08 -7.397220e+10 -2.580004e+08
-1.500926e+08 -7.232943e+10 -1.867319e+08
-4.357041e+08 -7.079943e+10 -4.454170e+08
-9.124895e+07 -6.870046e+10 1.614805e+08
6.410651e+07 -7.047270e+10 -6.598543e+07
1.784008e+09 -2.565867e+11 1.131960e+09
-9.849338e+08 -6.792604e+10 2.478364e+08
3.672414e+08 -6.679343e+10 -2.563516e+08
-6.716510e+08 -6.298858e+10 2.648308e+08
-1.357877e+08 -6.747238e+10 -7.050186e+07
-4.622148e+08 -6.522835e+10 -2.588237e+07
5.498199e+06 -6.413810e+10 -2.244782e+08
-5.008914e+08 -6.199765e+10 -1.808127e+08
1.894850e+08 -6.092630e+10 -2.781830e+07
-3.454937e+08 -6.077744e+10 -1.761977e+08
-3.487697e+08 -5.918204e+10 2.666796e+08
-2.100771e+09 -2.500014e+11 -1.194814e+09
-5.220483e+08 -5.681567e+10 -1.757161e+08
2.787396e+08 -5.791935e+10 1.187491e+09
-6.977980e+08 -5.874166e+10 -4.625935e+08
-6.950457e+08 -5.447843e+10 -2.669855e+08
-4.101218e+08 -5.172993e+10 1.138906e+08
-2.024785e+08 -5.081489e+10 1.327453e+08
1.238813e+08 -5.167900e+10 4.742276e+08
-8.536613e+08 -4.820662e+10 -2.274545e+08
-2.661496e+08 -4.624845e+10 3.137070e+08
-6.308012e+08 -4.368107e+10 -4.499414e+08
1.334692e+09 -2.744621e+11 -1.078383e+09
-2.098596e+08 -4.211545e+10 4.532103e+08
-7.825136e+08 -4.079834e+10 -1.554828e+08
-2.704090e+08 -3.836908e+10 3.479466e+08
-1.215131e+09 -3.577613e+10 -2.599034e+08
-1.237126e+09 -3.180507e+10 -8.338157e+07
-1.791586e+09 -2.642391e+10 1.915080e+08
-1.821161e+09 -2.003223e+10 6.702158e+08
-2.048390e+10 -2.872788e+09 3.743741e+07
-2.919754e+10 -9.196645e+08 -3.828509e+08
-3.219688e+10 -1.363332e+09 2.001532e+08
5.159307e+08 -2.507864e+11 1.734658e+09
-3.866762e+10 -7.519531e+08 1.003554e+08
-3.880617e+10 -1.747831e+08 -7.893021e+08
-4.118068e+10 -1.198577e+09 4.805514e+08
-4.686045e+10 -6.257691e+08 -3.871619e+07
-4.746865e+10 1.016177e+08 -6.206964e+08
-4.642092e+10 -3.873590e+07 2.646183e+07
-4.890764e+10 -8.109827e+08 9.438000e+07
-4.930062e+10 1.521183e+08 -2.824383e+08
-4.888132e+10 -2.709607e+08 -2.196061e+08
-5.077921e+10 -1.097448e+09 3.004517e+08
-1.702550e+09 -2.459863e+11 2.718796e+08
-5.191438e+10 2.342184e+08 -5.703585e+08
-5.398909e+10 -1.182857e+09 4.490718e+08
-5.985824e+10 -9.826606e+08 4.259710e+08
-6.274712e+10 -3.593674e+08 -3.259006e+08
-6.138529e+10 1.151664e+08 -3.076492e+08
-6.142331e+10 -5.936159e+08 -3.159668e+06
-6.408646e+10 -3.854896e+08 7.903037e+07
-6.510013e+10 -1.800878e+08 -2.069502e+08
-6.469520e+10 1.527696e+08 -1.062736e+08
-6.355946e+10 -4.934153e+08 -7.084304e+07
-2.802135e+09 -2.544213e+11 -9.150776e+08
-6.301050e+10 2.068332e+08 8.097049e+07
-6.688829e+10 -6.364937e+08 1.571554e+08
-6.842709e+10 -3.962465e+08 1.624356e+08
-7.141913e+10 -5.547972e+08 2.508401e+07
-7.474049e+10 -4.422162e+08 2.033955e+08
-7.366372e+10 -1.981894e+08 -6.991100e+08
-7.669112e+10 2.880149e+08 7.004225e+06
-7.841366e+10 -2.402691e+08 6.945054e+08
-7.697773e+10 7.130943e+08 4.153071e+08
-7.845450e+10 -5.386529e+08 3.241946e+08
-5.336936e+09 -2.833002e+11 -3.444919e+08
-8.104867e+10 -7.636857e+07 5.854517e+08
-8.297591e+10 -4.449359e+07 -3.335283e+08
-7.970229e+10 1.037223e+08 -1.370156e+08
-8.504232e+10 -1.084229e+09 1.569860e+08
-8.813863e+10 1.008136e+07 5.215196e+08
-8.919126e+10 -4.669743e+08 -4.760264e+08
-8.918203e+10 -8.976238e+08 -1.683755e+08
-9.092048e+10 2.531997e+08 3.515036e+08
-8.925753e+10 -1.967761e+09 -8.974075e+08
-9.028854e+10 3.882809e+08 6.662948e+08
7.370443e+09 -7.556404e+09 1.605547e+07
1.800142e+09 -2.978017e+11 9.124506e+08
-9.496182e+10 -2.255135e+09 -5.424364e+08
-9.334948e+10 1.910532e+09 6.312177e+08
-8.545343e+10 6.160341e+08 -3.038686e+08
-8.884711e+10 -6.918191e+08 1.386845e+08
-9.084285e+10 -8.766913e+07 -1.360064e+08
-9.513403e+10 -1.016810e+08 1.162771e+08
-1.042000e+11 -1.349956e+09 -3.660158e+08
-9.018619e+10 -4.656078e+08 1.121503e+08
-9.972900e+10 -1.959881e+09 1.538799e+08
-1.064120e+11 -7.204697e+08 -2.668217e+08
-1.403944e+09 -2.768287e+11 3.558574e+08
-1.030022e+11 6.967715e+08 7.501365e+07
-9.153819e+10 -8.061292e+08 1.553466e+08
-1.007002e+11 -1.496193e+09 -1.442243e+08
-1.049874e+11 -1.891748e+09 -3.248472e+08
-1.116428e+11 -1.462701e+08 7.527109e+08
-1.050670e+11 1.838682e+08 -3.738007e+08
-1.047175e+11 -7.090210e+08 -8.763336e+08
-9.677036e+10 -4.945160e+08 3.862365e+08
-1.035845e+11 4.603923e+08 -2.482894e+08
-9.257475e+10 -2.701017e+08 1.404778e+08
3.955728e+09 -2.751532e+11 -6.178526e+08
-1.018431e+11 -1.441477e+09 -8.194606e+07
-1.060107e+11 -4.648304e+08 6.509992e+07
-1.006334e+11 -2.940118e+08 3.074309e+08
-9.693371e+10 1.141780e+09 -2.248621e+08
-1.007226e+11 2.124278e+08 6.238517e+07
-1.036586e+11 1.782928e+08 -3.200357e+06
-1.041778e+11 1.179477e+08 1.238411e+08
-1.171220e+11 8.595853e+08 1.376112e+07
-1.036613e+11 9.774257e+08 -2.037715e+08
-9.847417e+10 -1.430838e+09 3.294953e+08
-2.051318e+08 -2.691145e+11 1.307867e+08
-1.046292e+11 4.085872e+08 1.261446e+08
-1.146138e+11 -1.060000e+09 -3.658100e+08
-9.397781e+10 2.297483e+09 -2.752320e+08
-9.102724e+10 -4.043010e+08 7.193743e+07
-9.152020e+10 -1.372963e+09 -1.081529e+08
-9.036318e+10 -1.455283e+09 -1.844727e+08
-9.349169e+10 -1.222311e+09 1.471802e+08
-1.044447e+11 -1.437763e+09 -2.139445e+08
-1.070134e+11 6.839757e+08 9.143920e+07
-1.016883e+11 1.438166e+08 1.588518e+08
2.866868e+09 -2.582511e+11 3.524819e+08
-1.073932e+11 1.481074e+09 5.306782e+07
-1.007830e+11 1.643909e+09 1.063514e+08
-9.516877e+10 4.748607e+08 1.557933e+08
-1.047063e+11 -6.410113e+08 2.415678e+08
-1.075972e+11 -1.560186e+07 4.212265e+07
-9.636143e+10 1.789746e+09 -1.130438e+08
-9.540699e+10 -2.138827e+09 -2.767790e+08
-9.507597e+10 1.702594e+09 -5.921783e+08
-8.696801e+10 4.824800e+08 6.994121e+08
-8.822865e+10 4.079231e+08 -3.449004e+08
1.422134e+09 -2.703924e+11 -1.966875e+09
-8.378874e+10 1.175137e+09 -4.047617e+07
-8.356058e+10 -1.971717e+08 4.259012e+08
-9.139119e+10 -4.241591e+08 -1.074042e+08
-8.833432e+10 1.070174e+09 3.353329e+07
-8.702742e+10 -4.101076e+08 -1.577296e+08
-8.863948e+10 7.668751e+08 8.030987e+08
-9.673245e+10 -3.070922e+08 -7.105564e+07
-8.656188e+10 1.084844e+09 -6.827221e+08
-8.348474e+10 -5.449466e+07 2.030579e+08
-8.603038e+10 -7.868760e+08 -3.178634e+08
-1.045696e+09 -2.680119e+11 2.157630e+09
-8.563608e+10 8.377460e+08 4.240980e+08
-8.424787e+10 5.945390e+08 -3.581247e+08
-8.221583e+10 3.598397e+08 5.748011e+08
-8.103665e+10 1.188718e+09 -6.098276e+08
-7.837629e+10 1.904843e+08 4.176821e+07
-7.465432e+10 1.406070e+09 -1.659738e+08
-7.381208e+10 -6.040177e+08 2.146724e+08
-7.900844e+10 1.096402e+08 -6.922440e+07
-7.504130e+10 6.103552e+08 -5.604959e+08
-7.020761e+10 4.637215e+08 -4.611249e+08
-1.945631e+09 -2.505498e+11 -2.804661e+08
-6.696298e+10 -1.940365e+07 4.070397e+07
-6.573438e+10 5.080173e+08 -1.903942e+08
-6.542361e+10 3.263353e+08 5.173377e+08
-6.218134e+10 9.741257e+08 -7.770977e+08
-5.992785e+10 3.328305e+08 7.049153e+08
-6.332843e+10 -4.292874e+08 3.892462e+07
-6.237581e+10 7.472517e+08 -1.261042e+08
-6.034742e+10 5.232877e+06 9.466352e+07
-6.040130e+10 5.166365e+08 -3.320793e+08
-5.584784e+10 5.125494e+08 7.369123e+07
3.026831e+08 -2.759890e+11 -1.712668e+09
-5.756449e+10 -7.745852e+08 3.887299e+08
-6.018433e+10 4.521908e+08 4.713933e+08
-5.685678e+10 3.447966e+08 6.301546e+08
-5.587932e+10 9.203067e+08 -8.924389e+08
-5.424608e+10 3.933104e+08 3.386417e+08
-5.138595e+10 4.484237e+08 -1.789817e+07
-5.008191e+10 4.545962e+08 -3.291936e+08
-4.697141e+10 7.370040e+08 -1.130643e+08
-4.523421e+10 1.223293e+08 4.241457e+07
-4.546954e+10 1.179344e+08 5.436691e+08
-3.854588e+09 -2.814030e+11 2.156331e+09
-4.406768e+10 5.572684e+08 -2.069424e+08
-3.956291e+10 1.193785e+09 -3.077866e+08
-3.811953e+10 -1.871110e+08 4.468500e+08
-3.785732e+10 8.903622e+08 1.726825e+08
-3.380021e+10 9.259630e+08 -1.377352e+08
-2.742470e+10 1.920247e+09 -5.637007e+08
-2.124731e+10 1.441594e+09 6.363758e+08
-5.444945e+11 2.239419e+10 -1.633776e+09
-5.054187e+11 1.175206e+10 7.007880e+08
-4.279172e+11 8.446363e+09 2.783786e+08
-6.957070e+09 -8.297217e+09 -4.531328e+06
3.654909e+09 -2.700648e+11 -1.434893e+09
-3.974141e+11 7.874945e+09 1.147333e+09
-3.473572e+11 5.293283e+09 2.011132e+08
-3.052412e+11 2.098060e+08 -1.186425e+09
-3.241084e+11 2.811513e+09 9.612642e+08
-3.086565e+11 1.900864e+09 -1.051923e+09
-2.917321e+11 2.244985e+09 3.205995e+08
-2.836097e+11 -8.374006e+08 1.348835e+09
-2.846397e+11 9.900100e+08 -7.505112e+08
-2.773366e+11 -3.072602e+08 -5.650244e+08
-2.956920e+11 6.628541e+08 3.302601e+08
-7.628812e+08 -2.759295e+11 -8.245129e+08
-3.043236e+11 8.953249e+08 -6.325349e+08
-2.798896e+11 3.915292e+09 7.204513e+08
-2.600037e+11 3.863343e+09 8.453917e+07
-2.435915e+11 -2.735508e+08 -1.028730e+09
-2.592893e+11 -1.273472e+09 2.186923e+09
-2.225200e+11 2.982365e+09 2.566906e+07
-2.263153e+11 8.891546e+08 -1.341891e+09
-2.406724e+11 -1.987055e+09 4.152049e+08
-2.308956e+11 3.861928e+09 -2.650037e+07
-2.323865e+11 -2.176502e+07 6.894485e+07
-7.199750e+08 -2.936025e+11 1.019570e+09
-2.329989e+11 -4.941436e+09 1.524330e+08
-2.341126e+11 -2.337756e+09 6.749270e+08
-2.480995e+11 -4.993628e+09 -2.408066e+08
-2.403852e+11 1.132680e+09 9.161609e+08
-2.614593e+11 -4.479552e+09 1.042247e+09
-2.562494e+11 -1.678058e+09 -1.531327e+08
-2.407640e+11 7.538154e+08 3.003155e+08
-2.442487e+11 -7.221906e+07 4.572473e+08
-2.383330e+11 1.463845e+09 2.162284e+08
-2.209045e+11 4.888514e+08 -1.364305e+09
-2.834230e+09 -2.909584e+11 -5.622382e+08
-2.327906e+11 -5.800069e+08 1.567460e+09
-2.115279e+11 -5.520865e+08 -6.123683e+08
-2.360948e+11 -3.914740e+09 6.774139e+08
-2.367242e+11 1.078754e+08 -6.384147e+07
-2.287524e+11 3.266672e+07 -1.028517e+08
-2.387755e+11 4.336398e+08 -7.778683e+06
-2.284468e+11 5.925032e+07 -5.926606e+08
-2.455776e+11 1.111124e+09 2.865193e+08
-2.367631e+11 -8.870748e+08 -1.969257e+09
-2.471059e+11 -3.347942e+08 8.704304e+08