# vtk DataFile Version 2.0
Electric current density generated by TTH
ASCII
DATASET UNSTRUCTURED_GRID
POINTS 6483 double
-2.500000e-05 2.500000e-05 -1.000000e-07
-4.000000e-05 4.000000e-05 1.000000e-07
2.500000e-05 8.942350e-06 -1.000000e-07
-1.580892e-05 4.000000e-05 1.000000e-07
-1.453952e-05 4.000000e-05 1.000000e-07
-1.306811e-05 4.000000e-05 1.000000e-07
-1.134060e-05 4.000000e-05 1.000000e-07
-9.440292e-06 4.000000e-05 1.000000e-07
-7.447897e-06 4.000000e-05 1.000000e-07
-5.358130e-06 4.000000e-05 1.000000e-07
-3.155411e-06 4.000000e-05 1.000000e-07
-8.302123e-07 4.000000e-05 1.000000e-07
1.584425e-06 4.000000e-05 1.000000e-07
2.500000e-05 8.066095e-06 -1.000000e-07
3.768899e-06 4.000000e-05 1.000000e-07
5.682665e-06 4.000000e-05 1.000000e-07
7.390783e-06 4.000000e-05 1.000000e-07
9.103766e-06 4.000000e-05 1.000000e-07
1.085587e-05 4.000000e-05 1.000000e-07
1.263984e-05 4.000000e-05 1.000000e-07
1.430799e-05 4.000000e-05 1.000000e-07
1.581746e-05 4.000000e-05 1.000000e-07
1.718334e-05 4.000000e-05 1.000000e-07
1.841909e-05 4.000000e-05 1.000000e-07
2.500000e-05 7.206362e-06 -1.000000e-07
1.953704e-05 4.000000e-05 1.000000e-07
2.055799e-05 4.000000e-05 1.000000e-07
2.154358e-05 4.000000e-05 1.000000e-07
2.250260e-05 4.000000e-05 1.000000e-07
2.336038e-05 4.000000e-05 1.000000e-07
2.408679e-05 4.000000e-05 1.000000e-07
2.472883e-05 4.000000e-05 1.000000e-07
2.532434e-05 4.000000e-05 1.000000e-07
2.588395e-05 4.000000e-05 1.000000e-07
2.645049e-05 4.000000e-05 1.000000e-07
2.500000e-05 6.359591e-06 -1.000000e-07
2.702981e-05 4.000000e-05 1.000000e-07
2.757181e-05 4.000000e-05 1.000000e-07
2.805330e-05 4.000000e-05 1.000000e-07
2.850155e-05 4.000000e-05 1.000000e-07
2.896429e-05 4.000000e-05 1.000000e-07
2.944016e-05 4.000000e-05 1.000000e-07
2.989856e-05 4.000000e-05 1.000000e-07
3.033308e-05 4.000000e-05 1.000000e-07
3.073794e-05 4.000000e-05 1.000000e-07
3.111165e-05 4.000000e-05 1.000000e-07
2.500000e-05 5.533983e-06 -1.000000e-07
3.147776e-05 4.000000e-05 1.000000e-07
3.188937e-05 4.000000e-05 1.000000e-07
3.234682e-05 4.000000e-05 1.000000e-07
3.282465e-05 4.000000e-05 1.000000e-07
3.326048e-05 4.000000e-05 1.000000e-07
3.359627e-05 4.000000e-05 1.000000e-07
3.387945e-05 4.000000e-05 1.000000e-07
3.413917e-05 4.000000e-05 1.000000e-07
3.438286e-05 4.000000e-05 1.000000e-07
3.464488e-05 4.000000e-05 1.000000e-07
2.500000e-05 4.738202e-06 -1.000000e-07
3.493258e-05 4.000000e-05 1.000000e-07
3.523257e-05 4.000000e-05 1.000000e-07
3.553577e-05 4.000000e-05 1.000000e-07
3.582060e-05 4.000000e-05 1.000000e-07
3.607712e-05 4.000000e-05 1.000000e-07
3.631657e-05 4.000000e-05 1.000000e-07
3.654658e-05 4.000000e-05 1.000000e-07
3.676207e-05 4.000000e-05 1.000000e-07
3.695495e-05 4.000000e-05 1.000000e-07
3.713331e-05 4.000000e-05 1.000000e-07
2.500000e-05 3.971765e-06 -1.000000e-07
3.732036e-05 4.000000e-05 1.000000e-07
3.751110e-05 4.000000e-05 1.000000e-07
3.767983e-05 4.000000e-05 1.000000e-07
3.783213e-05 4.000000e-05 1.000000e-07
3.798027e-05 4.000000e-05 1.000000e-07
3.812403e-05 4.000000e-05 1.000000e-07
3.826222e-05 4.000000e-05 1.000000e-07
3.839718e-05 4.000000e-05 1.000000e-07
3.853226e-05 4.000000e-05 1.000000e-07
3.866315e-05 4.000000e-05 1.000000e-07
2.500000e-05 3.247832e-06 -1.000000e-07
3.878599e-05 4.000000e-05 1.000000e-07
3.890431e-05 4.000000e-05 1.000000e-07
3.902167e-05 4.000000e-05 1.000000e-07
3.913685e-05 4.000000e-05 1.000000e-07
3.924708e-05 4.000000e-05 1.000000e-07
3.935189e-05 4.000000e-05 1.000000e-07
3.945009e-05 4.000000e-05 1.000000e-07
3.954904e-05 4.000000e-05 1.000000e-07
3.966297e-05 4.000000e-05 1.000000e-07
3.980343e-05 4.000000e-05 1.000000e-07
2.500000e-05 2.569914e-06 -1.000000e-07
4.000000e-05 3.978305e-05 1.000000e-07
4.000000e-05 3.962710e-05 1.000000e-07
4.000000e-05 3.950424e-05 1.000000e-07
4.000000e-05 3.940147e-05 1.000000e-07
4.000000e-05 3.930095e-05 1.000000e-07
4.000000e-05 3.919902e-05 1.000000e-07
4.000000e-05 3.908944e-05 1.000000e-07
4.000000e-05 3.897138e-05 1.000000e-07
4.000000e-05 3.884548e-05 1.000000e-07
4.000000e-05 3.871202e-05 1.000000e-07
2.500000e-05 1.934834e-06 -1.000000e-07
4.000000e-05 3.857664e-05 1.000000e-07
4.000000e-05 3.844100e-05 1.000000e-07
4.000000e-05 3.830629e-05 1.000000e-07
4.000000e-05 3.817294e-05 1.000000e-07
4.000000e-05 3.804210e-05 1.000000e-07
4.000000e-05 3.791299e-05 1.000000e-07
4.000000e-05 3.777174e-05 1.000000e-07
4.000000e-05 3.761282e-05 1.000000e-07
4.000000e-05 3.745028e-05 1.000000e-07
4.000000e-05 3.729031e-05 1.000000e-07
4.000000e-05 4.000000e-05 1.000000e-07
2.500000e-05 1.336084e-06 -1.000000e-07
4.000000e-05 3.713093e-05 1.000000e-07
4.000000e-05 3.697129e-05 1.000000e-07
4.000000e-05 3.680445e-05 1.000000e-07
4.000000e-05 3.661796e-05 1.000000e-07
4.000000e-05 3.641212e-05 1.000000e-07
4.000000e-05 3.620506e-05 1.000000e-07
4.000000e-05 3.600046e-05 1.000000e-07
4.000000e-05 3.579535e-05 1.000000e-07
4.000000e-05 3.558612e-05 1.000000e-07
4.000000e-05 3.537166e-05 1.000000e-07
2.500000e-05 7.703204e-07 -1.000000e-07
4.000000e-05 3.513165e-05 1.000000e-07
4.000000e-05 3.485424e-05 1.000000e-07
4.000000e-05 3.454962e-05 1.000000e-07
4.000000e-05 3.423283e-05 1.000000e-07
4.000000e-05 3.391058e-05 1.000000e-07
4.000000e-05 3.358953e-05 1.000000e-07
4.000000e-05 3.324104e-05 1.000000e-07
4.000000e-05 3.279687e-05 1.000000e-07
4.000000e-05 3.226576e-05 1.000000e-07
4.000000e-05 3.172351e-05 1.000000e-07
2.500000e-05 2.357266e-07 -1.000000e-07
4.000000e-05 3.119198e-05 1.000000e-07
4.000000e-05 3.070662e-05 1.000000e-07
4.000000e-05 3.025910e-05 1.000000e-07
4.000000e-05 2.981624e-05 1.000000e-07
4.000000e-05 2.937298e-05 1.000000e-07
4.000000e-05 2.892408e-05 1.000000e-07
4.000000e-05 2.846362e-05 1.000000e-07
4.000000e-05 2.797738e-05 1.000000e-07
4.000000e-05 2.738024e-05 1.000000e-07
4.000000e-05 2.665698e-05 1.000000e-07
2.500000e-05 -2.933216e-07 -1.000000e-07
4.000000e-05 2.591624e-05 1.000000e-07
4.000000e-05 2.519665e-05 1.000000e-07
4.000000e-05 2.454684e-05 1.000000e-07
4.000000e-05 2.393895e-05 1.000000e-07
4.000000e-05 2.322347e-05 1.000000e-07
4.000000e-05 2.235445e-05 1.000000e-07
4.000000e-05 2.141858e-05 1.000000e-07
4.000000e-05 2.046272e-05 1.000000e-07
4.000000e-05 1.944439e-05 1.000000e-07
4.000000e-05 1.826344e-05 1.000000e-07
2.500000e-05 -8.700176e-07 -1.000000e-07
4.000000e-05 1.689093e-05 1.000000e-07
4.000000e-05 1.533036e-05 1.000000e-07
4.000000e-05 1.358002e-05 1.000000e-07
4.000000e-05 1.166446e-05 1.000000e-07
4.000000e-05 9.890351e-06 1.000000e-07
4.000000e-05 8.299708e-06 1.000000e-07
4.000000e-05 6.873562e-06 1.000000e-07
4.000000e-05 5.458977e-06 1.000000e-07
4.000000e-05 3.897704e-06 1.000000e-07
4.000000e-05 2.174500e-06 1.000000e-07
2.500000e-05 -1.500519e-06 -1.000000e-07
4.000000e-05 2.749481e-07 1.000000e-07
4.000000e-05 -1.741028e-06 1.000000e-07
4.000000e-05 -3.843149e-06 1.000000e-07
4.000000e-05 -6.035097e-06 1.000000e-07
4.000000e-05 -8.184804e-06 1.000000e-07
4.000000e-05 -1.013576e-05 1.000000e-07
4.000000e-05 -1.190351e-05 1.000000e-07
4.000000e-05 -1.344282e-05 1.000000e-07
4.000000e-05 -1.475795e-05 1.000000e-07
4.000000e-05 -1.589882e-05 1.000000e-07
2.500000e-05 -2.180186e-06 -1.000000e-07
4.000000e-05 -1.699626e-05 1.000000e-07
4.000000e-05 -1.807214e-05 1.000000e-07
4.000000e-05 -1.911730e-05 1.000000e-07
4.000000e-05 -2.011822e-05 1.000000e-07
4.000000e-05 -2.108869e-05 1.000000e-07
4.000000e-05 -2.208047e-05 1.000000e-07
4.000000e-05 -2.304549e-05 1.000000e-07
4.000000e-05 -2.383129e-05 1.000000e-07
4.000000e-05 -2.447959e-05 1.000000e-07
4.000000e-05 -2.505184e-05 1.000000e-07
2.500000e-05 -2.850067e-06 -1.000000e-07
4.000000e-05 -2.556483e-05 1.000000e-07
4.000000e-05 -2.615263e-05 1.000000e-07
4.000000e-05 -2.688626e-05 1.000000e-07
4.000000e-05 -2.765361e-05 1.000000e-07
4.000000e-05 -2.835303e-05 1.000000e-07
4.000000e-05 -2.887236e-05 1.000000e-07
4.000000e-05 -2.927231e-05 1.000000e-07
4.000000e-05 -2.967088e-05 1.000000e-07
4.000000e-05 -3.007922e-05 1.000000e-07
4.000000e-05 -3.049452e-05 1.000000e-07
2.500000e-05 -3.499764e-06 -1.000000e-07
4.000000e-05 -3.091490e-05 1.000000e-07
4.000000e-05 -3.134766e-05 1.000000e-07
4.000000e-05 -3.180196e-05 1.000000e-07
4.000000e-05 -3.224931e-05 1.000000e-07
4.000000e-05 -3.266810e-05 1.000000e-07
4.000000e-05 -3.303254e-05 1.000000e-07
4.000000e-05 -3.334538e-05 1.000000e-07
4.000000e-05 -3.363181e-05 1.000000e-07
4.000000e-05 -3.389860e-05 1.000000e-07
4.000000e-05 -3.417797e-05 1.000000e-07
2.500000e-05 -4.136984e-06 -1.000000e-07
4.000000e-05 -3.451097e-05 1.000000e-07
4.000000e-05 -3.487938e-05 1.000000e-07
4.000000e-05 -3.524419e-05 1.000000e-07
4.000000e-05 -3.555065e-05 1.000000e-07
4.000000e-05 -3.578910e-05 1.000000e-07
4.000000e-05 -3.600139e-05 1.000000e-07
4.000000e-05 -3.620921e-05 1.000000e-07
4.000000e-05 -3.641272e-05 1.000000e-07
4.000000e-05 -3.661286e-05 1.000000e-07
4.000000e-05 -3.680993e-05 1.000000e-07
4.000000e-05 -4.000000e-05 1.000000e-07
2.500000e-05 -4.808521e-06 -1.000000e-07
4.000000e-05 -3.699839e-05 1.000000e-07
4.000000e-05 -3.716996e-05 1.000000e-07
4.000000e-05 -3.732822e-05 1.000000e-07
4.000000e-05 -3.748776e-05 1.000000e-07
4.000000e-05 -3.765070e-05 1.000000e-07
4.000000e-05 -3.781088e-05 1.000000e-07
4.000000e-05 -3.796654e-05 1.000000e-07
4.000000e-05 -3.812367e-05 1.000000e-07
4.000000e-05 -3.828648e-05 1.000000e-07
4.000000e-05 -3.847100e-05 1.000000e-07
2.500000e-05 -5.525186e-06 -1.000000e-07
4.000000e-05 -3.864883e-05 1.000000e-07
4.000000e-05 -3.878774e-05 1.000000e-07
4.000000e-05 -3.891038e-05 1.000000e-07
4.000000e-05 -3.902372e-05 1.000000e-07
4.000000e-05 -3.913179e-05 1.000000e-07
4.000000e-05 -3.923808e-05 1.000000e-07
4.000000e-05 -3.934167e-05 1.000000e-07
4.000000e-05 -3.944053e-05 1.000000e-07
4.000000e-05 -3.954119e-05 1.000000e-07
4.000000e-05 -3.965713e-05 1.000000e-07
2.500000e-05 -6.272766e-06 -1.000000e-07
4.000000e-05 -3.980004e-05 1.000000e-07
3.977864e-05 -4.000000e-05 1.000000e-07
3.961969e-05 -4.000000e-05 1.000000e-07
[...]
POINT_DATA 6483
VECTORS 10.000GHz_fone_imag double
-3.589716e-02 3.452811e-02 -7.704796e-02
2.768069e-04 -2.749456e-04 1.726899e-03
1.567980e-02 -1.140394e-06 -2.796472e-02
1.237858e-04 -7.475015e-03 1.346375e-02
-1.208255e-04 -7.252749e-03 1.363729e-02
3.954077e-05 -7.640290e-03 1.398199e-02
3.014575e-05 -7.146194e-03 1.382009e-02
-1.597488e-05 -7.770428e-03 1.427038e-02
-5.537230e-05 -7.523716e-03 1.423112e-02
-1.558246e-04 -7.084443e-03 1.404070e-02
-6.925092e-05 -7.410508e-03 1.426099e-02
2.625349e-05 -7.101072e-03 1.432993e-02
1.113037e-04 -7.260149e-03 1.439361e-02
1.623395e-02 1.905935e-04 -2.803187e-02
-4.403597e-05 -7.124915e-03 1.423530e-02
-2.813709e-05 -7.655577e-03 1.446753e-02
-1.995350e-05 -7.879242e-03 1.438297e-02
4.806526e-05 -7.669107e-03 1.422552e-02
-1.816390e-05 -8.088530e-03 1.436050e-02
-2.512965e-04 -7.372848e-03 1.378168e-02
9.552261e-05 -7.506814e-03 1.372341e-02
-1.575246e-04 -7.189636e-03 1.331204e-02
8.723038e-05 -6.737344e-03 1.282134e-02
8.258818e-05 -7.201030e-03 1.297355e-02
1.573643e-02 -9.986108e-05 -2.799151e-02
-7.400687e-06 -7.407402e-03 1.280494e-02
-1.589745e-04 -7.045336e-03 1.236824e-02
4.665651e-05 -6.854437e-03 1.204788e-02
-2.249404e-05 -6.418312e-03 1.156922e-02
1.250786e-05 -6.567171e-03 1.133937e-02
3.755834e-05 -6.635728e-03 1.111423e-02
-5.635887e-05 -6.518989e-03 1.080839e-02
6.148849e-05 -6.466012e-03 1.067750e-02
6.937514e-06 -6.371462e-03 1.052789e-02
-1.156717e-04 -6.165597e-03 1.030063e-02
1.675842e-02 1.897535e-04 -2.798559e-02
-1.647150e-04 -5.975558e-03 9.967788e-03
4.517139e-05 -5.965658e-03 9.721393e-03
-1.592525e-04 -5.735057e-03 9.606019e-03
2.731536e-05 -5.748911e-03 9.303228e-03
-2.023775e-06 -5.609966e-03 9.106884e-03
-1.107678e-04 -5.407888e-03 8.884902e-03
-9.740436e-05 -5.125717e-03 8.664552e-03
-1.382293e-04 -5.260976e-03 8.369033e-03
1.242042e-05 -5.017495e-03 8.276782e-03
-1.818758e-05 -4.966435e-03 8.107761e-03
1.645272e-02 -1.381772e-04 -2.797225e-02
-1.340384e-04 -4.861930e-03 7.849643e-03
-1.061275e-04 -4.670339e-03 7.650931e-03
-3.935583e-05 -4.573686e-03 7.350179e-03
1.397502e-05 -4.426486e-03 7.184433e-03
-3.939182e-05 -4.346525e-03 6.981818e-03
-9.168653e-05 -4.231350e-03 6.821841e-03
-2.657640e-05 -4.180595e-03 6.625135e-03
-4.950195e-05 -4.092218e-03 6.480119e-03
-7.040194e-05 -3.960324e-03 6.360793e-03
-5.584962e-05 -3.886065e-03 6.211346e-03
1.651938e-02 2.633419e-05 -2.770840e-02
-1.035185e-04 -3.813203e-03 5.998336e-03
-8.569777e-05 -3.683562e-03 5.839312e-03
-7.597569e-05 -3.576208e-03 5.713063e-03
-9.610019e-05 -3.489385e-03 5.527073e-03
-5.118793e-05 -3.396743e-03 5.366641e-03
-7.209386e-05 -3.296303e-03 5.223311e-03
-6.997116e-05 -3.199099e-03 5.103762e-03
-7.435379e-05 -3.141257e-03 5.000490e-03
-8.597884e-05 -3.067529e-03 4.842718e-03
-8.775529e-05 -2.981964e-03 4.732710e-03
1.630639e-02 -1.495377e-04 -2.795016e-02
-9.166433e-05 -2.908355e-03 4.637656e-03
-9.199772e-05 -2.824488e-03 4.476629e-03
-7.481768e-05 -2.745659e-03 4.366153e-03
-9.996231e-05 -2.676026e-03 4.244123e-03
-1.024980e-04 -2.591706e-03 4.130821e-03
-1.102139e-04 -2.515114e-03 4.020076e-03
-1.094511e-04 -2.435601e-03 3.919677e-03
-1.065824e-04 -2.369215e-03 3.812825e-03
-1.238694e-04 -2.274645e-03 3.664360e-03
-1.162877e-04 -2.195782e-03 3.556832e-03
1.620889e-02 -4.697681e-05 -2.783567e-02
-1.224861e-04 -2.116218e-03 3.436106e-03
-1.322297e-04 -2.033137e-03 3.318809e-03
-1.432293e-04 -1.949291e-03 3.197489e-03
-1.577521e-04 -1.849831e-03 3.082171e-03
-1.548659e-04 -1.728020e-03 2.936514e-03
-1.729476e-04 -1.627347e-03 2.786614e-03
-1.890435e-04 -1.513948e-03 2.658256e-03
-2.063499e-04 -1.381302e-03 2.502094e-03
-2.442865e-04 -1.201350e-03 2.300575e-03
-2.887608e-04 -9.021793e-04 2.035944e-03
1.594498e-02 1.821422e-04 -2.786149e-02
-9.479753e-04 -2.784663e-04 2.073305e-03
-1.251685e-03 -2.343034e-04 2.362639e-03
-1.437933e-03 -2.009414e-04 2.565392e-03
-1.572047e-03 -1.846766e-04 2.711140e-03
-1.688743e-03 -1.644605e-04 2.858709e-03
-1.790418e-03 -1.549843e-04 2.997934e-03
-1.877072e-03 -1.475477e-04 3.119379e-03
-1.967953e-03 -1.391348e-04 3.240105e-03
-2.062633e-03 -1.349983e-04 3.369271e-03
-2.160786e-03 -1.300418e-04 3.493859e-03
1.598783e-02 1.292353e-04 -2.799406e-02
-2.247426e-03 -1.142565e-04 3.625333e-03
-2.343199e-03 -1.152967e-04 3.755344e-03
-2.434104e-03 -9.778157e-05 3.887470e-03
-2.505230e-03 -9.914120e-05 4.003566e-03
-2.565365e-03 -1.123706e-04 4.104547e-03
-2.641951e-03 -9.905834e-05 4.209367e-03
-2.713665e-03 -9.396785e-05 4.301423e-03
-2.771308e-03 -9.185397e-05 4.396317e-03
-2.851121e-03 -7.823871e-05 4.519290e-03
-2.935632e-03 -8.764571e-05 4.654655e-03
-2.785883e-04 -2.767968e-04 1.726194e-03
1.665206e-02 -2.405051e-04 -2.786525e-02
-2.998511e-03 -7.684151e-05 4.767172e-03
-3.068631e-03 -9.366995e-05 4.845907e-03
-3.133723e-03 -9.241973e-05 4.952581e-03
-3.205536e-03 -7.548127e-05 5.070097e-03
-3.270441e-03 -8.351083e-05 5.183558e-03
-3.348993e-03 -8.241596e-05 5.312991e-03
-3.432225e-03 -9.269072e-05 5.433686e-03
-3.522337e-03 -8.083196e-05 5.575348e-03
-3.592395e-03 -6.776012e-05 5.674595e-03
-3.657648e-03 -7.101059e-05 5.817460e-03
1.668317e-02 -1.294456e-04 -2.798135e-02
-3.724911e-03 -6.730648e-05 5.919056e-03
-3.804882e-03 -7.363972e-05 6.075237e-03
-3.919228e-03 -8.155856e-05 6.242462e-03
-4.020210e-03 -5.779024e-05 6.435973e-03
-4.133690e-03 -8.373849e-05 6.612194e-03
-4.199057e-03 -5.093304e-05 6.797168e-03
-4.272170e-03 -5.927676e-05 6.935658e-03
-4.444817e-03 -8.587955e-05 7.163927e-03
-4.618057e-03 -4.517766e-05 7.372873e-03
-4.723180e-03 -9.712974e-05 7.709783e-03
1.648936e-02 3.076777e-04 -2.812245e-02
-4.839905e-03 -8.641911e-05 7.925288e-03
-4.979083e-03 -8.538159e-05 8.156781e-03
-5.130808e-03 -9.549248e-05 8.402758e-03
-5.328332e-03 -9.766029e-05 8.641980e-03
-5.532549e-03 -1.198414e-04 8.851022e-03
-5.567150e-03 -4.462130e-05 9.132514e-03
-5.545975e-03 3.471484e-05 9.309677e-03
-5.808630e-03 -6.047641e-05 9.355022e-03
-5.882337e-03 -1.369830e-04 9.699304e-03
-5.859719e-03 -1.287824e-04 9.978112e-03
1.703973e-02 -2.610699e-04 -2.794970e-02
-6.255788e-03 -7.680738e-05 1.041787e-02
-6.026544e-03 -6.187412e-05 1.075130e-02
-6.610904e-03 -6.212367e-05 1.110458e-02
-6.407506e-03 1.099968e-04 1.114592e-02
-6.562281e-03 -1.004675e-04 1.129083e-02
-6.804699e-03 -3.712849e-05 1.159117e-02
-7.057834e-03 1.055979e-05 1.214116e-02
-7.121134e-03 5.527801e-05 1.246769e-02
-6.654511e-03 7.256047e-05 1.239539e-02
-7.076168e-03 -1.782163e-05 1.281444e-02
1.707175e-02 -6.850941e-05 -2.782483e-02
-6.932966e-03 1.515552e-04 1.287857e-02
-7.278049e-03 3.580441e-05 1.340186e-02
-7.296064e-03 1.195041e-04 1.353266e-02
-7.943035e-03 1.016395e-04 1.405648e-02
-7.651730e-03 4.828574e-05 1.424190e-02
-7.772624e-03 1.427453e-04 1.427760e-02
-7.441400e-03 -1.845310e-05 1.423053e-02
-6.949022e-03 -5.045211e-06 1.403035e-02
-7.348296e-03 -1.616058e-04 1.413977e-02
-7.740086e-03 -1.799140e-04 1.461088e-02
1.660715e-02 -2.381926e-04 -2.811885e-02
-8.064406e-03 -4.239257e-05 1.482988e-02
-7.753088e-03 6.056199e-05 1.456491e-02
-7.464571e-03 -1.883695e-05 1.441338e-02
-7.298120e-03 1.752127e-05 1.420881e-02
-7.099087e-03 5.993761e-05 1.407912e-02
-6.916678e-03 2.825316e-05 1.372066e-02
-7.283118e-03 -1.373637e-06 1.366503e-02
-6.978009e-03 2.060532e-05 1.353119e-02
-7.603653e-03 -8.566482e-05 1.349703e-02
-7.424325e-03 -3.317968e-05 1.330808e-02
1.671252e-02 -1.488214e-04 -2.805049e-02
-7.221251e-03 3.190050e-05 1.303663e-02
-7.401424e-03 5.812818e-05 1.300700e-02
-7.372294e-03 -4.695234e-05 1.277437e-02
-7.439655e-03 1.232613e-05 1.248139e-02
-7.025146e-03 1.355255e-05 1.218153e-02
-7.071992e-03 -3.699324e-06 1.189535e-02
-6.776049e-03 6.548187e-05 1.149171e-02
-6.570306e-03 4.116445e-05 1.112288e-02
-6.644157e-03 8.387572e-05 1.104630e-02
-6.519078e-03 2.135408e-05 1.074511e-02
1.677075e-02 -1.871722e-05 -2.814131e-02
-6.320153e-03 1.857734e-04 1.042565e-02
-6.037123e-03 -2.397343e-05 1.031062e-02
-5.870883e-03 -7.077616e-06 9.965737e-03
-5.624420e-03 6.181248e-05 9.454161e-03
-5.377706e-03 -6.208512e-05 9.231397e-03
-5.521481e-03 7.316502e-05 9.180705e-03
-5.436128e-03 -1.717133e-05 8.965964e-03
-5.398519e-03 -1.631020e-05 8.751343e-03
-5.262837e-03 6.297388e-05 8.549276e-03
-5.194750e-03 1.128291e-04 8.358522e-03
1.657043e-02 3.707705e-04 -2.820909e-02
-4.933857e-03 5.181416e-05 8.162750e-03
-4.902205e-03 7.166191e-05 7.861362e-03
-4.813907e-03 6.669591e-05 7.624058e-03
-4.697367e-03 7.247065e-05 7.468579e-03
-4.495349e-03 7.829804e-05 7.269867e-03
-4.447442e-03 7.080802e-05 7.091886e-03
-4.275042e-03 8.473392e-05 6.935715e-03
-4.262325e-03 7.178097e-05 6.748635e-03
-4.171515e-03 9.178395e-05 6.590069e-03
-4.070380e-03 8.326603e-05 6.435032e-03
1.650234e-02 2.388722e-05 -2.773631e-02
-3.961554e-03 8.786692e-05 6.255667e-03
-3.824301e-03 8.732572e-05 6.026689e-03
-3.641505e-03 6.118231e-05 5.846872e-03
-3.558328e-03 6.436227e-05 5.710615e-03
-3.468123e-03 1.045344e-04 5.575147e-03
-3.416539e-03 4.012294e-05 5.429886e-03
-3.314073e-03 6.262574e-05 5.325732e-03
-3.291349e-03 7.528845e-05 5.205716e-03
-3.205853e-03 9.564669e-05 5.066185e-03
-3.124853e-03 8.719988e-05 4.950559e-03
-2.756776e-04 2.763764e-04 1.727312e-03
1.646587e-02 -3.775043e-04 -2.804832e-02
-3.039997e-03 9.559336e-05 4.817374e-03
-2.969754e-03 9.197601e-05 4.710723e-03
-2.904728e-03 8.894486e-05 4.622122e-03
-2.823758e-03 8.442921e-05 4.519770e-03
-2.751137e-03 8.706782e-05 4.380241e-03
-2.695980e-03 1.034889e-04 4.286194e-03
-2.627716e-03 9.238347e-05 4.184908e-03
-2.527237e-03 9.201111e-05 4.030084e-03
-2.428516e-03 1.053236e-04 3.875036e-03
-2.323480e-03 1.131075e-04 3.737717e-03
1.676509e-02 -2.882977e-04 -2.815270e-02
-2.240909e-03 1.145858e-04 3.586098e-03
-2.129232e-03 1.330214e-04 3.436561e-03
-2.036203e-03 1.368052e-04 3.315664e-03
-1.944156e-03 1.356845e-04 3.190988e-03
-1.853507e-03 1.523987e-04 3.067629e-03
-1.760252e-03 1.682866e-04 2.944878e-03
-1.651180e-03 1.778255e-04 2.815803e-03
-1.533609e-03 1.928391e-04 2.677155e-03
-1.391061e-03 2.083417e-04 2.513133e-03
-1.204480e-03 2.373068e-04 2.304948e-03
1.696752e-02 9.568257e-06 -2.818582e-02
-8.990254e-04 2.735809e-04 2.059110e-03
-2.830322e-04 9.662221e-04 2.068397e-03
-2.245442e-04 1.272204e-03 2.379500e-03
-1.943955e-04 1.446232e-03 2.574901e-03
-1.807328e-04 1.598078e-03 2.758430e-03
-1.748022e-04 1.700794e-03 2.868402e-03
-1.549614e-04 1.802991e-03 2.987579e-03
-1.478449e-04 1.913935e-03 3.147327e-03
-1.412753e-04 1.995899e-03 3.266077e-03
-1.206652e-04 2.072942e-03 3.366138e-03
1.681710e-02 2.787662e-04 -2.851101e-02
-1.286749e-04 2.170463e-03 3.500156e-03
-1.055939e-04 2.251620e-03 3.621149e-03
-1.074551e-04 2.325879e-03 3.746652e-03
-1.160803e-04 2.411752e-03 3.862227e-03
-9.419966e-05 2.497417e-03 4.001266e-03
-1.043091e-04 2.589911e-03 4.142573e-03
-1.061957e-04 2.705793e-03 4.308800e-03
-9.877899e-05 2.812005e-03 4.444059e-03
-7.657560e-05 2.870224e-03 4.535614e-03
-7.277555e-05 2.955632e-03 4.669568e-03
1.683601e-02 1.125055e-04 -2.818895e-02
-7.078590e-05 3.051516e-03 4.818114e-03
-8.694156e-05 3.125312e-03 4.954028e-03
-7.990725e-05 3.194383e-03 5.050831e-03
-7.488374e-05 3.268791e-03 5.176709e-03
-7.879415e-05 3.292808e-03 5.366671e-03
-8.993482e-05 3.418006e-03 5.522031e-03
-7.558836e-05 3.540468e-03 5.665774e-03
-6.414991e-05 3.656749e-03 5.817551e-03
-6.548134e-05 3.770377e-03 6.017814e-03
-5.493781e-05 3.902696e-03 6.031235e-03
1.645509e-02 1.431980e-04 -2.839384e-02
-5.360141e-05 3.964161e-03 6.289295e-03
-5.133391e-05 4.116395e-03 6.447301e-03
-7.305804e-05 4.148376e-03 6.606170e-03
-9.865577e-05 4.236058e-03 6.741027e-03
-5.949677e-05 4.362169e-03 6.894095e-03
-8.820487e-05 4.475895e-03 7.127494e-03
-7.736142e-05 4.537385e-03 7.265456e-03
-5.014189e-05 4.697287e-03 7.510142e-03
4.932935e-06 4.809649e-03 7.756764e-03
-1.104886e-04 4.949704e-03 7.927363e-03
1.646642e-02 8.554269e-05 -2.861406e-02
-4.835668e-05 4.993061e-03 8.190400e-03
4.074786e-05 5.073648e-03 8.316610e-03
-1.563352e-04 5.073171e-03 8.541735e-03
1.745940e-05 5.275574e-03 8.639780e-03
-1.721340e-04 5.420640e-03 8.814705e-03
5.893708e-05 5.528447e-03 9.069959e-03
-1.678863e-06 5.541395e-03 9.158648e-03
-1.587177e-04 5.699381e-03 9.447486e-03
-1.320610e-04 5.862550e-03 9.839909e-03
-1.000238e-05 6.073013e-03 1.002099e-02
1.728865e-02 -4.906988e-04 -2.876211e-02
-5.390489e-05 6.193532e-03 1.027208e-02
4.055907e-05 6.074038e-03 1.037877e-02
-1.910579e-04 6.283197e-03 1.073124e-02
-1.496561e-04 6.736295e-03 1.110474e-02
7.625074e-05 6.707605e-03 1.134132e-02
-7.097796e-06 6.537501e-03 1.157430e-02
-6.246619e-05 6.856760e-03 1.213237e-02
-1.010627e-04 7.209510e-03 1.250485e-02
5.420059e-05 7.496469e-03 1.280597e-02
-1.521936e-05 7.696752e-03 1.283965e-02
1.768267e-02 -2.077276e-04 -2.908633e-02
-1.249262e-04 7.593233e-03 1.301663e-02
-1.022259e-04 7.173200e-03 1.310485e-02
-8.867030e-05 7.668956e-03 1.349391e-02
7.955263e-06 6.932709e-03 1.342244e-02
-2.921006e-05 7.488920e-03 1.403503e-02
-1.654420e-04 7.419002e-03 1.417746e-02
-2.096208e-04 8.231505e-03 1.430043e-02
-8.880108e-07 7.709193e-03 1.447166e-02
-2.310461e-04 7.492883e-03 1.431400e-02
-4.428680e-05 7.969844e-03 1.475848e-02
1.750683e-02 1.467947e-04 -2.917345e-02
-3.032659e-04 7.943218e-03 1.448087e-02
-4.275437e-05 8.394390e-03 1.503583e-02
1.698832e-04 7.882074e-03 1.469189e-02
-2.248728e-04 7.388438e-03 1.431101e-02
5.601168e-05 7.904247e-03 1.456848e-02
-1.162396e-04 8.251503e-03 1.461540e-02
2.154072e-04 7.486821e-03 1.416749e-02
6.718535e-05 7.178673e-03 1.372044e-02
6.882211e-05 7.238453e-03 1.355800e-02
2.246202e-05 7.136489e-03 1.339910e-02
3.451670e-02 3.625274e-02 -7.625341e-02
1.699200e-02 4.132618e-04 -2.908523e-02
1.320826e-05 7.157425e-03 1.324912e-02
-2.014997e-04 7.433124e-03 1.315154e-02
1.341348e-06 7.527978e-03 1.309156e-02
5.303822e-05 6.989568e-03 1.270753e-02
6.252954e-05 7.284966e-03 1.252329e-02
2.356418e-05 6.996397e-03 1.196616e-02
3.321281e-05 6.589610e-03 1.155171e-02
6.400885e-05 6.820329e-03 1.130746e-02
-2.540316e-06 6.547114e-03 1.106270e-02
1.208128e-04 6.333747e-03 1.073434e-02
1.698004e-02 -3.256510e-04 -2.916736e-02
-8.399330e-05 6.240991e-03 1.050541e-02
1.356462e-04 6.191385e-03 1.018819e-02
1.433812e-04 5.887035e-03 9.883980e-03
-3.052265e-05 5.563477e-03 9.789874e-03
-2.372104e-05 5.472133e-03 9.494096e-03
-1.792087e-05 5.508052e-03 9.201051e-03
1.006732e-04 5.444270e-03 8.983083e-03
1.385435e-04 5.243981e-03 8.709287e-03
-6.560691e-05 5.113998e-03 8.526026e-03
5.650263e-05 5.074561e-03 8.441951e-03
1.713750e-02 -2.880654e-04 -2.949776e-02
5.278624e-05 5.171462e-03 8.270541e-03
8.608543e-05 4.857103e-03 8.109882e-03
1.207614e-04 4.721242e-03 7.848702e-03
-3.321620e-05 4.759704e-03 7.631657e-03
7.105750e-05 4.687875e-03 7.424153e-03
3.788742e-05 4.554984e-03 7.275390e-03
7.376795e-05 4.433317e-03 7.033842e-03
3.995487e-05 4.311820e-03 6.875460e-03
3.756691e-05 4.224431e-03 6.682098e-03
8.195351e-05 4.113868e-03 6.576224e-03
1.745947e-02 1.954136e-04 -2.948606e-02
6.463622e-05 3.970501e-03 6.446046e-03
7.760712e-05 3.975060e-03 6.315688e-03
1.039203e-04 3.838228e-03 6.115002e-03
9.202084e-05 3.707397e-03 5.879144e-03
7.857126e-05 3.557246e-03 5.724136e-03
7.942013e-05 3.513924e-03 5.550060e-03
1.018122e-04 3.423208e-03 5.421443e-03
4.806691e-05 3.321591e-03 5.238523e-03
8.420007e-05 3.225592e-03 5.063110e-03
5.238332e-05 3.149477e-03 5.011797e-03
1.785131e-02 -3.699854e-04 -2.937122e-02
7.402514e-05 3.089586e-03 4.887078e-03
1.016691e-04 3.002658e-03 4.743517e-03
9.018846e-05 2.912888e-03 4.617352e-03
8.996548e-05 2.792392e-03 4.483241e-03
5.981077e-05 2.740716e-03 4.364964e-03
9.751063e-05 2.693371e-03 4.279016e-03
1.043488e-04 2.618142e-03 4.160068e-03
9.020538e-05 2.544308e-03 4.055510e-03
1.018906e-04 2.459965e-03 3.922035e-03
1.140176e-04 2.358090e-03 3.761564e-03
1.743235e-02 4.024809e-05 -2.986801e-02
1.187932e-04 2.255134e-03 3.631504e-03
1.297945e-04 2.149113e-03 3.469641e-03
1.294333e-04 2.047235e-03 3.331344e-03
1.456035e-04 1.960019e-03 3.219453e-03
1.499768e-04 1.866920e-03 3.095335e-03
1.648673e-04 1.765260e-03 2.937947e-03
1.701920e-04 1.664048e-03 2.815211e-03
1.977256e-04 1.555618e-03 2.698437e-03
2.090745e-04 1.416343e-03 2.540896e-03
2.362761e-04 1.229907e-03 2.315715e-03
1.732291e-02 2.477127e-04 -3.017540e-02
2.756391e-04 9.152156e-04 2.072708e-03
2.403478e-03 3.029180e-02 -5.532534e-02
9.664041e-04 2.809731e-02 -4.750899e-02
3.940868e-04 2.486845e-02 -4.299773e-02
3.843147e-04 2.395504e-02 -4.002178e-02
5.680990e-04 2.236875e-02 -3.770244e-02
2.454811e-04 2.039310e-02 -3.621046e-02
4.902880e-04 2.057994e-02 -3.516492e-02
4.183802e-04 1.962366e-02 -3.414523e-02
1.697637e-04 1.957568e-02 -3.300029e-02
1.808700e-02 -3.333954e-04 -3.041041e-02
1.491493e-05 1.918592e-02 -3.232056e-02
2.540543e-04 1.883858e-02 -3.199172e-02
-1.981054e-05 1.855440e-02 -3.122546e-02
-2.654399e-04 1.825009e-02 -3.129769e-02
-2.353709e-04 1.848711e-02 -3.104756e-02
3.716793e-04 1.782901e-02 -3.083540e-02
4.236909e-04 1.696454e-02 -2.996327e-02
4.121101e-05 1.726582e-02 -2.927778e-02
-3.030736e-04 1.677547e-02 -2.946033e-02
2.743381e-04 1.665730e-02 -2.895593e-02
1.795831e-02 2.257143e-04 -3.088207e-02
1.899896e-04 1.617479e-02 -2.855451e-02
-3.480956e-04 1.604233e-02 -2.856533e-02
-1.069629e-04 1.602909e-02 -2.869931e-02
2.199240e-04 1.632541e-02 -2.819314e-02
1.309542e-04 1.595396e-02 -2.820113e-02
6.326995e-05 1.640456e-02 -2.808356e-02
-3.738215e-04 1.609294e-02 -2.820030e-02
8.735078e-05 1.644147e-02 -2.833582e-02
3.536106e-05 1.606558e-02 -2.821453e-02
2.740988e-04 1.699474e-02 -2.782096e-02
1.859857e-02 -2.075059e-05 -3.075390e-02
9.211681e-06 1.654986e-02 -2.768856e-02
-1.926140e-04 1.600876e-02 -2.788690e-02
-1.168599e-04 1.616591e-02 -2.776213e-02
1.162966e-04 1.566314e-02 -2.744334e-02
-1.446412e-04 1.583872e-02 -2.756808e-02
1.002247e-04 1.520842e-02 -2.728104e-02
-4.088696e-04 1.587150e-02 -2.755266e-02
1.387498e-04 1.597779e-02 -2.775803e-02
-1.360243e-04 1.523582e-02 -2.763063e-02
-9.484322e-05 1.614771e-02 -2.776080e-02
-3.412369e-02 3.479552e-02 -7.677201e-02
1.821336e-02 -3.811363e-04 -3.163015e-02
-2.741169e-04 1.549753e-02 -2.770981e-02
-1.779577e-04 1.654142e-02 -2.791243e-02
1.126417e-04 1.585395e-02 -2.797907e-02
-5.927227e-05 1.665689e-02 -2.803638e-02
-3.532099e-04 1.681535e-02 -2.849058e-02
-1.110527e-04 1.700688e-02 -2.872273e-02
-1.201165e-04 1.629031e-02 -2.857688e-02
1.329917e-04 1.694627e-02 -2.868163e-02
2.207560e-05 1.652092e-02 -2.895910e-02
1.069649e-04 1.779389e-02 -2.918017e-02
1.873575e-02 -2.462551e-04 -3.230831e-02
1.994086e-04 1.731782e-02 -2.928215e-02
7.247731e-05 1.787113e-02 -2.962310e-02
1.626399e-04 1.693324e-02 -2.972625e-02
-2.070415e-04 1.763242e-02 -2.982615e-02
7.912990e-05 1.735686e-02 -2.989609e-02
-2.072689e-04 1.722903e-02 -3.045807e-02
2.110960e-04 1.819577e-02 -3.083749e-02
-4.197980e-04 1.754956e-02 -3.136573e-02
-1.903178e-04 1.893255e-02 -3.224406e-02
7.228181e-05 1.870032e-02 -3.297386e-02
1.943071e-02 3.026660e-04 -3.221661e-02
-1.243291e-04 1.883450e-02 -3.374765e-02
-4.670045e-04 1.949277e-02 -3.462722e-02
-7.389039e-05 2.154088e-02 -3.610392e-02
2.118056e-04 2.193077e-02 -3.702081e-02
-2.498663e-04 2.272427e-02 -3.781481e-02
-7.717014e-04 2.345876e-02 -4.007010e-02
-9.490443e-04 2.532427e-02 -4.239338e-02
-9.878015e-04 2.705305e-02 -4.587843e-02
-2.611575e-03 2.943662e-02 -5.233670e-02
-3.003622e-02 2.865256e-03 -5.282969e-02
1.941700e-02 -3.340735e-04 -3.281267e-02
-2.753460e-02 1.376142e-03 -4.634635e-02
-2.562894e-02 2.017650e-04 -4.376792e-02
-2.453590e-02 9.344538e-04 -4.154062e-02
-2.304983e-02 7.107126e-04 -3.929186e-02
-2.229707e-02 1.251388e-04 -3.716018e-02
-2.156750e-02 3.758507e-04 -3.626710e-02
-2.122974e-02 4.696637e-05 -3.469325e-02
-2.035877e-02 3.278418e-04 -3.403856e-02
-1.964441e-02 -8.200192e-05 -3.332922e-02
-1.876432e-02 1.005026e-05 -3.255616e-02
1.988853e-02 -2.005101e-04 -3.337984e-02
-1.922303e-02 3.142083e-04 -3.183115e-02
-1.825864e-02 1.587090e-04 -3.104536e-02
-1.799973e-02 -7.082533e-05 -3.064674e-02
-1.757137e-02 1.348079e-05 -2.994889e-02