# vtk DataFile Version 2.0
Electric current density generated by TTH
ASCII
DATASET UNSTRUCTURED_GRID
POINTS 2005 double
-2.401869e-05 -1.990245e-06 -3.915177e-22
-1.298494e-05 -1.715671e-05 -1.258182e-06
-1.158900e-06 2.089465e-05 2.687015e-07
1.972834e-05 1.029185e-05 -1.578663e-06
-9.059578e-06 -1.893891e-05 -5.294462e-07
1.174955e-05 1.730826e-05 -2.223054e-07
1.558507e-05 -1.397487e-05 3.031019e-07
-2.206226e-05 9.042449e-06 -8.701225e-07
5.633358e-06 2.185484e-05 -1.597101e-06
2.052307e-05 5.462824e-06 9.774268e-07
-1.098945e-05 2.003048e-05 1.560918e-06
-2.391592e-05 -2.981117e-06 -3.915177e-22
1.310244e-05 -1.821085e-05 -1.597047e-06
1.682097e-05 -1.252879e-05 4.683114e-07
-2.200674e-05 -9.207804e-06 8.513846e-07
-2.164094e-05 -7.646060e-06 1.534006e-06
2.197780e-05 5.194496e-06 1.596449e-06
-1.823056e-05 1.357695e-05 -1.582114e-06
-1.888909e-05 1.182313e-05 1.583510e-06
-1.640832e-05 1.575913e-05 1.579147e-06
-1.442432e-05 1.898608e-05 -8.693817e-07
-2.013493e-05 -1.277776e-05 -8.643671e-07
-2.377230e-05 -3.966895e-06 -3.915177e-22
-2.030865e-05 -6.315036e-06 1.015260e-06
2.126288e-05 1.030750e-06 1.039120e-06
1.049206e-05 1.989137e-05 1.598434e-06
-2.116112e-05 -1.594582e-07 -8.703170e-07
-1.960568e-05 1.354669e-05 -8.896554e-07
-6.331542e-06 -2.302370e-05 -8.136576e-07
1.220312e-05 -1.901267e-05 1.595986e-06
-2.383020e-05 1.379533e-06 -8.275856e-07
4.723084e-06 2.222493e-05 1.583456e-06
-5.088895e-06 -2.216677e-05 1.580237e-06
-2.358806e-05 -4.945896e-06 -3.915177e-22
-2.078561e-05 -2.380811e-06 2.358687e-07
7.369770e-06 2.059336e-05 -1.469039e-06
2.115069e-05 2.036445e-06 9.912796e-07
-2.296239e-05 -6.420999e-06 8.704054e-07
2.463884e-06 -2.375714e-05 -8.031943e-07
4.959053e-06 -2.178279e-05 -1.590225e-06
1.607511e-05 -1.617490e-05 -1.569744e-06
1.986604e-05 -1.313813e-05 -9.089379e-07
-1.338865e-05 1.630912e-05 7.683452e-07
2.280726e-05 8.367969e-07 -1.566116e-06
-2.336352e-05 -5.916447e-06 -3.915177e-22
-1.567674e-05 -1.411255e-05 -7.543811e-07
1.819673e-05 1.071901e-05 8.009128e-07
-2.104234e-05 4.666320e-06 -1.286314e-06
2.330317e-06 -2.077494e-05 -6.219318e-08
1.234971e-05 1.784641e-05 -1.384042e-06
-1.822323e-05 1.046587e-05 -5.846364e-07
-2.114605e-05 -3.752215e-06 1.225647e-06
-2.241444e-05 -3.304116e-06 1.591043e-06
2.248169e-05 3.984189e-06 -1.564166e-06
-1.773675e-05 -1.129449e-05 -6.161729e-07
-2.309907e-05 -6.876890e-06 -3.915177e-22
-4.280569e-06 -2.070424e-05 -8.393325e-07
1.742045e-05 -1.486833e-05 -1.547556e-06
-1.720936e-05 1.251563e-05 1.028889e-06
-2.141263e-05 4.132708e-07 1.173035e-06
1.182797e-05 -2.074551e-05 -8.101841e-07
9.366345e-06 -1.876665e-05 4.683403e-07
-6.041138e-06 2.002108e-05 1.658697e-07
5.326952e-06 2.054436e-05 9.591213e-07
2.275284e-05 -7.289002e-06 -7.904948e-07
-3.624023e-06 -2.356018e-05 -8.795421e-07
-2.279515e-05 -7.825584e-06 -3.915177e-22
-1.038788e-05 -1.916590e-05 -1.435846e-06
1.189051e-05 -1.747299e-05 -8.277608e-07
-1.014318e-05 1.878415e-05 1.105350e-06
-2.006444e-05 7.279378e-06 -1.101496e-06
1.696986e-05 1.314068e-05 1.214195e-06
2.271607e-05 -7.958364e-07 -1.582222e-06
-7.306183e-06 -2.020929e-05 1.236463e-06
1.179702e-05 2.076208e-05 8.117300e-07
3.661219e-06 2.233250e-05 -1.593351e-06
8.895884e-07 -2.290776e-05 1.541642e-06
-2.245228e-05 -8.760907e-06 -3.915177e-22
-1.991222e-05 -1.124211e-05 -1.556476e-06
-1.885195e-05 -9.882639e-06 -1.036095e-06
-8.295908e-06 2.239745e-05 -8.033563e-07
1.676943e-05 -1.314457e-05 -1.061239e-06
1.795738e-05 -1.128961e-05 9.424210e-07
-1.070157e-06 -2.103997e-05 -7.035329e-07
-2.166585e-05 7.347517e-06 1.553807e-06
-1.813697e-05 1.155842e-05 -1.250572e-06
-2.327219e-05 5.384068e-06 7.991904e-07
-2.187173e-05 -5.062645e-06 1.597630e-06
-2.207106e-05 -9.681263e-06 -3.915177e-22
2.182667e-05 7.765361e-07 -1.454954e-06
1.228488e-05 -1.692303e-05 1.584401e-07
2.167071e-05 3.760481e-06 1.515641e-06
-6.812559e-06 2.280748e-05 -9.292006e-07
-2.024960e-05 1.061109e-05 -1.557693e-06
2.187805e-05 6.593681e-06 1.560250e-06
-2.054129e-05 4.942377e-06 8.151910e-07
-2.160181e-05 -5.875510e-06 1.594284e-06
2.113389e-05 6.181536e-06 -1.523731e-06
-2.077051e-05 1.180182e-05 -7.950367e-07
-2.165213e-05 -1.058508e-05 -3.915177e-22
2.115505e-05 8.486486e-06 1.571731e-06
-1.554566e-05 -1.684797e-05 1.541853e-06
1.138791e-06 -2.151490e-05 1.279994e-06
2.103247e-05 -8.032343e-06 1.598451e-06
2.124207e-05 1.093421e-05 -7.919132e-07
-6.405813e-06 -2.190039e-05 -1.567047e-06
1.345861e-05 1.795482e-05 1.597231e-06
2.751204e-06 -2.264840e-05 1.567673e-06
-1.855751e-05 1.506996e-05 -7.655641e-07
2.540534e-06 -2.125144e-05 1.160054e-06
-2.119620e-05 -1.147081e-05 -3.915177e-22
1.695413e-05 -1.402986e-05 1.519542e-06
2.206416e-05 -4.509535e-06 -1.598394e-06
2.246815e-05 -8.048126e-06 -8.341757e-07
2.803555e-06 2.106320e-05 9.918544e-07
-4.755475e-06 -2.231968e-05 -1.566512e-06
4.705788e-06 -2.161502e-05 1.552380e-06
-2.464743e-06 2.376542e-05 -7.886984e-07
-1.582502e-05 1.792007e-05 -7.626741e-07
-2.136354e-05 8.589768e-06 -1.510432e-06
-1.886929e-05 -1.456938e-05 8.763086e-07
-2.070406e-05 -1.233694e-05 -3.915177e-22
1.543427e-05 -1.815497e-05 8.920163e-07
-2.109717e-05 8.762390e-06 1.561487e-06
-1.939744e-05 7.803628e-06 -1.169466e-07
-2.863219e-06 -2.366813e-05 -8.743300e-07
2.088846e-05 -3.345327e-06 8.593201e-07
-1.869181e-05 9.902121e-06 8.562304e-07
-1.914262e-05 -1.430756e-05 -7.784201e-07
1.567197e-05 1.449144e-05 -1.102516e-06
-1.940921e-06 2.151331e-05 1.319808e-06
-8.239603e-06 2.243804e-05 7.704654e-07
-2.017655e-05 -1.318200e-05 -3.915177e-22
1.203223e-05 1.921361e-05 -1.589674e-06
-5.671971e-06 -2.013834e-05 -2.380866e-07
-2.303986e-05 6.343957e-06 -7.808675e-07
-2.184209e-05 5.556963e-06 1.598101e-06
-1.426509e-05 -1.759231e-05 -1.591756e-06
-1.009896e-05 1.927445e-05 -1.415524e-06
-1.969368e-05 -1.158682e-05 1.560398e-06
-2.242362e-05 4.195891e-06 1.568086e-06
2.348740e-05 -4.343256e-06 8.013984e-07
-1.977483e-05 -9.941174e-06 1.555204e-06
-1.961457e-05 -1.400454e-05 -3.915177e-22
-2.117627e-05 2.233636e-06 1.045974e-06
2.232680e-05 -4.876023e-06 1.559586e-06
2.692506e-06 2.370034e-05 -8.555180e-07
-2.105213e-05 6.595454e-06 -1.536339e-06
-2.302595e-05 -6.297380e-06 -8.251521e-07
2.181567e-05 -9.750203e-07 -1.453571e-06
4.296196e-06 2.136181e-05 1.430681e-06
1.365214e-05 1.948328e-05 -9.469613e-07
2.041526e-05 1.005923e-05 1.577785e-06
1.920299e-05 1.423584e-05 -7.682781e-07
-1.901908e-05 -1.480314e-05 -3.915177e-22
-7.821938e-06 -2.248421e-05 -9.253563e-07
3.382981e-06 -2.255915e-05 -1.568365e-06
1.974919e-05 7.623399e-06 8.821471e-07
1.741680e-05 -1.627466e-05 -8.797378e-07
8.398924e-06 2.235728e-05 -8.061491e-07
1.818661e-05 -1.363763e-05 -1.581953e-06
-1.835709e-06 -2.165109e-05 -1.398749e-06
-2.890682e-07 2.310971e-05 -1.477935e-06
1.900695e-05 -1.053750e-05 1.400825e-06
-2.385848e-05 -1.481246e-06 -7.680189e-07
-1.839109e-05 -1.557646e-05 -3.915177e-22
-6.872887e-06 -2.168127e-05 1.580064e-06
-1.479009e-05 -1.688669e-05 -1.597558e-06
4.801127e-06 -2.335123e-05 -8.758634e-07
1.977485e-05 -8.488753e-06 1.260767e-06
-3.792620e-06 -2.254904e-05 -1.556671e-06
-6.784299e-06 2.137496e-05 -1.596650e-06
-5.999033e-06 -2.308624e-05 8.552853e-07
1.448902e-05 1.549549e-05 -9.462613e-07
6.012433e-06 -2.037057e-05 -9.795723e-07
-2.076722e-05 5.836897e-06 1.299666e-06
-1.773169e-05 -1.632317e-05 -3.915177e-22
-2.386144e-05 1.481430e-06 7.625708e-07
-1.720476e-06 2.251537e-05 -1.596564e-06
2.570200e-06 2.231576e-05 -1.598011e-06
-5.404189e-06 2.207718e-05 -1.582366e-06
-9.418330e-06 -1.936279e-05 -1.270075e-06
2.993627e-06 2.261341e-05 1.568502e-06
-2.019857e-05 5.566388e-06 -3.868533e-07
-1.351163e-05 -1.623915e-05 -8.112873e-07
-1.658901e-05 1.719766e-05 -7.855546e-07
1.471738e-05 -1.713960e-05 -1.596024e-06
-1.704198e-05 -1.704198e-05 -3.915177e-22
-2.023030e-05 -8.596120e-06 1.510978e-06
-2.364650e-05 2.897418e-06 -9.003214e-07
8.511136e-06 2.029654e-05 -1.520351e-06
-1.181417e-05 2.079226e-05 7.497327e-07
-1.499862e-05 1.859716e-05 7.908024e-07
-2.290000e-06 -2.252417e-05 -1.592544e-06
1.998603e-05 1.124437e-05 -1.539711e-06
-8.686939e-06 1.911110e-05 5.252606e-07
-1.186348e-05 -1.973500e-05 -1.510224e-06
2.034478e-05 5.428170e-06 -6.812878e-07
-1.632317e-05 -1.773169e-05 -3.915177e-22
-1.713954e-05 1.582898e-05 -1.367229e-06
-1.789200e-05 1.582208e-05 -8.035719e-07
5.956007e-06 -2.206043e-05 -1.560198e-06
1.178469e-05 -1.759406e-05 8.921697e-07
-2.342850e-05 -4.676888e-06 -7.924462e-07
-1.850713e-05 -1.511951e-05 -7.796467e-07
2.088315e-05 9.402321e-07 3.024696e-08
-2.233861e-05 8.370411e-06 8.514931e-07
7.749053e-06 -2.048042e-05 1.479524e-06
-8.928156e-06 -2.123501e-05 -1.506991e-06
-1.557646e-05 -1.839109e-05 -3.915177e-22
-9.756330e-06 -2.061794e-05 1.568685e-06
-2.157076e-05 -2.566349e-06 -1.395481e-06
-2.261721e-05 -1.855492e-06 -1.587079e-06
1.240746e-06 2.128178e-05 -1.073272e-06
7.317961e-06 1.959902e-05 -2.300348e-07
-1.107080e-05 2.119642e-05 -7.513767e-07
-3.820226e-06 2.112943e-05 -1.221981e-06
-2.170940e-05 1.006263e-05 7.230752e-07
1.787685e-05 -1.581519e-05 8.303236e-07
-2.541625e-06 2.224046e-05 -1.594183e-06
-1.480314e-05 -1.901908e-05 -3.915177e-22
3.295701e-06 -2.367526e-05 -7.695949e-07
2.244371e-05 -8.263101e-06 7.455406e-07
1.893207e-05 9.166744e-06 6.326647e-07
-2.170220e-05 1.005929e-05 -7.385201e-07
-4.633513e-06 -2.131881e-05 -1.443818e-06
2.314556e-05 -5.761015e-06 -8.571636e-07
1.836657e-05 -1.105541e-05 -1.191751e-06
1.062544e-06 2.382756e-05 -8.579718e-07
7.299805e-06 2.152163e-05 -1.582803e-06
-7.244128e-06 -2.174423e-05 -1.543231e-06
-1.400454e-05 -1.961457e-05 -3.915177e-22
6.802445e-06 2.286065e-05 -8.579467e-07
1.464874e-05 -1.764438e-05 1.539511e-06
-1.282781e-05 -1.870700e-05 -1.588305e-06
2.033766e-05 -1.005982e-05 -1.587500e-06
7.020227e-06 -2.282058e-05 -8.177718e-07
4.866911e-06 -2.041276e-05 -5.021336e-07
-7.127425e-06 -2.029860e-05 -1.255851e-06
-1.818189e-05 -1.121196e-05 1.118913e-06
-1.006561e-05 -2.171583e-05 -7.089442e-07
1.490406e-05 1.869153e-05 -7.648258e-07
[...]
POINT_DATA 2005
VECTORS 10.000GHz_fone_imag double
-2.342977e+09 1.900322e+10 1.374835e+09
-2.407097e+10 2.000430e+10 1.261196e+09
4.343171e+10 1.661411e+09 -1.293717e+09
1.244712e+10 -2.404135e+10 -5.128970e+07
-2.603513e+10 1.606731e+10 -4.291533e+09
3.243243e+10 -2.583941e+10 -2.520522e+09
-3.022627e+10 -3.376268e+10 -1.276236e+09
7.952860e+09 1.830309e+10 1.921637e+08
2.762650e+10 -7.927297e+09 2.080035e+09
5.728596e+09 -2.969335e+10 2.836899e+09
2.228264e+10 1.597115e+10 -6.598869e+08
-2.212811e+09 1.839954e+10 3.906776e+08
-2.162834e+10 -1.511936e+10 -2.718748e+08
-1.965189e+10 -2.647684e+10 3.501637e+08
-6.672222e+09 1.861002e+10 -3.466672e+08
-8.098723e+09 2.151767e+10 1.281430e+09
8.257238e+09 -3.525059e+10 -8.513749e+08
1.468085e+10 2.096540e+10 2.049346e+09
1.603951e+10 2.335353e+10 -5.372748e+08
2.035001e+10 1.915449e+10 3.610910e+09
2.054782e+10 1.412746e+10 -1.081250e+09
-1.036340e+10 1.638921e+10 -8.434324e+08
-3.112557e+09 1.809398e+10 -6.799288e+07
-5.821933e+09 2.793953e+10 1.014421e+09
-2.007601e+08 -3.371133e+10 1.745331e+09
2.479141e+10 -1.296783e+10 3.178992e+09
-3.318965e+08 3.409414e+10 -3.039971e+08
9.886135e+09 1.449713e+10 -3.679105e+08
-2.319845e+10 7.226661e+09 -2.339084e+09
-2.142317e+10 -1.292239e+10 6.684270e+08
1.737758e+09 2.157013e+10 -1.342328e+09
2.376757e+10 -4.231513e+09 -1.910273e+09
-3.843179e+10 8.735469e+09 -1.728092e+08
-4.037816e+09 1.850143e+10 6.482004e+08
-2.911488e+09 3.138359e+10 8.840897e+08
2.608017e+10 -6.745706e+09 7.978252e+08
1.621841e+09 -2.919013e+10 3.171817e+08
-4.743832e+09 1.908498e+10 4.669123e+07
-1.938026e+10 -1.102294e+09 -1.214985e+09
-2.587330e+10 -9.468750e+09 -2.700598e+09
-1.981958e+10 -1.860351e+10 -2.295472e+09
-1.085936e+10 -1.719919e+10 7.276678e+07
2.676874e+10 2.131005e+10 8.272430e+08
2.463563e+09 -3.338678e+10 6.918026e+08
-4.657348e+09 1.836376e+10 4.405624e+08
-1.951645e+10 2.113239e+10 1.404003e+08
1.348623e+10 -2.832547e+10 9.480267e+08
6.189658e+09 3.105165e+10 -4.515743e+08
-3.063851e+10 -6.029064e+09 -3.855938e+08
2.954007e+10 -1.952605e+10 1.323592e+09
1.522347e+10 2.633740e+10 4.717290e+08
-4.890472e+09 2.875759e+10 1.162471e+08
-3.288677e+09 2.418673e+10 -1.104005e+09
4.508776e+09 -2.296102e+10 -1.207615e+09
-1.551495e+10 2.707965e+10 -9.578407e+08
-5.470434e+09 1.768617e+10 -2.411329e+08
-4.657214e+10 9.024199e+09 -1.105805e+09
-2.161871e+10 -2.186203e+10 -1.056743e+08
1.532521e+10 2.321088e+10 -9.833405e+07
5.515851e+08 2.551785e+10 5.152196e+07
-1.734600e+10 -7.844039e+09 3.813326e+08
-4.377717e+10 -2.252419e+10 1.780495e+09
3.790185e+10 1.093376e+10 6.126573e+08
3.127273e+10 -1.227192e+10 1.446431e+09
-5.571482e+09 -1.888958e+10 7.623605e+08
-2.773859e+10 4.080285e+09 -6.585363e+08
-5.872302e+09 1.732044e+10 5.749961e+08
-2.780251e+10 1.489629e+10 1.246274e+09
-2.496426e+10 -1.709204e+10 8.214336e+08
2.402389e+10 1.248582e+10 -2.302183e+09
1.574532e+10 3.122523e+10 -2.881079e+09
1.898175e+10 -2.720894e+10 -5.895764e+08
-1.939287e+09 -2.665407e+10 -3.369919e+09
-2.577526e+10 9.486071e+09 -4.185891e+08
1.910794e+10 -8.474588e+09 2.066945e+08
2.694484e+10 -4.728244e+09 1.349550e+09
-2.368934e+10 -1.017606e+09 1.700583e+08
-6.030338e+09 1.842291e+10 -2.671783e+08
-1.438489e+10 2.120953e+10 -2.228183e+09
-1.499561e+10 3.088921e+10 1.420890e+09
3.327600e+10 1.283984e+10 9.322627e+08
-2.067620e+10 -3.354898e+10 2.729241e+09
-1.592979e+10 -2.212815e+10 1.286509e+09
-3.126139e+10 2.165774e+09 -5.256828e+08
6.561682e+09 2.082890e+10 -1.646528e+09
1.993405e+10 2.670677e+10 -1.625245e+09
5.536854e+09 1.920920e+10 -1.548666e+09
-5.493134e+09 2.475173e+10 9.021734e+08
-8.239170e+09 1.987058e+10 3.128985e+08
6.529647e+08 -3.735176e+10 8.048364e+08
-2.248068e+10 -1.940042e+10 -2.923028e+09
4.973173e+09 -2.433251e+10 -1.457808e+08
2.243203e+10 5.125712e+09 -7.884292e+08
1.039305e+10 2.097246e+10 -2.175053e+08
8.010483e+09 -2.450495e+10 3.168283e+09
1.036385e+10 3.177902e+10 1.658296e+09
-7.441170e+09 2.445497e+10 -1.838653e+09
7.779542e+09 -2.760527e+10 -2.954674e+09
8.476768e+09 1.625430e+10 1.004212e+09
-1.064710e+10 2.090452e+10 5.525952e+08
8.196952e+09 -2.117717e+10 2.046785e+08
-2.293877e+10 2.505879e+10 5.454712e+08
-2.872172e+10 -1.958107e+09 -4.776121e+08
-1.220640e+10 -3.160845e+10 -4.417414e+08
8.923648e+09 -1.778980e+10 -9.704634e+08
-2.119692e+10 7.827988e+09 -1.124523e+09
3.005079e+10 -2.257195e+10 -3.685613e+08
-2.326788e+10 -2.239118e+09 -2.489993e+08
1.917371e+10 2.465641e+10 1.483765e+09
-2.905735e+10 -3.528201e+09 -4.900485e+08
-1.229012e+10 1.917177e+10 1.369264e+08
-2.112013e+10 -2.354718e+10 1.342964e+09
-9.526072e+09 -3.573482e+10 1.028928e+09
-5.689592e+09 -1.894412e+10 -5.042389e+08
4.477610e+10 -5.883077e+09 -2.682243e+09
-2.469737e+10 6.567236e+09 -1.678969e+09
-3.141805e+10 -2.732739e+09 1.281510e+09
2.209820e+10 6.308106e+08 -1.191954e+09
1.721822e+10 1.681520e+10 1.476756e+09
9.505609e+09 2.335301e+10 -1.066689e+09
-1.480626e+10 2.124630e+10 1.317659e+09
-8.875769e+09 1.625587e+10 6.753784e+08
-1.757476e+10 -1.438944e+10 -7.202973e+08
1.583608e+10 3.322425e+10 3.887346e+08
1.788215e+10 4.438344e+10 -1.740745e+09
-2.190443e+10 3.854861e+07 1.231220e+08
-7.137303e+09 -3.254423e+10 6.860374e+08
1.426843e+10 2.663597e+10 -1.399887e+09
-1.957861e+10 2.504607e+10 2.991685e+08
1.875517e+10 -2.352122e+10 -3.367437e+08
3.456515e+10 9.110057e+08 1.307250e+09
2.429153e+10 1.126627e+10 -1.202092e+09
-1.093713e+10 1.748015e+10 2.366990e+09
3.033962e+10 -1.809209e+10 -6.136437e+08
-3.236086e+10 5.772879e+09 1.954607e+09
5.045344e+09 2.362274e+10 -8.780919e+08
6.913232e+09 2.467928e+10 1.475369e+09
-1.691586e+10 1.211612e+10 -6.243686e+08
2.480872e+10 1.493962e+10 2.373034e+09
-1.218705e+10 1.943553e+10 -1.180215e+09
5.283666e+09 2.642595e+10 4.841276e+08
-3.444158e+09 -1.706310e+10 1.361704e+09
-1.620574e+10 3.028780e+10 -2.823582e+08
-1.205869e+10 1.811079e+10 2.153474e+08
2.558522e+09 3.052688e+10 -2.162697e+07
-5.600857e+09 -2.697390e+10 -4.759314e+08
2.469745e+10 -2.347808e+09 4.634682e+08
6.295163e+09 2.428980e+10 -7.136222e+08
-5.001659e+09 1.855159e+10 -1.365523e+08
-3.614510e+09 -3.108993e+10 -2.101276e+09
3.178732e+10 -3.460134e+09 -2.557751e+09
2.890840e+10 -2.039840e+10 -1.537542e+09
1.378172e+10 -3.210387e+10 1.050982e+09
1.715162e+10 -2.481701e+10 -1.693028e+09
-1.734924e+10 2.302556e+10 -1.911151e+09
-1.792005e+10 5.952112e+09 -4.348723e+08
-2.503581e+10 -1.724148e+09 4.097734e+09
1.104545e+10 -2.704784e+10 5.310641e+08
-1.517667e+10 -1.683625e+10 1.773483e+09
1.802509e+10 -6.507219e+09 5.792225e+07
-2.159973e+10 -2.941498e+10 -1.493722e+08
-2.899891e+10 1.769726e+09 1.154924e+09
2.340931e+10 3.963046e+09 -1.170939e+09
-1.143417e+10 -2.584052e+10 -1.212747e+09
-2.305894e+09 1.876079e+10 1.610798e+09
-1.564477e+10 1.578706e+10 -1.268580e+09
-2.272321e+10 6.751492e+09 -2.298112e+08
-2.329650e+10 1.755295e+10 -2.664800e+09
-2.577588e+10 -4.051741e+09 -1.824299e+09
-1.292530e+10 -2.915307e+10 -2.840221e+09
-2.674934e+10 6.095895e+09 1.448211e+09
2.538948e+10 9.310219e+09 1.824782e+09
-2.235848e+10 6.432960e+09 -2.624576e+08
2.297490e+10 -2.327027e+10 1.861875e+09
-2.798328e+10 -6.728217e+09 -1.391899e+09
1.047366e+10 3.696877e+10 6.675381e+06
-1.382679e+10 1.380860e+10 2.287895e+08
1.060873e+09 2.375918e+10 -1.354060e+09
3.065762e+10 8.412156e+08 5.232648e+08
3.123792e+10 -2.237092e+09 -1.255242e+08
2.776482e+10 5.063949e+09 6.528695e+08
-2.688900e+10 1.273191e+10 -4.840514e+09
3.245665e+10 -6.451046e+09 -7.861674e+08
1.077791e+10 4.197343e+10 -4.694690e+08
-2.401377e+10 2.078392e+10 2.245481e+09
2.239532e+10 1.936734e+10 -2.742362e+09
-2.061242e+10 -1.995345e+10 1.298988e+09
-1.162566e+10 1.511979e+10 -8.815105e+08
-9.215751e+09 2.344010e+10 -1.823263e+08
3.101578e+09 3.020007e+10 8.950114e+08
2.625932e+10 -1.222285e+10 9.243763e+08
1.888035e+10 1.157588e+10 -2.521892e+08
2.224686e+10 1.786011e+10 6.091479e+08
-2.554257e+10 2.662198e+09 4.294753e+08
1.165849e+10 -2.104874e+10 -1.489547e+09
3.384852e+10 1.018488e+10 -3.562336e+09
-2.124565e+10 1.340760e+10 3.080701e+09
8.648948e+09 -3.614312e+10 2.146448e+09
-1.461996e+10 1.441990e+10 -6.515498e+08
1.766330e+10 1.640966e+10 -1.212896e+09
1.878951e+10 1.800373e+10 4.932421e+07
-2.138857e+10 -5.657014e+09 1.449404e+09
-2.260100e+10 -1.606068e+10 -1.116370e+07
-3.083307e+09 1.801823e+10 -2.004907e+08
-1.669171e+10 1.703565e+10 -2.452544e+09
-1.441676e+06 -2.717824e+10 4.509874e+08
5.903286e+09 1.997819e+10 3.588221e+09
-2.821096e+10 -1.051987e+10 -2.600321e+09
-1.927298e+10 9.680403e+09 -1.591057e+09
-2.320865e+10 1.836662e+10 -7.698321e+08
-2.101751e+10 1.022000e+10 7.617598e+07
-3.224456e+09 2.922178e+10 5.735957e+08
-8.991964e+08 2.516761e+10 3.872848e+08
3.189031e+10 -3.258676e+09 2.148829e+09
3.218506e+10 -9.180091e+09 -1.616860e+07
1.875697e+10 1.171500e+10 1.193398e+09
2.980566e+10 7.184190e+09 -9.471987e+08
8.935948e+09 1.909096e+10 1.454575e+07
-1.326421e+10 -1.588144e+10 1.395554e+09
2.573807e+10 4.062030e+09 -2.937065e+09
-1.899192e+10 1.160560e+10 4.972347e+08
-1.933725e+10 -2.436208e+09 6.360315e+06
-7.010223e+09 -2.218193e+10 1.160498e+09
1.235299e+10 -2.509071e+10 8.825257e+08
9.935879e+09 1.877399e+10 -1.341647e+09
-3.994541e+10 8.421003e+09 -4.133336e+08
-6.018058e+09 -2.752775e+10 9.240378e+08
-1.521098e+10 -2.546799e+10 5.135990e+08
2.181598e+10 -3.859789e+09 -8.556064e+07
2.532216e+10 -8.642679e+09 1.259454e+08
-2.271380e+10 6.291202e+09 5.976817e+08
-1.567853e+10 1.079605e+10 -2.997752e+08
1.899850e+10 -5.380892e+09 -2.105374e+08
-2.653310e+10 -2.104174e+10 -4.217693e+08
-1.848408e+10 1.360075e+10 1.753455e+08
-1.087453e+10 -1.888295e+10 -6.314112e+07
-1.794307e+10 -5.224530e+09 -6.843766e+08
-3.591356e+10 -3.984606e+09 1.716090e+09
-2.714069e+10 1.021706e+10 -5.088140e+08
-1.483780e+10 2.411763e+10 -1.324723e+08
-1.888916e+10 5.782276e+09 -2.246751e+09
1.680306e+10 -1.717345e+10 2.066754e+09
-1.775373e+10 1.138874e+10 8.838611e+08
4.123214e+10 1.531460e+10 1.373138e+09
1.455808e+10 -1.999207e+10 -2.904750e+08
-3.010289e+10 -1.228016e+10 2.282346e+09
-9.228017e+09 -3.826063e+10 2.792016e+08
4.058096e+10 -1.717571e+09 5.367489e+07
-6.610770e+08 -2.592474e+10 2.716284e+09
-1.678065e+10 -1.124872e+10 6.426120e+08
-3.190817e+10 5.722592e+09 1.466193e+09
5.517206e+09 3.009623e+10 -2.129112e+09
5.355323e+09 2.407455e+10 1.583627e+09
-1.679131e+10 8.060461e+09 -4.815917e+08
3.310248e+10 2.347846e+10 4.471692e+08
3.285931e+10 -1.047764e+10 4.598043e+09
-6.889035e+09 1.828865e+10 -2.861646e+08
-1.736411e+10 -1.540525e+10 1.001911e+09
-2.573252e+10 -2.888896e+10 -2.280266e+09
-2.949046e+10 7.010471e+09 1.464014e+09
-1.171070e+10 2.853722e+10 2.322469e+08
-2.157433e+10 3.122218e+10 -7.719497e+08
1.847306e+10 2.015817e+10 -1.912849e+09
-3.603715e+08 3.220682e+10 -4.044093e+08
-1.712352e+10 1.196764e+10 2.277602e+09
-4.742663e+07 2.560832e+10 -7.530205e+08
-3.109988e+10 -5.996403e+09 -8.145945e+08
2.463690e+10 -5.308536e+08 1.075289e+08
-2.643462e+10 -1.908924e+10 8.399560e+07
1.078072e+10 -1.688131e+10 2.834514e+09
-2.476260e+10 2.268113e+10 3.595816e+08
2.499707e+10 4.682436e+09 2.477543e+08
-2.914362e+10 1.473344e+10 -4.532969e+08
3.751471e+10 1.479334e+09 1.880990e+09
-9.389609e+09 1.808696e+10 2.588885e+09
-1.860594e+10 6.981950e+09 -8.891200e+08
-2.393262e+10 -8.669245e+09 1.031347e+08
2.252922e+10 5.944726e+09 5.873871e+08
1.774658e+10 -1.619712e+10 -2.212494e+08
-1.743381e+10 -2.104437e+10 4.069030e+08
-1.445579e+10 1.812500e+10 1.581602e+09
2.967048e+10 -1.577614e+10 -7.292803e+08
1.463511e+10 -1.380956e+10 -3.915801e+08
4.075123e+10 -2.191581e+10 -2.429981e+09
3.094280e+10 2.931746e+09 -5.593595e+07
4.796573e+10 1.146858e+10 1.082336e+08
-1.660100e+10 7.987795e+09 1.099235e+09
-1.629223e+10 -1.053048e+10 5.093947e+08
-2.117424e+10 -1.420777e+09 1.112526e+09
2.615825e+10 9.355191e+09 -1.369506e+09
1.124852e+10 -2.217862e+10 -2.983529e+09
-3.155004e+10 -1.638385e+10 1.565126e+09
3.652497e+10 2.153309e+10 4.681835e+08
-1.390054e+10 -3.191518e+10 -9.222505e+08
7.880330e+09 -2.100554e+10 2.022564e+09
1.457703e+09 -2.324701e+10 3.740401e+09
-6.519824e+09 2.041353e+10 3.780391e+08
-1.812439e+10 7.246997e+09 -3.859442e+07
3.051788e+09 2.337338e+10 4.191743e+08
-2.111958e+10 -1.048711e+10 4.303518e+08
-1.465784e+10 1.599897e+10 -3.667849e+09
-1.020340e+10 -3.140599e+10 6.113522e+08
1.230534e+09 -2.648113e+10 -5.512504e+08
-2.459691e+10 -1.263302e+10 -1.846622e+09
-1.192470e+10 -1.818747e+10 -3.048390e+09
-1.334897e+10 -2.474356e+10 2.668604e+09
-1.294927e+10 3.227422e+10 2.055629e+08
-3.021377e+10 -1.219111e+10 3.524964e+08
-1.732301e+10 4.728998e+09 -8.386218e+08
-1.426736e+10 8.078628e+09 1.698267e+08
3.491507e+09 2.125711e+10 7.322638e+08
-1.700632e+10 -3.594447e+10 -2.159686e+08
-1.442819e+10 1.626975e+10 -2.115737e+08
-1.944250e+10 4.037912e+10 4.908147e+08
-2.652047e+10 1.570117e+10 -2.203738e+09
-2.397116e+09 2.157339e+10 -1.004678e+09
-2.744307e+10 -2.621341e+10 -6.056418e+08
3.706252e+10 1.186430e+10 -1.713505e+09
1.994430e+10 1.406727e+10 -1.496773e+09
-1.899286e+10 7.191687e+09 -9.792493e+08
-1.271913e+10 -3.166317e+10 -1.182653e+09
-2.901517e+10 1.898825e+10 -1.194795e+09
-1.535759e+10 -3.589419e+10 -1.250400e+09
2.284617e+10 -2.185819e+10 9.392941e+08
-2.266254e+10 1.626795e+10 -2.724556e+09
3.585373e+10 2.241462e+09 -3.672204e+09
1.871325e+10 -1.550615e+10 1.999285e+09
3.203131e+10 2.576268e+10 8.612483e+08
-2.297415e+10 1.831313e+10 -2.228478e+07
1.302536e+10 2.816734e+10 -7.876367e+08
-2.361403e+10 6.636727e+09 -1.931334e+09
-6.202267e+09 -2.881391e+10 2.248854e+08
-2.201485e+10 8.792792e+09 -1.806644e+08
1.668365e+09 3.343922e+10 1.870609e+09
-1.412012e+10 2.834647e+10 -9.065452e+08
-4.214500e+09 -2.340878e+10 8.073425e+08
2.850135e+10 -1.967351e+10 -7.927621e+08
-1.377892e+10 2.266262e+10 -8.849697e+08
-1.625799e+10 -5.669535e+09 -6.880850e+08
2.438491e+10 3.459107e+10 -6.167362e+08
1.740854e+10 -8.953370e+09 -3.249514e+08
-2.252551e+10 3.766261e+09 -9.997826e+07
-2.768818e+10 5.005754e+09 7.561381e+08
-3.013824e+10 -2.611712e+10 -8.958199e+08
1.675514e+10 1.730783e+10 8.766362e+08
-1.958219e+10 -1.460858e+10 1.133653e+09
7.776016e+09 -1.981313e+10 -3.793018e+09
2.656230e+10 -1.930184e+10 5.070008e+08
6.304526e+09 -2.193879e+10 -1.435378e+08
3.063143e+10 -2.935314e+09 3.241902e+09
-2.558803e+10 1.283373e+10 8.086722e+08
-7.912993e+09 -3.258946e+10 -1.610035e+09
-2.277120e+10 4.387598e+09 -2.413260e+08
2.478761e+10 -2.795205e+10 -1.015791e+09
-2.181033e+10 1.634839e+10 1.819638e+09
1.379031e+10 1.471229e+10 -1.126121e+09
1.371821e+09 -1.924850e+10 -7.822556e+08
1.191655e+10 -1.750147e+10 1.696366e+09
1.362906e+10 -1.816022e+10 -6.288717e+08
2.420271e+10 -3.898047e+09 -5.141413e+08
-1.573152e+10 -2.128700e+10 -4.680082e+09
9.392182e+09 -2.983315e+10 1.106749e+09
-1.281913e+10 2.206093e+10 -1.799397e+08
-2.311029e+10 1.091270e+09 -1.169199e+09
-1.980467e+10 -1.396905e+10 1.104822e+09
-2.444845e+10 -2.528808e+10 5.597674e+08
-1.330631e+10 -2.756790e+10 -2.283403e+09
3.315375e+10 4.520324e+09 -7.419633e+08
2.731501e+10 2.136817e+10 -8.252704e+08
-2.349632e+10 -1.225217e+10 -6.804229e+08
-2.590222e+10 -2.662580e+10 1.469350e+09
-2.266389e+10 1.041107e+10 7.589416e+08
-3.311452e+09 2.440409e+10 -9.554684e+08
6.886906e+09 -2.784605e+10 -2.056554e+09
-2.231912e+10 3.827093e+09 -9.726874e+08
3.716966e+10 -2.068697e+10 -1.052606e+09
2.150392e+10 -8.090552e+09 -3.844381e+08
-2.455837e+10 2.217583e+10 -8.317630e+08
-4.518576e+09 3.066593e+10 -2.206128e+08
1.639289e+10 2.645819e+10 7.105268e+08
-2.061625e+10 2.665938e+10 2.502650e+09
3.117872e+10 -2.109686e+10 -4.666521e+08
2.213020e+10 8.738852e+09 -6.675696e+08
-7.066526e+09 -2.030400e+10 -3.976594e+08
2.174267e+10 -5.395146e+09 1.776451e+09
-2.267184e+10 -3.250620e+08 1.197624e+09
-3.530793e+09 -1.817451e+10 1.910099e+09
2.471388e+10 1.001848e+10 -2.474094e+09
2.081339e+10 -1.235661e+09 -3.609814e+09
2.004795e+10 -7.035769e+09 5.208978e+08
3.566949e+10 2.137669e+10 5.404930e+08
-1.537938e+10 -1.574449e+10 1.356056e+09
-3.249388e+10 -7.613539e+09 -1.994254e+09
-6.247989e+09 -2.161901e+10 -1.645170e+09
2.201929e+10 2.646451e+10 -1.346489e+09
-2.252044e+10 1.344098e+10 2.820131e+08
-1.814982e+10 4.926204e+08 -8.697404e+08
-4.845867e+08 -1.769456e+10 5.683946e+08
1.882753e+09 -1.987021e+10 7.767050e+08
-1.187620e+10 -3.615592e+10 7.912197e+08
-4.382449e+09 1.871871e+10 1.840244e+09
-3.151352e+10 -1.356373e+10 2.406494e+09
-6.599791e+09 3.204518e+10 4.196754e+08
2.368120e+10 -2.794779e+10 8.648092e+08
-2.161894e+10 -1.433817e+10 2.504673e+08
2.925099e+10 4.381423e+09 1.364127e+09
1.629357e+10 -1.362730e+10 -2.244424e+08
-1.996456e+10 -1.082453e+09 1.175595e+08
2.122535e+10 1.511623e+09 -1.498864e+09
-2.040574e+10 2.879900e+10 -3.011596e+09
3.040329e+09 3.153334e+10 -8.167762e+08
-1.130543e+10 -2.626644e+10 9.313116e+08
-2.459250e+10 1.427366e+09 -8.956083e+08
2.346909e+10 1.156945e+10 1.011145e+09
2.784113e+10 -1.433804e+10 3.554278e+09
-1.660038e+10 1.102080e+10 1.990542e+09
3.268393e+10 -7.553060e+09 -2.884152e+08
2.006031e+10 2.376483e+10 -3.088879e+09
-1.921609e+10 -1.866007e+09 -2.922441e+08
8.864365e+09 1.662128e+10 -1.757884e+08
-2.105950e+10 -2.065793e+10 -2.264063e+09
-2.730994e+10 1.476958e+10 8.695351e+08
1.058065e+10 1.995223e+10 -9.450326e+07
-2.759961e+10 -9.962660e+09 -5.641496e+09
-1.264844e+09 -2.569102e+10 -1.121012e+09
-2.632447e+09 2.125527e+10 1.161708e+09
1.645481e+10 -1.494193e+10 9.978021e+07
-2.278539e+10 -1.279363e+09 -3.493335e+08
2.929366e+09 -2.315160e+10 -9.090459e+08
-1.855059e+10 -2.161004e+09 -5.363073e+08
-2.604527e+09 2.359512e+10 4.020465e+08
-5.425963e+09 2.237091e+10 -3.009887e+08
-2.295731e+09 1.987141e+10 2.689757e+08
-1.270666e+10 -2.243331e+10 -7.104385e+08
-4.298335e+08 -3.098732e+10 7.787304e+08
1.620393e+10 2.137138e+10 -1.308136e+09
-2.085579e+10 1.361093e+10 2.301951e+09
-1.061636e+10 2.658582e+10 2.623136e+08
-1.691235e+10 2.024376e+10 5.632900e+09
-3.216812e+09 2.713502e+10 1.013713e+08
-2.029303e+10 -1.992711e+09 3.364436e+08
2.006134e+10 7.984133e+09 5.275504e+08
2.481168e+10 1.491331e+10 2.475993e+09
-1.977441e+10 1.439828e+10 3.099419e+08
8.619102e+09 -2.356248e+10 1.674661e+08
2.433661e+10 6.787256e+09 -1.614276e+09
1.924618e+10 -8.334183e+09 7.619307e+08
-2.327623e+10 1.364877e+10 2.341746e+08
1.330809e+10 -1.810029e+10 1.340925e+09
-6.783345e+09 -2.370403e+10 -1.936687e+09
-1.856500e+10 2.569530e+08 -1.448925e+09
-2.571007e+10 -4.730292e+09 -8.207134e+08
1.413994e+09 -2.294959e+10 2.602195e+09
2.067602e+10 -2.225689e+10 1.642742e+09
-2.359854e+10 -2.297287e+10 1.642014e+08
-2.392104e+10 2.253679e+10 -3.428355e+09
1.805511e+10 1.517264e+10 -8.139267e+08
-3.858639e+09 2.052859e+10 8.177836e+08
-2.529449e+10 3.513806e+09 -2.887082e+09
-1.952753e+10 4.708829e+08 -7.508554e+08
1.409434e+10 1.950453e+10 4.506586e+08
6.837290e+09 -1.736294e+10 1.079736e+09
-1.963873e+10 -7.065293e+09 -1.609576e+09
-3.075288e+10 -8.111059e+09 -2.135974e+09
4.234192e+10 1.546441e+10 -3.437557e+08
1.318372e+10 -2.164702e+10 9.663015e+08
-6.821579e+09 -3.346608e+10 -2.251646e+09
2.244422e+10 -7.045654e+09 -9.956220e+08
2.183058e+10 1.957253e+10 -1.353799e+09
-2.177213e+10 -1.980867e+10 -7.575146e+08
-2.880811e+10 -9.368382e+09 -4.617344e+08
1.156299e+10 3.264799e+10 2.992815e+08
-1.985123e+10 -1.035762e+10 3.543955e+07
-1.717597e+10 -6.043885e+09 -1.198080e+08
3.117082e+10 2.343230e+10 2.645050e+08
-1.964216e+10 -8.603948e+09 -5.911916e+08
1.284045e+10 1.414579e+10 1.682471e+09
5.297347e+09 3.462636e+10 -7.232689e+07
1.349613e+10 -2.803235e+10 -3.946587e+08
-4.946147e+09 -2.505463e+10 -7.956972e+08
-1.890822e+10 -5.363298e+09 4.167516e+08
5.246250e+09 2.549190e+10 -3.844448e+09
1.474613e+10 -2.517994e+10 -9.664127e+08
2.803808e+10 1.005314e+10 -1.830557e+09
-2.231548e+10 -4.810340e+09 3.882392e+08
-9.876865e+09 -1.818766e+10 -9.901189e+08
-1.408596e+10 -3.089282e+10 -5.867574e+08
-3.495492e+10 8.208578e+09 2.009968e+09
3.077418e+09 1.991936e+10 9.551243e+08
-1.100468e+09 2.878562e+10 5.102877e+09
1.362115e+09 -2.597102e+10 2.575493e+09
-2.443606e+09 1.805958e+10 -1.764607e+07