# vtk DataFile Version 2.0
Electric current density generated by TTH
ASCII
DATASET UNSTRUCTURED_GRID
POINTS 1834 double
2.427538e-05 -5.945753e-21 -3.886869e-22
2.263611e-05 8.769278e-06 -3.886869e-22
-1.462918e-05 -1.937217e-05 -3.886869e-22
-6.997678e-06 -2.298929e-05 -8.465773e-07
5.134333e-06 -2.063727e-05 7.043178e-07
-1.063484e-05 1.929033e-05 1.442808e-06
1.768076e-05 1.390415e-05 1.574852e-06
-1.171244e-05 1.803180e-05 1.053669e-06
-1.976726e-05 8.133212e-06 -8.907386e-07
-2.101223e-05 3.922672e-06 -8.909927e-07
-1.787236e-05 -1.433893e-05 -1.570902e-06
-3.957923e-08 2.199488e-05 1.427369e-06
-1.620991e-05 1.362193e-05 4.726327e-07
-1.382152e-05 -1.995644e-05 -3.886869e-22
-8.727366e-06 2.236632e-05 8.804486e-07
-1.529064e-05 1.707681e-05 -1.569644e-06
8.055036e-06 -2.257189e-05 -9.412507e-07
4.659768e-06 2.358438e-05 8.311603e-07
1.808500e-05 1.593107e-05 -7.228910e-07
1.931145e-05 -1.433019e-05 -8.192035e-07
1.526299e-05 -1.855822e-05 -8.501397e-07
-1.160156e-05 1.987122e-05 1.554008e-06
2.036496e-05 6.249582e-06 -7.726804e-07
1.658643e-05 1.558278e-05 -1.585404e-06
-1.299056e-05 -2.050706e-05 -3.886869e-22
-2.576960e-06 2.278959e-05 -1.567693e-06
6.040830e-06 -2.048098e-05 -8.577232e-07
1.097893e-05 1.802471e-05 -1.073293e-07
2.397680e-05 -9.532594e-07 -8.996288e-07
2.397680e-05 9.532594e-07 8.996288e-07
-1.551829e-05 -1.833783e-05 8.590273e-07
-1.782621e-05 1.613825e-05 -8.215865e-07
1.033254e-05 2.169734e-05 -8.445513e-07
2.314987e-05 6.435990e-06 -8.510656e-07
-7.813114e-08 2.403023e-05 -8.471261e-07
-1.213769e-05 -2.102309e-05 -3.886869e-22
4.148002e-06 2.193336e-05 1.544083e-06
1.331139e-06 2.154995e-05 -1.146316e-06
1.650672e-05 -1.568479e-05 1.584825e-06
1.872544e-05 1.291975e-05 1.585741e-06
-1.835859e-05 -1.081542e-05 7.819527e-07
-2.024243e-05 -1.296642e-05 -8.329305e-07
2.296682e-05 -7.186645e-06 -7.896460e-07
2.293746e-05 7.281468e-06 7.887680e-07
2.056378e-05 5.382029e-06 6.838539e-07
2.056378e-05 -5.382029e-06 -6.838539e-07
-1.126435e-05 -2.150368e-05 -3.886869e-22
-1.780769e-05 -1.617917e-05 -7.983955e-07
-1.732128e-05 -1.256919e-05 9.280930e-07
6.679849e-06 2.016674e-05 6.577638e-07
1.783274e-05 1.423562e-05 -1.581641e-06
9.781597e-06 1.945897e-05 1.300595e-06
-1.727046e-06 -2.116958e-05 -6.481652e-07
-2.162511e-05 1.053590e-05 -8.065103e-07
2.153933e-05 -1.058122e-05 8.963130e-07
6.031855e-06 2.022160e-05 -4.119813e-08
-1.010433e-05 -1.902280e-05 -1.095015e-06
-1.037202e-05 -2.194801e-05 -3.886869e-22
9.860119e-06 -2.187845e-05 -8.968084e-07
-3.371123e-06 -2.083629e-05 1.347312e-07
1.727651e-06 -2.399833e-05 7.974974e-07
-1.820608e-05 1.088483e-05 5.813045e-07
-4.313675e-06 2.257356e-05 -1.559542e-06
-2.119819e-05 7.655745e-07 5.818276e-07
-5.878480e-06 2.099150e-05 1.314303e-06
-8.577902e-06 1.990565e-05 1.221375e-06
9.153836e-06 2.127390e-05 -1.515347e-06
2.127920e-05 1.117688e-05 8.381975e-07
-9.462199e-06 -2.235533e-05 -3.886869e-22
2.130104e-05 -1.113888e-05 -8.354446e-07
-2.405596e-05 -9.884516e-07 7.696240e-07
-1.965098e-05 1.391064e-05 7.695963e-07
-2.357057e-05 -4.908998e-06 7.694804e-07
1.955269e-05 -8.072353e-06 4.028709e-07
1.487596e-05 -1.530524e-05 8.422958e-07
4.437957e-06 2.237071e-05 -1.582525e-06
-1.711196e-05 1.693717e-05 7.688557e-07
-5.917320e-06 2.025577e-05 -5.289813e-08
-2.181572e-05 -7.441439e-06 1.545208e-06
-8.536423e-06 -2.272495e-05 -3.886869e-22
1.072062e-05 -2.149046e-05 8.693461e-07
-1.246385e-05 -2.059935e-05 7.690895e-07
1.952277e-05 1.402630e-05 8.332069e-07
-8.923170e-06 2.234943e-05 -7.897358e-07
-1.965361e-05 -1.391251e-05 7.637532e-07
-2.166464e-05 -1.051154e-05 7.627319e-07
-9.485500e-06 -2.097360e-05 1.552161e-06
1.436985e-05 1.818767e-05 1.509085e-06
1.517391e-05 1.750499e-05 1.513315e-06
-2.356523e-05 4.924584e-06 7.731662e-07
-7.596252e-06 -2.305625e-05 -3.886869e-22
-2.245452e-05 8.681424e-06 7.731300e-07
-8.923925e-06 -2.235133e-05 7.861743e-07
-7.922578e-06 -2.164616e-05 1.545091e-06
3.241081e-06 -2.156440e-05 1.319364e-06
-1.479171e-05 -1.898187e-05 7.902413e-07
2.253375e-05 -4.238971e-06 -1.568597e-06
2.253375e-05 4.238971e-06 1.568597e-06
-2.106640e-05 4.055175e-06 9.961973e-07
-1.990034e-05 8.004438e-06 9.920471e-07
1.392475e-05 -1.591042e-05 -3.619078e-07
-6.643272e-06 -2.334868e-05 -3.886869e-22
-2.093880e-05 -4.649196e-06 9.907024e-07
-1.494258e-05 -1.558905e-05 -1.149115e-06
1.004412e-05 -2.049519e-05 -1.581130e-06
-6.114691e-06 2.329807e-05 7.496999e-07
-1.135559e-05 1.914768e-05 -1.528478e-06
1.768887e-05 1.271042e-05 -1.302509e-06
-8.535218e-06 1.950235e-05 -7.469587e-07
1.332781e-05 -1.724382e-05 -1.310874e-06
-1.500694e-05 1.533271e-05 9.980058e-07
9.217120e-06 -2.082052e-05 1.584864e-06
2.225701e-05 9.691210e-06 -3.886869e-22
-5.679090e-06 -2.360173e-05 -3.886869e-22
1.023036e-06 -2.301797e-05 1.547346e-06
-1.989529e-05 -1.247306e-05 1.374327e-06
-2.015076e-05 -1.315107e-05 7.939398e-07
1.221378e-05 -2.067833e-05 8.694142e-07
5.068165e-06 2.094179e-05 1.101801e-06
-2.030323e-05 1.094913e-05 1.541026e-06
1.645246e-05 1.612104e-05 1.548825e-06
1.262266e-05 1.926816e-05 1.548717e-06
1.656211e-05 1.339805e-05 -7.736113e-07
2.298755e-05 -6.952423e-06 8.696018e-07
-4.705332e-06 -2.381499e-05 -3.886869e-22
-2.299334e-05 1.850451e-06 1.540954e-06
7.595511e-06 2.289186e-05 -6.867970e-07
2.217970e-05 -3.013616e-06 -1.557361e-06
2.217970e-05 3.013616e-06 1.557361e-06
-1.671782e-05 -1.344117e-05 -9.936793e-07
1.059376e-05 -1.895142e-05 1.250489e-06
-2.335274e-05 -5.786647e-06 -7.999531e-07
-4.663685e-06 -2.140991e-05 -1.383994e-06
-2.405994e-06 -2.147908e-05 -1.167338e-06
-8.287753e-06 2.158537e-05 1.526634e-06
-3.723640e-06 -2.398809e-05 -3.886869e-22
-2.117366e-05 -1.144134e-05 7.858052e-07
-1.666168e-05 -1.729070e-05 -8.754155e-07
1.526295e-05 -1.718810e-05 1.558655e-06
1.678488e-05 -1.552443e-05 -1.577249e-06
2.646686e-06 -2.260759e-05 1.585230e-06
-2.332537e-05 5.932680e-06 7.843029e-07
-2.277643e-05 7.771667e-06 7.881336e-07
-1.901750e-05 1.475149e-05 7.842252e-07
-2.398167e-05 -2.038780e-06 7.840326e-07
2.188977e-05 -3.941487e-06 1.522781e-06
-2.735669e-06 -2.412074e-05 -3.886869e-22
-9.940763e-06 -1.874173e-05 5.890517e-07
-2.375494e-05 -3.871572e-06 7.836843e-07
1.791680e-05 1.600932e-05 8.519921e-07
-4.464141e-06 -2.100456e-05 1.021171e-06
1.201113e-05 1.817259e-05 -1.303457e-06
-2.024510e-05 1.299869e-05 -8.001549e-07
-2.209822e-05 9.513288e-06 -8.000157e-07
6.630332e-06 2.315121e-05 7.592995e-07
6.057505e-06 2.110111e-05 1.406420e-06
2.264742e-05 -2.536852e-06 1.583742e-06
-1.743085e-06 -2.421272e-05 -3.886869e-22
2.263556e-05 2.619073e-06 -1.583898e-06
2.125670e-05 8.309377e-06 1.581213e-06
2.126412e-05 -8.275285e-06 -1.581670e-06
6.009565e-07 -2.404546e-05 -8.102044e-07
2.393049e-05 -2.050935e-06 8.660622e-07
2.393049e-05 2.050935e-06 -8.660622e-07
-1.783412e-05 1.616421e-05 7.818110e-07
-1.868322e-05 -1.356555e-05 1.535636e-06
2.181603e-05 4.125438e-06 -1.510757e-06
6.517984e-06 -2.318701e-05 -7.523322e-07
-7.475617e-07 -2.426386e-05 -3.886869e-22
1.811565e-05 -1.587507e-05 7.495101e-07
-2.408713e-05 4.415200e-19 -7.496900e-07
-2.376289e-05 3.938934e-06 -7.496798e-07
-2.004118e-05 -6.691729e-06 -2.933177e-07
2.189029e-05 1.002423e-05 -7.694855e-07
7.644707e-07 2.407568e-05 7.484093e-07
-1.830813e-05 1.475868e-05 1.354021e-06
-2.241125e-05 7.068899e-06 1.363931e-06
3.694965e-06 2.380336e-05 -7.472456e-07
-1.432836e-05 1.809940e-05 1.536740e-06
2.492222e-07 -2.427410e-05 -3.886869e-22
-1.827908e-05 -1.121020e-05 -9.832163e-07
-2.326774e-05 -3.309408e-06 1.362581e-06
-6.247273e-06 -2.031735e-05 -6.832537e-07
2.059667e-05 -1.045090e-05 1.533598e-06
-2.134618e-05 2.863285e-06 -1.092418e-06
-2.266548e-05 4.457406e-06 1.532741e-06
-2.144563e-05 8.584093e-06 1.532688e-06
-2.256262e-05 -4.959462e-06 1.532302e-06
-1.947126e-05 9.204945e-06 -1.092494e-06
1.628086e-05 -1.388300e-05 9.213411e-07
1.245586e-06 -2.424340e-05 -3.886869e-22
-1.624776e-05 -1.639147e-05 -1.537961e-06
1.547375e-05 1.436924e-05 2.185253e-07
2.075693e-05 -5.065995e-06 8.775124e-07
2.077872e-05 4.971970e-06 -8.761529e-07
1.465560e-05 1.903028e-05 -8.640293e-07
2.369496e-05 -3.894492e-06 -8.742054e-07
2.369496e-05 3.894492e-06 8.742054e-07
-1.780420e-07 -2.407135e-05 7.772389e-07
-1.112314e-06 2.155894e-05 1.143042e-06
-1.293184e-05 1.669130e-05 -2.044735e-07
2.239849e-06 -2.417182e-05 -3.886869e-22
-7.910611e-06 2.170424e-05 -1.532395e-06
-8.395775e-06 2.014336e-05 -1.330189e-06
-1.625039e-05 1.643209e-05 1.529819e-06
1.697691e-05 1.558441e-05 1.546274e-06
-2.208932e-05 -9.618198e-06 -7.396058e-07
-1.674306e-05 -1.572559e-05 -1.561745e-06
4.946245e-06 2.081182e-05 -9.145284e-07
-1.050068e-06 2.178245e-05 -1.320129e-06
-3.673709e-06 -2.188124e-05 1.505791e-06
-1.859346e-05 1.002568e-05 -2.672812e-07
3.230336e-06 -2.405949e-05 -3.886869e-22
-1.563987e-05 -1.485022e-05 -1.122800e-06
-7.067810e-06 -2.303316e-05 7.383243e-07
-1.332774e-06 -2.149673e-05 1.093095e-06
-1.505207e-05 -1.746164e-05 1.544324e-06
-7.203829e-06 2.170604e-05 1.576489e-06
1.228006e-05 2.065740e-05 8.448156e-07
-7.741312e-06 2.004240e-05 1.035000e-06
1.194155e-05 1.804691e-05 1.191315e-06
-4.264686e-06 2.120453e-05 -1.181622e-06
-9.916078e-06 2.193711e-05 7.733866e-07
2.184037e-05 1.059680e-05 -3.886869e-22
4.215375e-06 -2.390658e-05 -3.886869e-22
-2.105538e-05 1.701430e-06 -2.663024e-07
2.121472e-05 8.557285e-06 -1.575864e-06
6.650320e-06 2.035267e-05 -9.424018e-07
-1.985221e-05 -1.167946e-05 -1.549073e-06
7.539277e-06 -2.288332e-05 7.380572e-07
1.346835e-05 1.711508e-05 1.300452e-06
-3.910687e-06 2.373689e-05 -8.035777e-07
-1.432979e-05 1.657879e-05 -1.384824e-06
1.734175e-08 2.293985e-05 1.566893e-06
-1.247372e-05 2.062012e-05 7.262448e-07
5.193306e-06 -2.371336e-05 -3.886869e-22
1.492458e-05 -1.792560e-05 -1.453533e-06
2.069112e-05 -6.579304e-06 1.250945e-06
2.177239e-05 6.893067e-06 -1.579919e-06
2.012383e-05 -1.079386e-05 -1.580074e-06
1.737372e-05 -1.271097e-05 1.081473e-06
-2.196001e-05 -6.588883e-06 -1.568875e-06
1.542448e-05 -1.847028e-05 7.916993e-07
[...]
POINT_DATA 1834
VECTORS 10.000GHz_fone_imag double
-1.464902e-04 6.490698e-04 1.853070e-02
-3.787274e-04 -3.228889e-04 1.878711e-02
4.106964e-04 2.442601e-04 1.843083e-02
-2.943169e-03 -8.884261e-03 1.518315e-02
-2.636745e-03 1.183169e-02 -2.700961e-02
1.147616e-02 -2.011500e-02 -1.194996e-02
-1.887672e-02 -1.490397e-02 -4.004579e-03
9.767697e-03 -1.536447e-02 -2.168745e-02
-1.408973e-02 5.040758e-03 -2.402263e-02
-1.533674e-02 2.980533e-03 -2.462561e-02
-1.819118e-02 -1.469266e-02 1.880563e-03
5.339655e-04 -2.240196e-02 -1.315388e-02
6.555438e-03 -5.570275e-03 -2.826860e-02
1.933189e-04 3.434649e-04 1.871123e-02
4.952214e-03 -1.007585e-02 1.555850e-02
-1.441212e-02 1.649139e-02 2.420458e-03
4.170998e-03 -1.149931e-02 1.510992e-02
-1.606168e-03 -1.025259e-02 1.586980e-02
7.156273e-03 6.158898e-03 1.659737e-02
7.877452e-03 -6.477659e-03 1.597791e-02
7.303191e-03 -8.468376e-03 1.574371e-02
1.066829e-02 -1.812604e-02 3.030207e-03
1.296770e-02 4.603989e-03 -2.551956e-02
1.648268e-02 1.630545e-02 1.210215e-06
-4.135704e-04 -1.178506e-05 1.829465e-02
-2.647428e-03 2.218051e-02 3.014902e-03
4.211439e-03 -1.546143e-02 -2.453250e-02
1.370959e-03 2.013861e-03 -2.972731e-02
1.186599e-02 -3.626346e-04 1.523922e-02
-1.067726e-02 -5.297565e-04 1.450167e-02
5.793025e-03 7.706452e-03 1.559757e-02
-8.257476e-03 6.778052e-03 1.541165e-02
4.701570e-03 9.387346e-03 1.549696e-02
9.252139e-03 2.774554e-03 1.537104e-02
-7.633890e-04 1.100323e-02 1.480621e-02
2.523574e-04 1.138556e-05 1.902634e-02
-4.348033e-03 -2.359165e-02 -7.078070e-03
1.234601e-03 2.068077e-02 -2.081495e-02
-1.652836e-02 1.622526e-02 6.793444e-04
-1.898639e-02 -1.338533e-02 -1.494710e-04
1.146614e-02 7.183576e-03 -2.481777e-02
-9.850749e-03 -5.675019e-03 1.555156e-02
9.397812e-03 -3.775962e-03 1.555517e-02
-9.218717e-03 -1.896234e-03 1.600524e-02
-1.114654e-02 -2.139074e-03 -2.659582e-02
1.234746e-02 -3.517311e-03 -2.651884e-02
2.686667e-04 3.685153e-04 1.901197e-02
-7.525472e-03 -6.677763e-03 1.639018e-02
1.334483e-02 9.545561e-03 -2.426981e-02
-5.093374e-03 -1.240375e-02 -2.548886e-02
1.793268e-02 1.449268e-02 6.775750e-04
-1.011068e-02 -1.995844e-02 -1.679064e-02
-9.077770e-04 -1.167352e-02 -2.690531e-02
-8.896417e-03 4.446192e-03 1.603274e-02
-9.914987e-03 5.122620e-03 1.368697e-02
-7.982115e-04 1.052146e-03 -2.984283e-02
-9.242199e-03 -1.640085e-02 -2.233481e-02
-1.650502e-05 6.165485e-04 1.849563e-02
4.774262e-03 -8.819634e-03 1.508767e-02
3.786399e-04 3.037905e-03 -2.928725e-02
-1.998745e-04 9.592971e-03 1.688443e-02
1.050995e-02 -5.351318e-03 -2.616356e-02
-4.203283e-03 2.173994e-02 3.882074e-03
1.068811e-02 -1.151484e-03 -2.809726e-02
5.554382e-03 -2.099683e-02 -1.523892e-02
8.379892e-03 -1.923774e-02 -1.899959e-02
8.145366e-03 1.917626e-02 5.432588e-03
-9.776856e-03 -4.793964e-03 1.560657e-02
2.029888e-05 2.869456e-04 1.810446e-02
8.960791e-03 -3.920946e-03 1.649083e-02
9.643054e-03 6.775256e-04 1.599420e-02
7.906269e-03 -5.554300e-03 1.625476e-02
1.048358e-02 1.410861e-03 1.537979e-02
-6.867923e-03 3.225240e-03 -2.900547e-02
-1.146838e-02 1.145065e-02 -2.356386e-02
4.499108e-03 2.274293e-02 1.284498e-03
7.088516e-03 -6.965077e-03 1.630433e-02
3.687538e-04 1.036324e-03 -2.970734e-02
2.083179e-02 7.134657e-03 4.505132e-03
-9.069906e-05 3.440677e-04 1.812703e-02
-4.399247e-03 9.889907e-03 1.607059e-02
5.781991e-03 8.908999e-03 1.652979e-02
-8.526399e-03 -6.212275e-03 1.597977e-02
-3.786907e-03 8.919734e-03 1.583249e-02
7.982255e-03 6.031874e-03 1.634198e-02
8.616847e-03 3.794552e-03 1.657511e-02
9.566892e-03 2.026308e-02 4.125468e-03
-1.353295e-02 -1.690714e-02 5.494808e-03
-1.442276e-02 -1.553814e-02 5.638379e-03
1.074062e-02 -2.805367e-03 1.664657e-02
-1.066498e-03 -5.321887e-04 1.714510e-02
9.722325e-03 -4.121811e-03 1.710791e-02
3.619314e-03 8.900440e-03 1.584285e-02
8.001391e-03 2.099273e-02 4.110790e-03
-4.183327e-03 2.071927e-02 -1.513929e-02
7.157147e-03 7.055109e-03 1.536046e-02
2.314100e-02 -4.443972e-03 2.971884e-03
-2.215719e-02 -4.577442e-03 2.333608e-03
1.743027e-02 -2.988282e-03 -2.260097e-02
1.633221e-02 -6.200089e-03 -2.135671e-02
3.983483e-03 -5.746848e-03 -2.925560e-02
7.297210e-04 -9.671686e-04 1.734829e-02
1.696428e-02 2.831585e-03 -2.232242e-02
-1.219283e-02 -1.333857e-02 -2.080959e-02
1.021741e-02 -2.177492e-02 1.751724e-03
1.619643e-03 -8.983291e-03 1.660332e-02
-1.142590e-02 2.077843e-02 -8.912198e-03
1.732418e-02 1.269659e-02 -1.595263e-02
-5.667501e-03 1.134886e-02 -2.677729e-02
1.410878e-02 -1.709115e-02 -1.570064e-02
1.137670e-02 -1.265347e-02 -2.245515e-02
-9.826696e-03 2.221331e-02 3.644534e-04
-5.251782e-05 -9.863662e-06 1.846994e-02
8.235810e-04 4.624690e-04 1.678149e-02
-1.108693e-03 2.293497e-02 3.950086e-03
1.541595e-02 9.576226e-03 9.251312e-03
9.228924e-03 5.181203e-03 1.488057e-02
-4.953664e-03 9.696270e-03 1.517089e-02
-3.765370e-03 -1.710346e-02 -2.139743e-02
1.922840e-02 -1.039076e-02 4.617903e-03
-1.580740e-02 -1.446729e-02 4.170067e-03
-1.059358e-02 -1.848449e-02 3.559645e-03
1.044138e-02 8.634883e-03 -2.589766e-02
-1.080408e-02 3.802613e-03 1.523528e-02
-2.980357e-04 6.433247e-04 1.726000e-02
2.135590e-02 -1.588899e-03 4.151465e-03
2.685588e-03 9.218812e-03 1.640060e-02
2.386635e-02 -2.256133e-03 -3.458588e-03
-2.391033e-02 -3.137614e-03 -5.186018e-03
-1.207369e-02 -9.180379e-03 -2.143102e-02
-1.062350e-02 1.868154e-02 -1.847155e-02
-9.969650e-03 -2.384888e-03 1.663305e-02
-4.689009e-03 -2.256541e-02 -1.466319e-02
-5.454187e-04 -1.929776e-02 -2.015956e-02
8.067055e-03 -2.005564e-02 5.353918e-03
-7.539847e-04 3.264952e-04 1.778174e-02
9.172284e-03 5.092938e-03 1.488434e-02
-7.737226e-03 -7.919970e-03 1.588978e-02
-1.487496e-02 1.646237e-02 3.029404e-03
1.661019e-02 -1.572098e-02 1.292332e-03
-3.081456e-03 2.356764e-02 -4.638172e-05
9.590720e-03 -2.762671e-03 1.702202e-02
1.041032e-02 -3.571588e-03 1.700652e-02
7.767206e-03 -6.132948e-03 1.616011e-02
9.133495e-03 9.304126e-04 1.627401e-02
-2.415677e-02 4.685076e-03 -7.909538e-03
2.331861e-04 -4.559505e-04 1.807804e-02
5.043555e-03 8.310681e-03 -2.782543e-02
9.603206e-03 1.311339e-03 1.615585e-02
-8.415912e-03 -7.405430e-03 1.585807e-02
3.452069e-03 1.706078e-02 -2.311434e-02
1.228218e-02 1.782780e-02 -1.584028e-02
-8.032539e-03 5.384956e-03 1.603555e-02
-7.911204e-03 3.576118e-03 1.494557e-02
-2.859461e-03 -9.209408e-03 1.641231e-02
-6.725779e-03 -2.127316e-02 -1.251767e-02
-2.292631e-02 3.036184e-03 -1.345229e-04
1.033916e-04 -1.031370e-04 1.803598e-02
2.289891e-02 3.074377e-03 -7.420767e-05
-1.982650e-02 -7.484384e-03 9.040985e-04
2.155560e-02 -8.214402e-03 8.410044e-04
1.978597e-04 -1.004995e-02 1.610369e-02
-1.150109e-02 1.120724e-03 1.567999e-02
1.107955e-02 9.042404e-04 1.559568e-02
6.968563e-03 -6.290426e-03 1.634582e-02
1.640846e-02 1.184660e-02 4.049432e-03
2.388800e-02 4.527555e-03 -8.587866e-03
2.468499e-03 -9.249734e-03 1.699119e-02
5.388478e-05 1.655131e-04 1.833545e-02
-6.299508e-03 6.027125e-03 1.665555e-02
-9.345521e-03 -3.390327e-05 1.631190e-02
-1.014823e-02 1.623544e-03 1.684240e-02
-3.801077e-03 -2.316634e-03 -2.917215e-02
9.044802e-03 4.159837e-03 1.641377e-02
-6.136376e-04 -9.508779e-03 1.638964e-02
1.399149e-02 -1.163639e-02 9.691643e-03
1.825929e-02 -5.176943e-03 7.529564e-03
2.170817e-03 7.342181e-03 1.625303e-02
1.197293e-02 -1.750914e-02 5.765626e-03
-1.983599e-04 1.369551e-04 1.813842e-02
-1.489122e-02 -9.435731e-03 -2.275106e-02
1.837068e-02 2.415882e-03 9.696079e-03
-1.973747e-03 -1.071365e-02 -2.729865e-02
-1.910862e-02 9.094228e-03 5.070365e-03
-1.884288e-02 2.490394e-03 -2.090750e-02
1.955795e-02 -3.848504e-03 3.997211e-03
2.014932e-02 -7.311249e-03 3.326860e-03
2.035744e-02 4.417116e-03 5.551996e-03
-1.703266e-02 8.421212e-03 -2.108872e-02
-1.234378e-02 9.900772e-03 -2.321811e-02
-3.319105e-04 -1.094758e-03 1.701890e-02
-1.553420e-02 -1.586969e-02 4.853586e-03
-2.602760e-03 -2.335043e-03 -2.952121e-02
-1.557405e-02 4.336025e-03 -2.418474e-02
1.554446e-02 3.686094e-03 -2.362031e-02
6.189391e-03 9.657629e-03 1.438263e-02
1.006617e-02 -2.865463e-03 1.533637e-02
-9.748122e-03 -1.109957e-03 1.572739e-02
-3.730186e-04 9.766026e-03 1.598758e-02
9.847924e-04 -1.932048e-02 -2.013582e-02
-2.287853e-03 2.967788e-03 -2.747982e-02
6.568626e-04 4.991754e-04 1.774691e-02
-7.482119e-03 2.060067e-02 4.711740e-03
-9.098820e-03 2.083156e-02 -1.546668e-02
1.549202e-02 -1.520865e-02 5.172949e-03
-1.548830e-02 -1.533783e-02 3.483257e-03
-9.152801e-03 -2.947389e-03 1.569639e-02
-1.655771e-02 -1.519523e-02 2.832424e-03
3.937814e-03 1.507986e-02 -2.387894e-02
-7.324595e-04 2.355202e-02 -1.630876e-02
4.717378e-03 2.337484e-02 -9.502714e-03
-4.269348e-03 1.192301e-03 -2.979616e-02
-1.220078e-04 9.815411e-05 1.864839e-02
-1.408782e-02 -1.257487e-02 -2.021884e-02
2.574446e-03 8.169150e-03 1.689398e-02
1.824011e-03 1.802904e-02 -2.108202e-02
1.432032e-02 1.686205e-02 5.224564e-03
7.436269e-03 -2.149835e-02 1.231579e-03
-5.567190e-03 -9.048099e-03 1.567828e-02
5.199864e-03 -1.531195e-02 -2.203522e-02
-1.168655e-02 -1.627137e-02 -1.863515e-02
-4.174661e-03 1.982852e-02 -1.975549e-02
3.578994e-03 -8.534894e-03 1.710461e-02
-6.204462e-04 -8.118954e-04 1.855705e-02
-3.204667e-04 -2.893527e-04 1.873547e-02
-5.622933e-03 -7.574687e-04 -2.888875e-02
2.093154e-02 8.833962e-03 1.471760e-03
5.287630e-03 1.672873e-02 -2.428398e-02
-1.795826e-02 -1.019700e-02 4.485267e-03
-2.932395e-03 8.456209e-03 1.650166e-02
-1.364593e-02 -1.737977e-02 -1.580036e-02
-1.789652e-03 9.538697e-03 1.558608e-02
-1.585321e-02 1.657064e-02 -1.230937e-02
1.174392e-04 -2.282598e-02 2.145683e-03
4.440643e-03 -7.580108e-03 1.669629e-02
1.234442e-03 -5.096054e-04 1.837360e-02
1.307854e-02 -1.517149e-02 7.340244e-03
-2.006381e-02 5.949059e-03 -1.712405e-02
2.207191e-02 6.892412e-03 1.916159e-03
1.958953e-02 -1.099127e-02 5.692784e-04
-1.444247e-02 1.067578e-02 -2.101934e-02
-2.126615e-02 -6.895371e-03 3.456076e-03
-7.354184e-03 7.826422e-03 1.604707e-02
-3.685833e-05 -1.656991e-05 -3.109692e-02
-6.796725e-04 5.516199e-04 -2.953787e-02
1.954674e-02 2.413482e-03 -1.952925e-02
2.255728e-05 8.922659e-04 1.861673e-02
-1.954600e-02 2.107306e-03 -1.974445e-02
-1.687954e-02 1.426543e-02 3.522159e-03
-2.191951e-02 1.967994e-03 -1.224049e-02
2.154115e-02 5.573480e-04 -1.499200e-02
1.869411e-03 2.286646e-02 2.366631e-03
-1.121671e-02 -1.863806e-02 4.492135e-03
6.134170e-03 2.056173e-02 3.633635e-03
-1.686860e-02 -3.333992e-03 -2.280841e-02
1.491247e-02 -1.946575e-03 -2.323403e-02
-1.002765e-02 -2.072837e-02 1.264071e-03
-1.200524e-03 3.039518e-04 1.815777e-02
3.515077e-03 -2.024768e-02 5.463555e-03
-2.251007e-02 1.453943e-03 2.717113e-03
-2.618435e-03 -2.161908e-02 7.061822e-03
-7.903293e-03 -1.798013e-02 -1.927821e-02
-1.560436e-02 -9.945719e-04 -2.413893e-02
1.690641e-02 -1.676574e-03 -2.450485e-02
2.138578e-02 2.445938e-03 -1.573609e-02
-2.044268e-02 1.498843e-03 -1.505315e-02
-9.292633e-03 6.786995e-03 1.519964e-02
-1.092337e-03 -1.442935e-02 -2.503249e-02
4.161545e-04 -1.289115e-04 1.839819e-02
-1.867772e-02 -1.235354e-02 -9.138611e-03
-2.175547e-02 -2.745421e-03 3.121807e-03
-2.080547e-02 6.088793e-03 3.825210e-03
1.580130e-02 1.443971e-02 4.538900e-03
-6.006935e-03 -2.103887e-02 5.074882e-03
-8.035013e-03 2.861152e-03 1.647534e-02
-4.671856e-03 -9.236504e-03 1.573757e-02
1.323711e-02 -2.008789e-02 -5.987548e-03
1.263277e-03 -1.025918e-02 1.587993e-02
-2.358662e-03 9.900944e-04 -2.993557e-02
-4.000639e-07 -4.104105e-05 1.844628e-02
-9.769699e-03 1.475839e-02 -2.141200e-02
-2.268166e-02 7.906535e-03 -8.619589e-03
-5.362780e-03 1.925416e-02 4.799726e-03
1.603924e-02 1.318339e-02 -2.013091e-02
-1.354657e-03 1.046843e-02 1.572986e-02
-2.322633e-02 -4.211258e-03 -8.917340e-03
-8.709878e-03 -5.476880e-04 -2.875847e-02
9.033439e-03 -2.152574e-04 -2.869218e-02
-1.388902e-02 -1.762949e-02 3.025511e-03
-1.878406e-02 1.441815e-02 -9.435141e-03
-4.903662e-04 -8.422631e-04 1.794271e-02
-4.304855e-03 -2.042174e-03 -2.906634e-02
-2.083329e-05 2.293776e-02 2.136544e-03
-2.170226e-02 -1.128546e-02 -6.195136e-03
5.468157e-03 -8.574853e-03 1.630285e-02
-2.047652e-02 -9.105234e-03 2.322166e-03
2.036710e-02 -8.595795e-03 5.895159e-04
-6.422545e-04 1.193168e-04 -2.964265e-02
6.074981e-03 1.810850e-02 4.240751e-03
9.818177e-03 2.104755e-03 1.589160e-02
-2.053770e-02 -9.263550e-03 3.222045e-04
9.935861e-04 -6.896785e-04 1.767756e-02
5.597662e-04 -1.092571e-03 -2.957794e-02
4.485601e-03 1.980927e-02 7.834982e-03
-8.484825e-03 -3.829161e-03 1.607336e-02
8.055794e-03 -3.464067e-03 1.663416e-02
-1.837184e-02 8.830651e-03 -1.901318e-02
-1.556110e-03 -6.478927e-03 -2.881489e-02
5.535828e-03 -2.107257e-02 -1.419396e-02
1.259168e-02 1.719004e-02 -1.928936e-02
9.978762e-03 1.679176e-02 5.682877e-03
-4.731178e-03 7.137397e-03 1.642855e-02
6.139587e-05 7.544110e-04 1.797884e-02
1.114810e-02 1.176675e-02 -2.320250e-02
-4.292144e-04 1.642789e-02 -2.281844e-02
2.174095e-02 5.232203e-03 3.338815e-03
-9.497350e-03 1.818569e-02 -1.731118e-02
-1.241421e-02 1.596715e-02 -1.945426e-02
-9.321531e-03 3.858059e-03 1.483577e-02
1.112518e-02 5.063737e-03 -2.634053e-02
3.324043e-03 -2.182433e-02 -1.210824e-02
-1.288789e-02 1.557884e-02 -2.016203e-02
1.954421e-02 1.032533e-02 2.667636e-03
-4.401103e-04 6.463201e-04 1.838022e-02
-1.753596e-02 1.754122e-02 -5.735021e-03
6.945246e-03 2.330747e-02 -6.728392e-04
-2.554294e-03 -5.431041e-03 -2.763826e-02
1.751136e-02 9.435125e-03 -1.870676e-02
7.253848e-03 -5.424192e-03 1.637828e-02
5.638837e-03 1.810610e-03 -3.003959e-02
-1.146241e-02 1.178159e-02 -2.278261e-02
1.423079e-02 -1.428029e-02 -1.848253e-02
-1.790695e-02 -1.492087e-02 -1.240842e-02
-2.527212e-03 8.403685e-03 1.558289e-02
9.977162e-04 -1.356640e-04 1.934279e-02
-4.293411e-04 1.513842e-04 1.848532e-02
6.361138e-04 -2.312953e-02 -1.296465e-02
-3.695491e-03 -7.392677e-03 1.653125e-02
4.079014e-03 2.578160e-03 -2.876446e-02
-8.086914e-03 6.742192e-03 1.580467e-02
-1.801053e-02 -7.088805e-03 -2.026718e-02
-1.264271e-03 -7.693549e-03 1.531354e-02
-2.085751e-02 -9.068164e-03 -1.241333e-02
2.152112e-02 -7.170951e-03 -1.188109e-02
1.732055e-02 7.986562e-03 -2.003347e-02
-7.871341e-04 9.556935e-03 1.620869e-02
6.739551e-05 -1.356106e-04 1.852515e-02
-2.263524e-02 5.351948e-03 -1.283947e-02
6.011012e-03 -2.149951e-02 1.739962e-03
1.981583e-02 -1.516852e-03 -1.989141e-02
1.706028e-02 -8.328903e-03 -2.013198e-02
2.081013e-02 1.060738e-04 4.301991e-03
1.546094e-02 1.670150e-02 3.543122e-03
-1.083515e-02 -1.998912e-02 2.525190e-03
2.009538e-02 1.105389e-02 2.281936e-03
1.814447e-02 -1.244089e-02 3.210154e-03
-2.362321e-02 -2.336385e-03 -7.445996e-03
-1.880274e-04 2.225377e-04 1.900402e-02
1.265094e-03 2.180476e-02 4.008671e-03
-6.657145e-03 -7.563548e-03 1.600869e-02
2.151239e-02 -4.713450e-03 1.905991e-03
-2.265164e-02 -5.787867e-03 2.900071e-03
-2.340120e-02 5.436493e-03 -6.768591e-03
-1.915029e-02 8.516345e-03 5.477552e-03
-5.367254e-03 -6.688708e-03 1.695467e-02
-2.051001e-02 -1.015872e-02 -1.260243e-02
1.790614e-02 -6.082908e-04 7.593211e-03
-1.916090e-02 -1.355496e-04 8.610966e-03
6.215624e-05 -5.386983e-06 1.860609e-02
-1.997896e-03 -2.213837e-02 3.672582e-03
2.123243e-03 2.854089e-03 -2.819427e-02
2.101545e-02 3.966718e-03 5.079705e-03
-2.079417e-02 4.113931e-03 5.314118e-03
-1.814159e-02 1.215837e-03 -2.036692e-02
2.756589e-03 1.752391e-03 -2.933964e-02
6.987048e-03 2.119551e-03 -2.880640e-02
1.159069e-02 2.092833e-02 -8.210156e-03
1.716506e-02 -5.699808e-03 9.225021e-03
-1.701416e-02 -4.461057e-03 1.008762e-02
4.696942e-05 2.319848e-05 1.829564e-02
-1.916479e-02 1.388203e-02 -8.616228e-03
-6.951599e-03 7.547988e-03 1.588063e-02
-1.693367e-02 1.017888e-02 -2.092334e-02
1.749780e-03 -2.130036e-02 5.442824e-03
5.899726e-03 -2.190684e-02 1.420495e-03
-1.433706e-02 1.864833e-02 -6.001631e-03
9.276746e-03 1.978924e-04 1.663361e-02
-9.733885e-03 3.555623e-04 1.640747e-02
4.623148e-03 8.634979e-03 1.569209e-02
-1.818076e-02 -9.115697e-03 -1.870607e-02
-3.153490e-04 -2.340898e-04 1.846659e-02
1.550798e-02 -1.561080e-02 3.358086e-03
1.957941e-02 -9.519932e-03 2.385786e-03
2.017327e-02 -4.067830e-03 4.336310e-03
1.281351e-04 -1.833972e-02 9.888071e-03
1.986266e-02 -1.177174e-02 -6.038253e-03
1.334574e-03 2.057703e-02 5.397131e-03
3.805928e-03 -1.302946e-02 -2.528379e-02
-3.664467e-03 -8.152545e-03 1.672124e-02
-1.690220e-02 7.987272e-03 9.111971e-03
2.261476e-02 -6.965059e-04 -5.237884e-03
4.367826e-04 -1.416194e-04 1.831310e-02
2.149147e-02 5.411719e-03 4.190146e-03
2.100724e-03 -8.077147e-03 1.702344e-02
-7.068676e-03 -4.310816e-03 1.743017e-02
-5.660100e-03 6.307336e-03 1.620872e-02
1.925270e-03 6.039324e-03 1.580953e-02
2.232750e-02 8.242424e-03 -4.955490e-03
1.398708e-04 -1.977197e-02 7.556898e-03
7.141969e-03 -3.867957e-03 1.742173e-02
6.392994e-03 -7.221485e-03 1.565666e-02
1.757514e-02 5.162237e-03 -1.905392e-02
-6.609772e-07 3.187359e-04 1.827096e-02
7.829597e-03 3.333122e-03 1.674286e-02
9.133591e-03 1.470440e-03 1.610502e-02
-9.104876e-03 1.503283e-03 1.626588e-02
-4.160824e-03 2.134333e-02 4.203055e-03
-2.130984e-02 1.866397e-03 4.090557e-03
-1.235465e-02 -2.064261e-02 -1.078042e-02
-8.133394e-03 -1.974029e-02 4.724745e-03
8.205343e-03 5.415113e-03 1.616688e-02
1.583467e-02 1.571365e-02 -1.465401e-02
1.676523e-02 1.364203e-02 4.264595e-03
-1.169683e-04 -6.313500e-04 1.802954e-02
1.686675e-02 -1.347330e-02 4.824200e-03
1.700654e-02 -8.628271e-03 9.696169e-03
-7.587583e-03 5.291375e-03 1.616013e-02
2.059453e-02 -8.392627e-03 -1.092617e-02
-8.820944e-03 -3.297080e-03 1.561777e-02
1.077476e-02 -2.134072e-02 -1.003489e-02
1.509105e-02 -1.996949e-02 -3.608302e-03
1.776736e-02 1.055938e-02 6.100803e-03
1.649145e-02 1.189047e-02 6.575550e-03
-2.001081e-02 -7.439302e-03 4.703481e-03
4.298466e-05 5.519108e-05 1.832395e-02
1.685510e-02 6.797950e-03 -1.961336e-02
3.591162e-03 -2.078051e-02 4.498567e-03
5.452820e-03 -7.755180e-03 1.648976e-02
-6.490589e-03 -2.121717e-02 3.558454e-03
1.395811e-02 1.601292e-02 5.551798e-03
-1.886736e-02 -1.186208e-02 3.851763e-04
5.691262e-04 -1.128517e-03 -2.926099e-02
5.799874e-03 8.704194e-03 1.603857e-02
-5.894234e-03 2.125462e-02 3.899631e-03
1.833901e-02 -1.321119e-02 2.717324e-03
7.085859e-05 8.112022e-04 1.864333e-02
1.592427e-04 5.810107e-05 1.867210e-02
-9.337071e-03 -2.189202e-02 -6.492007e-03
-9.237222e-03 2.212920e-03 1.650929e-02
1.138245e-03 2.359431e-03 -2.974841e-02
-1.865692e-02 -5.075626e-03 -2.059715e-02
-2.140787e-02 -6.837331e-03 6.541041e-04
1.101900e-02 1.524922e-02 6.881152e-03
-3.326369e-04 2.441392e-03 -2.983434e-02
-1.047725e-02 2.173246e-02 -5.134960e-03
3.513247e-03 -8.301826e-03 1.632787e-02
-1.175711e-03 -7.613438e-03 -2.671934e-02
-4.255591e-04 5.150287e-04 1.906830e-02
-1.079609e-02 -5.476202e-03 -2.658294e-02
8.437310e-03 -1.580129e-02 1.009947e-02
-1.039917e-02 1.929737e-02 5.251724e-03
1.576774e-02 -8.393345e-03 -2.243849e-02
-2.555183e-03 2.026364e-02 -1.893275e-02
2.678618e-03 -3.686626e-04 -2.905474e-02
6.743433e-03 -4.529036e-03 1.678647e-02
-2.070668e-02 1.025706e-02 5.858636e-05
-1.041629e-02 -1.140230e-02 -2.386001e-02
-8.820327e-03 -1.950523e-02 4.735362e-03
-1.602415e-04 1.692651e-04 1.824717e-02
-3.397211e-03 -7.094005e-03 -2.879404e-02
8.255080e-03 1.711073e-02 -1.968036e-02
1.856881e-02 -1.126635e-02 1.293424e-03
-2.314203e-02 -1.059137e-03 -1.166304e-02
-1.257448e-02 -2.009656e-02 -8.050083e-03
-1.082776e-03 9.777164e-04 -2.961630e-02
4.453072e-03 2.804559e-03 -2.942413e-02
-2.272204e-02 5.015511e-03 -1.061841e-02
-1.972812e-02 -1.267599e-02 -8.401210e-03
1.209455e-03 -8.551243e-03 1.664947e-02
-5.421135e-04 1.754286e-04 1.898100e-02
-4.973121e-03 -2.111204e-02 4.771836e-03
-2.819365e-03 1.860689e-02 8.904516e-03
-5.196570e-03 -8.634702e-03 1.659150e-02
4.767660e-04 -1.150649e-03 -2.955004e-02
-1.832006e-02 -1.699877e-03 -2.090418e-02
-9.240397e-03 2.468369e-03 1.577175e-02
-1.156814e-02 1.517992e-02 -1.928982e-02
-7.733129e-03 -2.320727e-02 -5.444195e-03
-1.816719e-02 4.724760e-03 -2.126339e-02
-1.069362e-02 2.179494e-02 -4.341016e-03
-6.909630e-04 -1.455275e-04 1.847101e-02
5.537347e-03 -5.880878e-03 1.689932e-02
-1.766449e-02 9.279221e-03 -1.958299e-02