# vtk DataFile Version 2.0
Electric current density generated by TTH
ASCII
DATASET UNSTRUCTURED_GRID
POINTS 2091 double
-1.404693e-05 -1.387151e-05 -4.622888e-22
-1.664578e-05 -1.017101e-05 9.111570e-07
7.608123e-06 1.631370e-05 -1.881759e-06
1.734750e-05 -7.962618e-07 1.823124e-06
1.734750e-05 7.962618e-07 -1.823124e-06
1.538520e-06 -1.946663e-05 8.736625e-07
1.834594e-05 8.492210e-07 1.816860e-06
1.834027e-05 -8.316290e-07 -1.818667e-06
-1.578532e-05 -1.039515e-05 -1.570816e-06
-1.655916e-05 -7.296489e-07 1.387969e-06
8.632115e-06 -1.627854e-05 1.798876e-06
-1.333222e-05 -1.455977e-05 -4.622888e-22
-1.082183e-05 -1.619709e-05 9.594149e-07
-7.813208e-06 -1.655621e-05 1.832282e-06
-1.504510e-05 -7.858244e-06 1.669442e-06
-1.359209e-05 1.406732e-05 -8.058234e-07
-1.543389e-05 4.157722e-06 -2.547543e-07
-1.315369e-05 -1.056610e-05 1.611654e-06
-1.506622e-05 6.620396e-06 1.268468e-06
-1.192046e-05 1.457349e-05 -1.617023e-06
8.531282e-06 -1.450244e-05 -1.582534e-06
8.587982e-06 1.442933e-05 1.559881e-06
-1.258384e-05 -1.521125e-05 -4.622888e-22
4.236889e-06 1.560770e-05 8.568886e-07
-1.931232e-05 -3.012696e-06 -8.371443e-07
-1.581677e-05 -7.372881e-06 -1.843804e-06
6.137531e-06 1.705958e-05 -1.867181e-06
-1.599369e-05 6.526095e-06 1.795997e-06
1.375439e-05 8.849884e-06 1.147263e-06
1.375439e-05 -8.849884e-06 -1.147263e-06
1.140485e-06 -1.626716e-05 1.081044e-06
-1.564342e-05 9.988951e-06 1.750294e-06
1.758214e-05 6.389467e-06 1.683760e-06
-1.180367e-05 -1.582430e-05 -4.622888e-22
1.758214e-05 -6.389467e-06 -1.683760e-06
-1.580343e-05 -3.600210e-06 9.237321e-07
1.833108e-05 -4.489483e-06 1.589008e-06
1.833171e-05 4.493253e-06 -1.588041e-06
1.341618e-05 1.172012e-05 1.887017e-06
1.341618e-05 -1.172012e-05 -1.887017e-06
-6.640182e-06 -1.736466e-05 -1.737734e-06
-1.837029e-05 -6.744392e-06 -7.882802e-07
-1.579455e-05 5.080014e-06 1.402694e-06
8.501058e-06 1.757706e-05 -8.783447e-07
-1.099368e-05 -1.639738e-05 -4.622888e-22
9.535762e-06 1.585038e-05 1.774375e-06
-1.095887e-05 1.317493e-05 -1.745824e-06
-1.465557e-05 -6.959113e-06 -9.509564e-07
-1.028882e-05 1.542056e-05 -1.759286e-06
8.668570e-06 1.637059e-05 -1.764602e-06
7.807128e-06 -1.422342e-05 9.531675e-07
-1.427833e-05 1.189931e-05 -1.739543e-06
1.639249e-05 1.069428e-05 -7.811715e-07
1.636496e-05 -1.070247e-05 8.207868e-07
1.039490e-05 -1.346524e-05 -1.688473e-06
-1.015592e-05 -1.692904e-05 -4.622888e-22
1.039490e-05 1.346524e-05 1.688473e-06
1.053363e-05 -1.643407e-05 -8.872999e-07
9.070604e-06 -1.325857e-05 -5.990427e-07
9.100324e-06 1.326296e-05 6.568997e-07
1.463655e-05 -1.131384e-05 -1.773723e-06
1.463676e-05 1.131329e-05 1.773787e-06
-1.695152e-05 -2.210885e-06 1.728023e-06
-1.088443e-05 1.287144e-05 1.602208e-06
-4.757071e-06 1.776536e-05 1.809442e-06
1.308190e-07 -1.600791e-05 -3.941445e-07
-9.292500e-06 -1.741794e-05 -4.622888e-22
5.226879e-06 -1.749165e-05 -1.844209e-06
-1.443707e-05 -1.319518e-05 -8.108175e-07
-1.601206e-05 -8.450538e-07 5.002720e-07
-1.931773e-05 -3.046731e-06 8.153538e-07
-6.025049e-06 1.574412e-05 1.602829e-06
-8.832827e-07 -1.950658e-05 -8.751294e-07
-1.609947e-07 -1.685413e-05 -1.601146e-06
-9.214824e-06 1.598749e-05 1.789959e-06
1.094018e-05 1.187819e-05 -8.082614e-07
1.094018e-05 -1.187819e-05 8.082614e-07
-8.405611e-06 -1.786283e-05 -4.622888e-22
1.597160e-05 -9.542860e-06 1.731568e-06
1.597160e-05 9.542860e-06 -1.731568e-06
-1.173419e-05 -1.099003e-05 6.355844e-07
-4.107813e-06 -1.688026e-05 -1.825018e-06
-7.825516e-06 -1.421857e-05 -9.609923e-07
1.941333e-05 2.101690e-06 8.747546e-07
1.940940e-05 -2.288990e-06 -8.411652e-07
9.236691e-06 -1.726363e-05 -7.659333e-07
9.195414e-06 1.728565e-05 7.659333e-07
1.415383e-05 7.420464e-06 2.312853e-07
-7.497488e-06 -1.826260e-05 -4.622888e-22
1.415383e-05 -7.420464e-06 -2.312853e-07
-1.948332e-05 1.965302e-06 -7.594263e-07
-1.493010e-05 1.267061e-05 7.599894e-07
6.229915e-06 -1.749792e-05 -1.744873e-06
-1.426953e-05 -8.080382e-06 1.201359e-06
5.438936e-06 -1.594858e-05 -1.598391e-06
-1.812230e-05 4.002871e-06 -1.750889e-06
5.409370e-06 1.878525e-05 8.317145e-07
-8.874082e-06 1.743248e-05 8.054869e-07
3.547263e-06 1.639657e-05 -1.549040e-06
-6.570426e-06 -1.861624e-05 -4.622888e-22
4.306215e-06 -1.809514e-05 1.733667e-06
-1.228153e-05 -1.032543e-05 5.384340e-07
2.729970e-06 1.937702e-05 -7.900813e-07
-1.056694e-06 -1.594088e-05 1.843835e-07
-6.814261e-06 1.703680e-05 -1.821440e-06
3.240416e-06 -1.925270e-05 8.809842e-07
3.002625e-06 1.569152e-05 1.879606e-07
-1.518581e-05 -5.229126e-06 5.884176e-07
-9.655642e-06 1.273437e-05 2.316138e-07
1.501538e-05 1.251395e-05 8.362000e-07
-5.626767e-06 -1.892286e-05 -4.622888e-22
1.506587e-05 -1.246673e-05 -8.184058e-07
-1.765365e-05 5.894512e-06 1.728778e-06
7.060940e-07 1.839528e-05 1.804131e-06
8.960580e-06 -1.504626e-05 1.856206e-06
9.024278e-06 1.501148e-05 -1.856730e-06
-1.749991e-05 -8.716280e-06 8.278730e-07
9.357122e-07 1.675132e-05 1.550110e-06
-1.363783e-05 -9.910568e-06 -1.603405e-06
1.266990e-05 1.037167e-05 1.170608e-06
1.266990e-05 -1.037167e-05 -1.170608e-06
-4.668894e-06 -1.918167e-05 -4.622888e-22
-1.495389e-05 -6.158018e-06 -8.561818e-07
-1.719870e-05 -6.765694e-06 -1.780130e-06
-8.846370e-06 -1.455494e-05 -1.699129e-06
-1.270044e-05 -1.143736e-05 1.726374e-06
-4.905172e-06 1.892360e-05 -8.308584e-07
1.713228e-05 -2.170678e-06 1.794483e-06
1.713228e-05 2.170678e-06 -1.794483e-06
6.323602e-06 1.605942e-05 1.791300e-06
-1.413136e-05 -1.351752e-05 8.174012e-07
-1.666889e-05 6.157402e-06 -1.885545e-06
-3.699227e-06 -1.939203e-05 -4.622888e-22
-1.492844e-05 8.582786e-06 1.777612e-06
-4.356934e-06 -1.720866e-05 1.884645e-06
1.310463e-06 1.876980e-05 -1.624337e-06
-1.762638e-05 8.524932e-06 7.651021e-07
-6.113261e-06 -1.858682e-05 7.944905e-07
1.926466e-05 -3.430606e-06 7.914923e-07
1.926911e-05 3.470475e-06 -7.663202e-07
-1.529244e-05 -4.670138e-06 -2.926080e-07
7.639560e-06 -1.621276e-05 1.886203e-06
-1.769340e-05 -4.507528e-06 -1.843635e-06
-2.720216e-06 -1.955340e-05 -4.622888e-22
2.770813e-06 -1.819641e-05 1.804947e-06
-1.842235e-05 -6.531847e-06 8.368431e-07
-1.381772e-05 9.595407e-06 1.580553e-06
-1.003600e-05 1.292132e-05 -1.154344e-06
-1.196786e-05 1.545216e-05 8.393788e-07
1.674752e-05 -7.931703e-06 1.762015e-06
1.674752e-05 7.931703e-06 -1.762015e-06
-4.006483e-06 -1.548365e-05 3.167384e-07
-1.658095e-05 8.871565e-06 1.630429e-06
-1.992331e-07 1.693897e-05 -1.651299e-06
-1.734333e-06 -1.966538e-05 -4.622888e-22
-1.372583e-05 8.387493e-06 6.591076e-07
-8.664171e-06 1.705101e-05 -1.394659e-06
4.225942e-06 1.806627e-05 -1.752962e-06
-1.181318e-05 1.116201e-05 9.982705e-07
-1.375075e-05 1.265600e-05 -1.693101e-06
-3.169551e-06 1.717301e-05 -1.846447e-06
1.598839e-05 2.732210e-06 9.445050e-07
1.598839e-05 -2.732210e-06 -9.445050e-07
1.600802e-05 8.774578e-07 4.918681e-07
1.601201e-05 -7.900914e-07 -4.897707e-07
-7.440686e-07 -1.972768e-05 -4.622888e-22
4.811642e-06 -1.669214e-05 -1.824731e-06
-4.272202e-06 -1.909686e-05 7.889749e-07
2.712828e-06 1.776809e-05 1.883636e-06
-9.526524e-06 1.586901e-05 -1.770269e-06
-5.682508e-06 -1.585426e-05 -1.592941e-06
6.933702e-07 1.740021e-05 -1.835374e-06
-1.719063e-06 -1.616413e-05 -1.002822e-06
-2.046243e-06 1.774726e-05 1.887408e-06
4.959041e-06 -1.663252e-05 1.820496e-06
-1.392289e-05 -9.129374e-06 1.452571e-06
2.480751e-07 -1.974015e-05 -4.622888e-22
-8.260158e-06 -1.770261e-05 8.590084e-07
6.873683e-06 1.518732e-05 1.469988e-06
7.003531e-06 -1.515829e-05 -1.491795e-06
-1.877819e-05 5.407521e-06 -8.464054e-07
-2.034258e-06 1.849224e-05 -1.732232e-06
-1.787638e-05 -5.679245e-06 1.657648e-06
-3.117171e-07 1.862945e-05 -1.719730e-06
-3.086834e-06 1.579770e-05 6.873813e-07
-9.619738e-06 -1.706604e-05 7.401454e-07
3.996256e-06 1.572327e-05 -9.496930e-07
1.239592e-06 -1.970275e-05 -4.622888e-22
-5.243622e-06 1.885282e-05 7.899247e-07
1.081970e-05 -1.324949e-05 1.732770e-06
1.081970e-05 1.324949e-05 -1.732770e-06
-1.330886e-05 1.431164e-05 8.419599e-07
-7.367034e-06 -1.491558e-05 1.441385e-06
1.856383e-05 -6.290732e-06 -7.157280e-07
1.856383e-05 6.290732e-06 7.157280e-07
3.218780e-06 -1.566422e-05 3.042087e-07
1.757362e-05 -3.764328e-06 -1.883745e-06
1.757362e-05 3.764328e-06 1.883745e-06
2.227978e-06 -1.961558e-05 -4.622888e-22
1.829034e-05 -2.562597e-06 -1.784529e-06
1.829034e-05 2.562597e-06 1.784529e-06
-1.423848e-05 -8.468001e-06 -1.379663e-06
1.005121e-06 1.952411e-05 8.288889e-07
5.686828e-06 -1.872053e-05 -7.968938e-07
-6.763311e-06 1.537453e-05 -1.563103e-06
-1.526274e-05 5.222894e-06 7.713411e-07
-1.847936e-05 2.903330e-06 -1.684311e-06
-1.898451e-05 -4.874394e-06 -7.168289e-07
-7.246816e-06 1.561044e-05 1.774264e-06
3.210736e-06 -1.947887e-05 -4.622888e-22
1.439227e-05 -8.667807e-06 1.566111e-06
1.439227e-05 8.667807e-06 -1.566111e-06
-9.195578e-07 1.758076e-05 -1.870877e-06
-1.727984e-05 7.382390e-06 1.638723e-06
1.707451e-05 -1.624452e-06 -1.751768e-06
1.707548e-05 1.637132e-06 1.752636e-06
-2.705382e-06 1.642710e-05 1.451987e-06
1.002272e-05 1.683099e-05 -7.432389e-07
1.002272e-05 -1.683099e-05 7.432389e-07
1.610022e-05 1.109620e-05 8.214349e-07
4.185383e-06 -1.929294e-05 -4.622888e-22
1.604773e-05 -1.116791e-05 -8.262200e-07
7.812204e-06 1.552030e-05 1.825721e-06
7.841953e-06 -1.560699e-05 -1.847149e-06
1.403823e-05 -1.363267e-05 7.900892e-07
1.410590e-05 1.358588e-05 -7.541488e-07
-3.766256e-06 1.833854e-05 -1.676514e-06
1.620932e-06 -1.889986e-05 1.522908e-06
-1.361783e-05 1.026991e-05 -1.710442e-06
4.514585e-06 -1.825485e-05 -1.630612e-06
5.387861e-06 1.754917e-05 1.819081e-06
5.149457e-06 -1.905828e-05 -4.622888e-22
-1.150988e-05 -1.484857e-05 1.640776e-06
-8.692241e-06 1.349988e-05 -5.739257e-07
-5.948978e-06 -1.489629e-05 5.213142e-07
-7.938822e-06 1.658646e-05 -1.810266e-06
-1.879272e-05 2.597745e-06 1.521320e-06
-1.776180e-05 6.640630e-07 1.885739e-06
-1.151485e-05 -1.581106e-05 8.086941e-07
7.732775e-06 -1.481906e-05 1.505023e-06
6.355832e-06 1.754748e-05 1.705356e-06
6.624280e-06 -1.668994e-05 -1.884668e-06
6.100523e-06 -1.877548e-05 -4.622888e-22
[...]
POINT_DATA 2091
VECTORS 10.000GHz_fone_imag double
-2.322549e+10 2.404911e+10 8.525493e+08
-1.900601e+10 3.010820e+10 -2.111071e+08
4.135804e+10 -1.922942e+10 2.645085e+08
-3.152316e+09 -4.921472e+10 2.229397e+08
3.144481e+09 -4.271852e+10 1.157970e+07
-3.264217e+10 -3.680078e+09 -1.093927e+09
1.592882e+09 -4.249590e+10 5.263646e+08
-3.541634e+09 -3.728614e+10 1.187245e+08
-1.697232e+10 2.921151e+10 -2.266547e+09
-4.532075e+09 5.042557e+10 2.473096e+09
-3.401147e+10 -1.754562e+10 7.203531e+06
-1.776306e+10 1.545170e+10 7.302790e+08
-3.147361e+10 2.013735e+10 -1.196000e+09
-4.621506e+10 1.872157e+10 -1.073247e+09
-1.870416e+10 3.707891e+10 -1.002665e+09
1.922047e+10 1.899977e+10 8.774244e+07
1.536927e+10 5.933153e+10 1.390303e+09
-2.495989e+10 3.501800e+10 -2.808159e+09
2.783891e+10 5.469191e+10 -2.221839e+09
2.943365e+10 2.257913e+10 5.945670e+08
-4.518620e+10 -3.071636e+10 -1.433737e+09
3.531630e+10 -2.204347e+10 -4.609602e+08
-1.957527e+10 1.575885e+10 -6.051272e+08
4.332465e+10 -1.188771e+10 1.981738e+08
-5.917011e+09 3.312624e+10 1.541172e+09
-2.032063e+10 4.389173e+10 -5.647710e+08
3.935057e+10 -1.692367e+10 -9.051757e+07
2.039866e+10 5.168997e+10 -2.322883e+08
1.971297e+10 -3.200779e+10 -4.747865e+08
-2.058678e+10 -3.749802e+10 -1.524371e+09
-5.749021e+10 -6.101056e+09 1.931072e+09
2.007403e+10 3.395987e+10 8.336342e+08
9.289127e+09 -3.674059e+10 1.812263e+09
-1.924091e+10 1.590880e+10 1.035167e+09
-1.349143e+10 -3.423815e+10 -8.960885e+08
-1.656830e+10 6.630762e+10 2.501182e+09
-8.545940e+09 -3.700988e+10 7.101238e+08
9.108351e+09 -3.601359e+10 1.460398e+09
3.312827e+10 -3.864901e+10 -2.500969e+08
-3.311647e+10 -3.855249e+10 -2.510468e+08
-3.521180e+10 1.366612e+10 1.465929e+09
-1.111016e+10 3.009727e+10 -4.814773e+08
1.356241e+10 3.902426e+10 8.600024e+08
2.524025e+10 -1.353801e+10 -8.226072e+08
-2.858328e+10 1.959198e+10 -8.047979e+08
3.837270e+10 -1.662320e+10 -1.662129e+09
4.180707e+10 3.233914e+10 8.433647e+08
-1.921651e+10 4.299676e+10 6.287601e+08
2.613980e+10 1.751103e+10 -1.306057e+08
3.023044e+10 -1.588021e+10 -1.070068e+09
-5.218630e+10 -2.809245e+10 4.221973e+08
2.109664e+10 2.399728e+10 -4.160413e+08
1.328591e+10 -2.222271e+10 1.819588e+09
-1.243556e+10 -1.914983e+10 -1.149408e+09
-4.261405e+10 -2.940205e+10 1.220477e+09
-2.708458e+10 1.498202e+10 -7.524824e+08
3.585564e+10 -2.920642e+10 -2.768027e+08
-2.009502e+10 -1.499201e+10 5.856448e+08
-4.854275e+10 -3.130589e+10 4.318953e+08
3.417402e+10 -2.275566e+10 -1.142138e+09
-2.358086e+10 -3.244283e+10 -5.604826e+08
1.946322e+10 -2.445060e+10 -4.251059e+08
-7.951331e+09 4.741789e+10 1.399080e+09
3.143485e+10 3.167624e+10 -6.130905e+08
4.390312e+10 1.148234e+10 -9.357693e+08
-6.191580e+10 1.128055e+09 5.920282e+09
-2.514776e+10 1.349951e+10 2.786112e+08
-3.515658e+10 -1.082360e+10 2.773364e+09
-1.918677e+10 1.971714e+10 1.457134e+08
-4.768853e+08 5.286323e+10 -3.144644e+09
-4.098862e+09 2.605918e+10 -1.263527e+09
4.831204e+10 1.642347e+10 1.486389e+09
-3.016580e+10 4.089476e+09 -3.710485e+09
-4.682001e+10 1.118545e+08 1.034445e+09
3.567125e+10 1.888885e+10 -3.647922e+08
3.534716e+10 -3.560802e+10 -2.288320e+08
-4.445318e+10 -4.232091e+10 -1.483906e+09
-2.825535e+10 1.348630e+10 4.139315e+08
-1.710662e+10 -2.386473e+10 1.832072e+09
1.410766e+10 -2.268759e+10 -1.576699e+09
-3.798709e+10 4.143096e+10 1.540942e+09
-3.693499e+10 8.512039e+09 -1.189439e+08
-4.395216e+10 2.626896e+10 2.828201e+09
3.469749e+09 -2.654508e+10 -7.565921e+08
-1.140054e+09 -2.764252e+10 2.906570e+09
-3.061300e+10 -1.664184e+10 3.470368e+07
2.777547e+10 -1.412665e+10 -1.449992e+08
2.629009e+10 -4.853007e+10 4.297635e+09
-2.929552e+10 1.222332e+10 -2.195142e+09
-2.516814e+10 -5.483519e+10 -6.630975e+09
3.995206e+09 2.887075e+10 1.756366e+09
1.472680e+10 1.907294e+10 -3.190915e+08
-3.696131e+10 -1.218714e+10 -6.223110e+08
-1.866204e+10 3.858325e+10 -2.540687e+09
-4.297947e+10 -1.474795e+10 1.811337e+09
5.493082e+09 2.970897e+10 1.465483e+09
3.554555e+10 -1.058606e+10 6.340318e+08
2.573911e+10 1.147210e+10 9.452481e+08
4.469271e+10 -1.151276e+10 -1.674312e+08
-3.146017e+10 1.145843e+10 3.768506e+09
-3.249293e+10 -7.428059e+09 7.786637e+08
-4.662310e+10 5.136705e+10 1.877632e+09
2.944861e+10 -3.427858e+09 2.386742e+09
-6.221588e+10 3.390767e+09 -2.061369e+09
3.483226e+10 1.708101e+10 5.896249e+08
-2.802653e+10 -4.902230e+09 5.496287e+08
6.621266e+10 -1.208541e+10 -1.849823e+08
-2.051326e+10 5.477960e+10 -3.065364e+09
4.632191e+10 3.154261e+10 3.484785e+08
1.662973e+10 -2.309318e+10 -8.589380e+08
-3.123627e+10 7.987669e+09 -3.569748e+09
-1.853588e+10 -2.462128e+10 1.135534e+09
9.790009e+09 2.781821e+10 1.311068e+09
4.496653e+10 -4.018523e+08 -5.860078e+08
-2.779912e+10 -1.778339e+10 1.315733e+09
4.033929e+10 -2.781478e+10 2.331392e+07
-1.221301e+10 2.547116e+10 1.103045e+09
4.113554e+10 1.108320e+08 4.243785e+08
-3.457611e+10 5.007738e+10 -6.827884e+08
3.980748e+10 -4.717502e+10 3.076911e+09
-3.990104e+10 -4.900939e+10 1.724173e+09
-2.448089e+10 5.667943e+09 8.999332e+08
-1.965468e+10 4.374381e+10 -1.577943e+09
-1.139474e+10 2.400384e+10 -8.418412e+08
-3.419530e+10 2.155133e+10 -6.465246e+08
-3.111187e+10 3.023697e+10 4.492579e+08
3.187561e+10 9.101290e+09 7.172155e+08
-3.505892e+09 -5.238420e+10 4.642829e+08
7.542022e+09 -4.240927e+10 -7.215592e+08
5.594280e+10 -2.592724e+10 -5.859827e+08
-2.378210e+10 2.628222e+10 1.504284e+09
1.304913e+10 4.287382e+10 3.988088e+08
-2.283861e+10 4.986346e+09 1.675584e+09
1.550938e+10 2.780745e+10 1.678747e+09
-3.894138e+10 1.212001e+10 2.051989e+09
3.045542e+10 -4.549314e+08 8.577710e+08
9.929007e+09 2.252653e+10 6.066980e+08
-2.523383e+10 7.755910e+09 -1.675835e+08
-5.353690e+09 -2.861482e+10 5.188657e+08
4.384808e+09 -3.075893e+10 -2.077322e+09
-1.393749e+10 5.689518e+10 4.192226e+09
-3.277885e+10 -1.488342e+10 -4.748897e+08
-1.352302e+10 3.543852e+10 -2.963100e+08
-3.300591e+10 4.803163e+09 6.995700e+08
-3.263521e+10 -5.523944e+09 -1.362713e+09
-8.417338e+09 2.466010e+10 -2.798616e+08
2.674032e+10 3.740424e+10 -5.761424e+08
5.400818e+10 3.895659e+10 2.877868e+09
1.558711e+10 1.266139e+10 6.842517e+08
-1.626094e+10 -3.136784e+10 -9.741877e+07
1.893294e+10 -3.537049e+10 -1.079900e+09
-5.388573e+10 1.529751e+10 1.151036e+09
1.843038e+10 3.411135e+10 7.876810e+07
4.354982e+10 2.267874e+09 -8.165585e+08
-2.411795e+10 1.207501e+09 -7.632354e+08
2.937332e+10 5.117110e+10 2.981521e+09
2.509333e+10 1.122603e+10 -3.614356e+07
3.519353e+10 -6.651482e+09 3.563332e+08
3.944430e+10 4.367790e+10 1.644335e+09
2.189519e+10 2.437418e+10 2.537894e+08
3.942885e+10 7.969562e+08 1.116670e+09
1.268273e+10 -6.127691e+10 3.625006e+09
-7.126883e+09 -4.657524e+10 -5.222022e+08
3.601665e+09 -4.647777e+10 -3.905459e+09
-3.879027e+09 -6.029600e+10 2.768650e+09
-2.587146e+10 1.267894e+09 -2.846332e+08
-4.006234e+10 -1.094381e+10 -5.462063e+08
-3.045016e+10 8.258789e+09 2.923083e+09
4.346843e+10 -8.438271e+09 1.043854e+07
3.607137e+10 2.431777e+10 7.870654e+08
-4.440385e+10 1.957131e+10 1.845646e+09
4.991859e+10 -1.850929e+09 1.858250e+08
-4.737437e+10 2.587059e+09 -3.607819e+09
3.325547e+10 2.711209e+09 -3.032079e+08
-4.444592e+10 -1.492589e+10 4.238884e+08
-3.198707e+10 4.335070e+10 3.464490e+09
-3.370057e+10 4.400466e+08 -2.265104e+09
-2.564041e+10 1.186927e+10 7.833480e+08
3.945616e+10 -1.775261e+10 -1.712500e+09
-4.285891e+10 -1.848194e+10 4.780132e+08
9.021739e+09 3.074560e+10 4.867296e+08
3.710079e+10 3.673327e+09 7.939912e+08
-1.103174e+10 3.821587e+10 1.213593e+08
2.860558e+10 -7.558263e+08 -1.519835e+09
4.917555e+10 9.734302e+09 -6.620160e+08
-2.389871e+10 1.438443e+10 8.144518e+08
5.852450e+10 -1.583916e+10 3.424752e+08
-3.049465e+10 -2.930059e+09 1.457907e+09
2.445163e+10 4.707520e+09 5.960114e+08
-4.045140e+10 -2.764673e+10 -2.004917e+09
3.771880e+10 -2.734067e+10 -2.490342e+09
2.296005e+10 2.156970e+10 6.584758e+08
-4.209029e+10 1.745072e+10 -4.800086e+08
-8.858592e+09 -2.603318e+10 -1.329321e+09
9.276187e+09 -2.527326e+10 -1.001807e+09
-5.143059e+10 -1.243891e+10 -2.509187e+09
-7.438214e+09 -4.433960e+10 -6.555124e+08
8.521308e+09 -4.378311e+10 -2.404060e+09
-2.575868e+10 -3.528354e+09 -1.969880e+09
-6.491635e+09 -3.406876e+10 -1.838739e+09
6.811650e+09 -4.635092e+10 -6.559856e+08
-2.681042e+10 4.470818e+10 -2.839057e+09
3.302088e+10 -1.196376e+09 8.981365e+08
-2.443627e+10 -5.704735e+09 -1.310822e+09
3.996547e+10 2.184293e+10 -3.277879e+09
1.373790e+10 4.430897e+10 1.108277e+09
2.724067e+09 3.641109e+10 5.387264e+08
-7.430215e+09 3.023833e+10 -3.123510e+09
4.770937e+10 2.238665e+10 -6.546836e+08
-2.350692e+10 -3.619613e+09 1.291923e+09
-2.931436e+10 -5.214496e+10 1.955007e+09
3.384110e+10 -5.279390e+10 -2.573282e+08
4.860233e+10 3.469348e+09 -2.234012e+08
1.442631e+10 3.065412e+10 -2.546597e+09
-4.937347e+08 -3.785765e+10 1.456579e+08
2.754506e+09 -4.221462e+10 -1.670188e+09
6.538257e+10 8.462508e+09 -1.204145e+09
2.787139e+10 -1.713064e+10 -9.674892e+08
-1.990407e+10 -1.350274e+10 3.183540e+08
1.223622e+10 -1.600763e+10 -3.540881e+07
-3.137290e+10 -7.084607e+09 1.582805e+09
-1.888645e+10 -2.541421e+10 1.381529e+09
3.992512e+10 -1.875036e+10 2.730813e+09
-4.425938e+10 -2.292000e+10 -1.857700e+09
-1.743754e+10 -1.629635e+10 2.884537e+08
1.866018e+10 -1.746874e+10 -4.987654e+08
4.333454e+10 9.824501e+09 -3.630065e+08
-2.992170e+10 -1.319762e+09 1.300748e+09
3.056834e+10 3.900008e+10 -1.007872e+09
-2.679900e+10 -6.986231e+09 -4.178884e+08
3.630546e+10 -1.168353e+10 6.160067e+08
-3.154337e+10 -7.530999e+09 1.906291e+08
-2.319856e+10 1.979650e+10 8.120963e+08
4.195052e+10 2.577217e+10 4.777133e+07
-4.884650e+10 1.785008e+10 -6.914758e+08
3.708436e+10 1.632462e+10 -8.777642e+07
2.994627e+09 2.775956e+10 8.080902e+08
2.088830e+08 4.583742e+10 1.098245e+08
-2.612868e+10 2.146285e+10 2.020322e+08
-5.053943e+10 -2.845065e+10 1.529914e+09
3.195578e+10 -1.124470e+10 -4.934142e+08
-4.092272e+10 -1.717370e+10 1.220424e+09
-3.349195e+10 -1.125062e+10 9.479271e+07
-2.705404e+09 4.873364e+10 7.337660e+08
1.426120e+10 2.586184e+10 3.397266e+09
5.257256e+10 5.994258e+09 -3.749925e+08
1.266121e+10 4.491466e+10 -1.250067e+09
-7.112438e+09 -3.519973e+10 5.425373e+07
9.577749e+09 -3.722864e+10 9.138005e+08
4.322717e+10 3.001457e+10 -2.396078e+08
2.687575e+10 2.964182e+10 9.168795e+08
6.975661e+09 1.941678e+10 -2.167519e+09
-5.975694e+10 3.945195e+08 -1.952188e+09
-3.151848e+10 -1.198601e+10 1.387704e+09
-2.058173e+10 -2.387738e+10 1.279399e+09
1.632326e+10 -2.116582e+10 8.514436e+08
4.516718e+10 -1.190731e+10 -1.501353e+08
-3.867395e+10 4.286945e+10 -2.087717e+08
-2.641688e+09 6.207935e+10 -4.590641e+09
-2.723513e+10 1.250446e+10 -1.140125e+09
2.826557e+10 1.519063e+10 2.704499e+09
-1.699504e+10 3.052572e+10 -1.809415e+07
3.049080e+10 -2.674684e+10 8.852140e+08
-4.060201e+10 -3.083649e+10 2.173424e+09
-2.998766e+10 -1.296431e+10 1.757206e+09
2.714459e+10 -1.050695e+10 -4.943547e+09
-5.021221e+09 3.648775e+10 4.122325e+08
-1.362351e+10 -3.343548e+10 -5.990108e+08
1.190551e+10 -3.970729e+10 1.638686e+09
-9.964791e+09 3.927025e+10 -2.014442e+09
-7.591377e+09 3.399986e+10 -1.087713e+09
-2.676624e+10 -2.253074e+10 -4.095678e+08
2.191313e+10 -1.745416e+10 -7.878999e+08
-5.393589e+10 3.816417e+10 -1.895229e+08
5.961273e+10 3.487096e+10 1.631366e+09
-2.355446e+10 -1.144674e+10 -5.506934e+08
-3.471010e+09 -2.694239e+10 4.317833e+08
2.892761e+09 -3.986859e+10 -2.640895e+09
1.437929e+10 -2.905248e+10 -2.064688e+09
-1.307547e+10 -2.824062e+10 -1.835530e+09
4.526283e+10 -4.507883e+10 -1.257849e+09
-3.784556e+10 -3.448108e+10 1.632104e+09
1.514074e+10 2.669379e+10 -1.087842e+09
2.457328e+10 6.425938e+10 -5.233386e+09
5.425590e+10 1.422411e+10 9.990602e+07
8.127222e+09 3.398648e+10 3.019660e+08
-2.958881e+10 -1.677073e+10 5.687350e+08
1.620862e+09 -3.519067e+10 3.774585e+08
-1.351406e+09 -3.226514e+10 -4.054144e+08
2.301325e+10 1.685662e+10 -8.080453e+08
-4.851967e+10 3.443965e+10 2.114134e+09
3.433254e+10 -4.321744e+10 3.599765e+08
-2.883246e+10 -4.134322e+10 6.408178e+07
2.260310e+10 2.906238e+10 -3.282648e+09
2.786281e+10 4.894620e+10 -5.383338e+09
2.701094e+10 1.730283e+10 -2.090059e+09
4.069731e+10 -1.663513e+09 8.233113e+07
-1.979235e+10 -1.342648e+10 4.151699e+08
-2.773715e+10 -2.854192e+07 -6.118032e+08
-3.228473e+10 8.887120e+09 -1.069139e+09
1.006368e+10 3.384924e+10 -2.600434e+09
-3.364416e+10 4.828116e+10 1.906392e+09
1.274691e+10 -2.923345e+10 -8.020029e+08
-1.349618e+10 -2.888546e+10 1.847016e+09
-2.492254e+10 -2.309473e+09 -2.023373e+09
4.418464e+10 -1.229241e+10 1.910169e+08
6.834397e+09 4.799577e+10 -1.288852e+09
-4.244066e+10 -2.100353e+10 -1.141943e+09
-2.251816e+10 -1.476491e+10 -6.453517e+08
4.415525e+10 -3.925356e+10 5.218682e+09
-4.495421e+10 -3.876299e+10 5.301096e+09
4.349334e+10 -7.422804e+09 1.379277e+09
-4.349677e+10 -8.543274e+09 2.452888e+09
4.097085e+10 -4.611441e+09 1.445847e+08
-4.623705e+10 4.785974e+10 -1.105194e+09
-1.924863e+10 3.469092e+10 -7.155844e+08
2.639596e+10 -2.421775e+10 -6.576771e+08
-3.187949e+10 -2.784828e+10 -7.100665e+08
2.671875e+10 -2.607283e+10 1.715205e+09
-2.333050e+10 -1.809232e+10 1.433276e+09
-2.664965e+10 -2.142597e+10 5.662692e+07
-5.091448e+10 2.206726e+10 1.019091e+09
6.165278e+10 2.458592e+10 -1.124061e+09
-1.444683e+10 -1.745917e+10 -7.002876e+08
2.342615e+10 -2.317124e+10 -1.607387e+09
-6.611800e+10 -2.595617e+10 3.202962e+09
3.756129e+10 -2.498336e+10 8.537765e+08
-2.983374e+10 -1.918266e+10 2.244668e+09
-6.115132e+09 4.285208e+10 -2.704869e+09
-1.135678e+10 3.800105e+10 -1.827078e+09
-2.400148e+10 -2.117511e+10 -2.062560e+09
2.566992e+09 4.162225e+10 -1.597189e+09
-2.463781e+10 1.257844e+10 2.018068e+09
-3.918261e+10 9.355547e+08 -3.824525e+08
-3.600002e+10 6.297410e+08 9.138809e+08
3.464604e+10 -2.293141e+10 7.124649e+08
-3.758688e+10 -1.913400e+10 -1.616793e+09
-1.660062e+08 -4.740130e+10 1.603634e+09
-1.427575e+08 -5.610016e+10 1.070611e+09
3.715675e+08 -2.864637e+10 1.608792e+09
-1.350484e+09 -3.239176e+10 -4.558852e+08
-2.672821e+10 -2.507580e+10 1.152479e+09
-3.027488e+10 2.216537e+09 2.027983e+09
5.202713e+10 -3.117168e+10 3.319588e+09
4.389166e+10 8.506901e+09 2.616121e+09
1.295858e+10 2.953478e+10 -1.718430e+08
-4.328597e+10 -1.187951e+10 -1.208100e+09
2.058105e+10 -2.248031e+10 -7.945209e+08
-2.276608e+10 -2.422834e+10 -4.747138e+08
-1.402759e+10 2.456807e+10 2.131977e+09
-4.652841e+10 3.324372e+10 8.781182e+08
4.021839e+10 -2.341587e+10 -2.440210e+09
-1.848291e+10 -1.926840e+10 -2.486977e+08
-2.464629e+10 -1.884823e+10 1.893379e+09
2.786445e+10 -1.788538e+10 -8.030037e+07
3.236310e+10 -1.959423e+10 1.656611e+09
-2.527673e+10 -1.738345e+10 -2.744147e+09
4.599791e+10 -4.147654e+10 -3.033108e+09
-3.380696e+10 -3.054230e+10 -4.160125e+08
1.418099e+10 -2.894597e+10 -5.145638e+08
-1.492776e+10 -3.132728e+10 -1.223874e+09
-1.154130e+09 2.937496e+10 -6.804567e+08
-4.353115e+10 1.458529e+10 -5.994326e+08
-2.193483e+10 -2.532764e+10 2.042913e+09
4.180379e+10 2.892369e+10 7.561850e+08
-6.337474e+10 1.500084e+10 -1.569150e+09
-3.798447e+10 5.182342e+09 -6.304873e+08
-2.552730e+10 4.074187e+10 -3.941158e+08
-2.559862e+10 -5.513668e+08 1.177347e+09
-3.221471e+10 3.012087e+10 1.180967e+09
2.901841e+10 3.945493e+10 -7.676271e+08
-6.105189e+10 1.034709e+10 -3.625808e+08
-2.225133e+10 2.250430e+10 1.111602e+08
2.264791e+10 2.981056e+10 2.255813e+08
-1.612810e+10 -2.374894e+10 2.425550e+08
2.271427e+10 -1.029278e+10 8.476429e+08
-2.664573e+10 -1.456603e+10 -2.479042e+08
-3.966900e+10 -4.139255e+09 8.001893e+07
5.283027e+10 2.950663e+10 -5.372022e+08
-2.503799e+10 2.676683e+10 1.563490e+09
-2.068680e+10 5.328625e+10 -7.454163e+08
-4.728934e+10 -6.505134e+09 1.477286e+09
3.522925e+10 -1.454685e+10 -1.083620e+09
-4.737321e+10 -2.427066e+09 -1.687536e+08
-5.672027e+10 3.329921e+09 -1.742234e+09
-1.618968e+10 -2.268709e+10 2.574801e+09
-3.377774e+10 2.244956e+10 -1.482916e+08
4.985815e+10 3.103034e+10 -3.824878e+08
1.068149e+10 4.035928e+10 4.034434e+09
-5.526314e+10 2.335496e+10 5.897598e+09
-3.128562e+10 1.690368e+10 7.055162e+08
5.788195e+10 1.423054e+10 -4.165753e+09
3.742823e+09 3.242193e+10 -3.582141e+08
2.323618e+10 -2.353207e+10 -7.942852e+08
-2.708424e+10 -2.841726e+10 -4.817511e+08
-4.446370e+10 7.799291e+08 -7.581050e+08
-1.206877e+10 -2.113804e+10 -1.826661e+09
2.907494e+10 2.851000e+10 3.466324e+08
3.112659e+10 4.577860e+09 -1.937649e+09
-4.070177e+10 1.208450e+10 -1.205945e+09
2.523512e+10 2.952728e+10 -4.725600e+08
6.517933e+09 -3.412312e+10 -3.602367e+08
-6.651819e+09 -3.547360e+10 -2.070117e+08
-2.589433e+10 2.402741e+10 -1.757383e+09
-7.510161e+09 -6.408948e+10 -9.767650e+08
8.365433e+09 -6.540514e+10 -3.728585e+09
4.299023e+09 2.787405e+10 -6.897385e+08
-1.301804e+10 -2.310173e+10 3.013842e+08
-4.059578e+10 7.013683e+09 -5.342976e+07
-2.801551e+10 2.478003e+10 -1.474126e+09
-2.100644e+10 -4.342193e+10 -9.847342e+08
1.424173e+10 -4.457070e+10 -2.225832e+09
3.339567e+10 -7.975072e+08 -1.285702e+08
-2.493762e+10 -7.043030e+09 -7.423434e+08
1.017148e+10 -4.294481e+10 1.610609e+09
-9.023866e+09 -3.742920e+10 1.331275e+09
6.184027e+09 4.605531e+10 -8.799251e+08
-2.026368e+10 3.636220e+10 -4.165825e+08
-1.353756e+10 -2.598056e+10 -1.449335e+09
-4.008017e+10 -3.382252e+09 -2.339477e+09
2.597241e+10 -4.514890e+09 -6.176846e+08
9.766973e+09 3.530527e+10 -6.895583e+08
4.005649e+10 -1.174871e+10 -4.325841e+08
5.355451e+10 1.903097e+10 2.251624e+08
-1.420418e+10 4.047517e+10 2.548057e+08
6.144948e+10 -6.955540e+09 3.149665e+09
6.753322e+09 3.557523e+10 1.037511e+09
-2.782955e+10 3.282284e+09 1.917999e+08
-3.135827e+10 -4.579468e+10 -3.383342e+09
-1.102625e+10 -2.817845e+10 3.237193e+09
3.210752e+10 -4.693887e+10 -3.581001e+09
2.259917e+10 2.699807e+10 -2.661116e+09
-4.520468e+10 3.775462e+09 -3.648938e+08
-4.434796e+10 -1.171221e+10 1.393318e+09
1.314634e+10 3.495666e+10 -9.351962e+07
3.134204e+10 -2.247979e+10 4.883673e+08
-2.947273e+10 -2.661682e+10 -1.578736e+09
3.183978e+10 6.806869e+08 -2.367835e+09
5.467783e+10 -5.498759e+09 -7.299171e+08
-1.992649e+10 -1.167253e+10 -9.297576e+08
-1.000518e+10 -2.700226e+10 -4.410322e+08
2.354748e+10 -1.878119e+10 -2.297833e+09
7.197231e+09 -5.911158e+10 -1.172137e+09
-8.106273e+09 -5.489335e+10 4.403746e+09
2.704578e+10 1.755562e+10 -9.796533e+08
2.607375e+10 4.942155e+10 -1.482086e+09
-4.039112e+10 7.854348e+09 -5.251985e+08
3.534386e+10 -2.338610e+10 2.340655e+08
-3.289287e+10 -1.978057e+10 2.997589e+08
5.725880e+10 3.901131e+10 2.128851e+09
3.449198e+10 2.273697e+10 5.119195e+08
-1.003442e+10 -3.096262e+10 -9.442837e+08
-3.462802e+10 1.074771e+10 -1.676693e+09
1.977713e+10 2.433611e+10 1.457366e+09
-1.461594e+10 5.406155e+10 -1.244563e+09
3.624064e+09 4.698897e+10 -8.506849e+08
-5.631173e+09 3.574354e+10 -2.430432e+09
2.187808e+10 -2.531021e+10 9.986188e+07
-2.330846e+10 -2.617947e+10 9.051573e+08
3.934833e+10 2.892136e+10 2.121058e+08
-1.699906e+10 2.800845e+10 7.279712e+08
-5.291960e+10 3.680302e+10 -4.054675e+08
-7.171110e+09 -2.733373e+10 4.294067e+08
-4.154047e+10 3.655123e+10 -2.424968e+09
2.844396e+10 -6.571733e+09 -1.675593e+09
-3.087400e+10 -1.498510e+10 1.917044e+09
-2.555564e+10 -2.357270e+10 1.114683e+09
2.255581e+10 -1.960037e+10 3.733699e+09
2.369196e+09 -4.479803e+10 -3.994553e+08
-7.110950e+09 -4.714798e+10 -7.253562e+08
3.087542e+10 -1.216908e+10 6.062172e+08
-2.471817e+10 5.202396e+10 -7.166839e+08
4.876583e+10 -1.610112e+10 1.574280e+09
-5.535913e+09 -2.604682e+10 -1.620288e+08
-2.058720e+10 -2.558144e+10 -1.996833e+09
2.182848e+10 -3.001131e+10 1.672214e+09
-1.060737e+10 4.971881e+10 -2.776379e+09
-3.092337e+09 -3.254431e+10 3.769842e+08
2.967007e+09 -3.211805e+10 1.789662e+07
-2.715153e+10 -3.375127e+09 -5.937686e+08
-4.174583e+10 1.512037e+10 1.137264e+09
-2.563303e+10 1.531818e+10 1.880363e+09
3.891371e+10 -1.639841e+10 -3.254545e+09
-4.773964e+10 -1.852469e+10 1.576008e+09
-4.096883e+09 -3.419108e+10 6.378924e+08
-4.958871e+10 -2.297957e+10 2.956829e+08
-2.595667e+10 2.431199e+10 -1.583230e+09
-2.578563e+10 1.662769e+10 5.079759e+07
-2.835443e+10 5.921192e+09 -3.640951e+09
1.901176e+10 2.538937e+10 -2.469384e+09
-1.308085e+09 2.159125e+10 1.032572e+09