# vtk DataFile Version 2.0
Electric current density generated by TTH
ASCII
DATASET UNSTRUCTURED_GRID
POINTS 5247 double
1.141862e-05 3.299193e-05 -2.160055e-22
-3.296579e-05 -3.689136e-06 2.015074e-07
-3.135126e-05 -1.083751e-05 2.015074e-07
-3.135126e-05 1.083751e-05 2.015074e-07
1.322352e-05 3.171220e-05 -8.183976e-07
-1.462459e-05 -2.975084e-05 7.020882e-08
-3.007273e-05 -1.434208e-05 5.196836e-07
2.602167e-05 -2.147263e-05 -8.318436e-07
2.602167e-05 2.147263e-05 8.318436e-07
-2.527521e-05 2.327859e-05 -8.172000e-07
-3.375005e-05 6.454672e-06 -8.172000e-07
1.089373e-05 3.316894e-05 -2.160055e-22
-2.978271e-05 1.713823e-05 -8.172000e-07
-1.760861e-05 2.950705e-05 -8.172000e-07
-1.422960e-05 3.127695e-05 -8.172000e-07
-1.280678e-05 3.191708e-05 -8.048822e-07
-3.324800e-05 -8.677507e-06 -8.172000e-07
2.130241e-06 3.429564e-05 -8.172000e-07
9.633840e-06 3.298372e-05 -8.171539e-07
4.043583e-06 -3.417429e-05 7.946308e-07
-7.688441e-06 3.226193e-05 1.731800e-07
-3.297568e-05 3.542469e-06 1.731800e-07
1.036610e-05 3.333760e-05 -2.160055e-22
2.088962e-05 -2.617291e-05 -6.950175e-07
-3.231072e-05 1.175108e-05 8.090084e-07
-3.231072e-05 -1.175108e-05 8.090084e-07
-3.422476e-05 -3.276621e-06 8.090084e-07
-1.082337e-06 3.436421e-05 8.090083e-07
-3.171520e-05 -1.328452e-05 8.073424e-07
-3.437916e-05 -1.560795e-06 7.937162e-07
-3.171268e-05 1.336670e-05 7.937162e-07
-2.803904e-06 3.430016e-05 7.937162e-07
3.067541e-05 1.406721e-05 -8.352542e-07
9.835864e-06 3.349788e-05 -2.160055e-22
3.067541e-05 -1.406721e-05 8.352542e-07
1.129592e-05 3.140165e-05 5.865453e-07
1.240366e-05 -3.095718e-05 5.609467e-07
1.591298e-05 3.055177e-05 7.768798e-07
3.138349e-05 1.076855e-05 2.330463e-07
3.138349e-05 -1.076855e-05 -2.330463e-07
1.933582e-05 -2.721433e-05 -6.002479e-07
2.278370e-05 -2.473719e-05 -7.862739e-07
1.754785e-05 2.837380e-05 -5.752097e-07
-2.543574e-05 -2.152379e-05 5.234939e-07
9.303150e-06 3.364972e-05 -2.160055e-22
-3.106560e-05 -1.503610e-05 -7.379010e-07
3.261996e-05 1.100088e-05 7.885751e-07
3.261996e-05 -1.100088e-05 -7.885751e-07
2.979032e-05 -1.707562e-05 8.267490e-07
2.979032e-05 1.707562e-05 -8.267490e-07
-2.949389e-05 -1.770465e-05 8.007173e-07
1.392066e-06 -3.315148e-05 2.370563e-07
-9.673343e-06 -3.173934e-05 2.370696e-07
-4.358948e-06 3.413536e-05 -7.946943e-07
-3.420020e-05 3.817534e-06 -7.946680e-07
8.768094e-06 3.379308e-05 -2.160055e-22
-3.440898e-05 4.293389e-09 -7.963987e-07
-3.250807e-05 1.125115e-05 -8.005898e-07
-2.704993e-05 2.126672e-05 -7.964412e-07
-3.250807e-05 -1.125115e-05 -8.005898e-07
-2.169646e-05 2.671102e-05 -7.947543e-07
-3.107186e-05 1.478236e-05 -7.963939e-07
-3.418809e-05 -3.812839e-06 -8.005898e-07
-8.116753e-06 3.343799e-05 -7.963801e-07
-5.457900e-07 3.439571e-05 -8.005899e-07
7.041773e-06 3.368409e-05 -7.948239e-07
8.230830e-06 3.392794e-05 -2.160055e-22
-2.855502e-05 -1.683871e-05 5.771527e-08
-7.858643e-06 3.355339e-05 7.692784e-07
-3.427829e-05 3.547813e-06 7.692784e-07
1.158654e-05 3.225700e-05 -8.472964e-07
3.323701e-05 -2.020163e-06 -4.921725e-07
3.323701e-05 2.020163e-06 4.921725e-07
-1.603371e-05 -2.919925e-05 -5.116030e-07
-1.895806e-05 -2.740480e-05 -5.271509e-07
9.134087e-06 3.323047e-05 7.683990e-07
4.191856e-06 3.402074e-05 -8.463613e-07
7.691495e-06 3.405426e-05 -2.160055e-22
-1.083701e-05 3.251987e-05 -8.463600e-07
-2.862091e-05 1.886335e-05 -8.463600e-07
-1.605734e-05 3.028439e-05 -8.463600e-07
-2.376190e-05 2.470536e-05 -8.463600e-07
-3.321638e-05 8.464896e-06 -8.463600e-07
-1.931507e-05 2.831803e-05 -8.463600e-07
-3.363012e-05 -6.633054e-06 -8.463600e-07
1.590158e-06 3.442670e-05 7.681524e-07
-3.325426e-05 9.214578e-06 7.416785e-07
-3.398653e-05 -5.972424e-06 7.416785e-07
7.150223e-06 3.417201e-05 -2.160055e-22
-3.320399e-05 -9.231516e-06 7.681520e-07
-2.571748e-05 2.294204e-05 7.681520e-07
-2.339883e-05 2.536235e-05 7.416785e-07
-3.398460e-05 5.283160e-06 8.038973e-07
-9.449480e-06 3.306639e-05 8.051093e-07
1.448908e-05 -3.119516e-05 -8.025360e-07
3.433672e-05 2.023059e-06 8.023231e-07
3.433672e-05 -2.023059e-06 -8.023231e-07
-3.271466e-05 5.359442e-06 -6.659150e-08
1.719024e-05 -2.971043e-05 -8.311180e-07
6.607151e-06 3.428115e-05 -2.160055e-22
-2.131853e-05 -2.617404e-05 8.386617e-07
-1.692186e-05 3.007847e-05 -7.387757e-07
-1.563761e-05 2.943998e-05 5.431836e-07
2.221200e-05 2.625507e-05 8.049603e-07
1.219613e-06 -3.351394e-05 -7.305515e-07
-9.597482e-06 -3.213347e-05 -7.305516e-07
3.333890e-05 8.606511e-06 -7.850991e-07
3.333890e-05 -8.606511e-06 7.850991e-07
2.422987e-06 -3.312762e-05 3.392596e-07
-1.064889e-05 -3.147592e-05 3.675578e-07
6.062416e-06 3.438167e-05 -2.160055e-22
1.246156e-05 3.216124e-05 -7.518582e-07
3.222123e-05 8.660550e-06 -5.789002e-07
3.222123e-05 -8.660550e-06 5.789002e-07
-1.986903e-05 -2.656773e-05 2.181032e-07
1.916687e-05 2.704934e-05 7.810787e-08
1.620758e-05 -2.908282e-05 4.857713e-07
-3.040283e-05 -1.619797e-05 7.763147e-07
-1.094939e-06 -3.451078e-05 7.278483e-07
-7.607469e-06 -3.367966e-05 7.278483e-07
-2.950924e-05 -1.515396e-05 2.068574e-07
5.516154e-06 3.447353e-05 -2.160055e-22
-1.227035e-05 -3.081406e-05 -1.822067e-07
-3.170638e-05 -1.357746e-05 -7.518019e-07
1.786897e-05 2.873489e-05 8.606679e-07
9.129061e-06 -3.228983e-05 -7.432936e-07
-2.376725e-05 -2.502845e-05 7.364779e-07
-2.207795e-05 -2.482342e-05 3.508810e-07
1.780158e-05 -2.821577e-05 -5.756657e-07
-3.449637e-05 1.089476e-06 7.376109e-07
-5.447691e-06 3.408092e-05 7.376109e-07
-5.002980e-06 -3.407116e-05 7.827089e-07
4.968504e-06 3.455671e-05 -2.160055e-22
-3.676585e-06 -3.423367e-05 7.857873e-07
-1.323777e-05 -3.052328e-05 -4.475532e-07
-2.750496e-05 -2.035541e-05 -8.616901e-07
2.170594e-05 2.509248e-05 -2.272126e-07
3.388497e-05 5.807983e-06 8.099293e-07
3.388497e-05 -5.807983e-06 -8.099293e-07
3.453953e-05 8.221941e-07 7.129046e-07
3.453953e-05 -8.221941e-07 -7.129046e-07
3.295396e-05 -5.988374e-06 6.999461e-07
3.295396e-05 5.988374e-06 -6.999461e-07
4.419603e-06 3.463119e-05 -2.160055e-22
2.413198e-05 -2.462016e-05 7.616726e-07
-2.957660e-05 -1.599301e-05 7.826506e-07
-2.064875e-05 -2.602300e-05 3.484082e-07
2.983083e-05 -1.723471e-05 -7.746823e-07
2.983083e-05 1.723471e-05 7.746823e-07
1.583456e-05 3.066092e-05 -7.410139e-07
-1.464408e-05 -3.122251e-05 7.548730e-07
1.149605e-05 -3.136767e-05 -6.249878e-07
2.903352e-05 1.679698e-05 7.346653e-07
2.903352e-05 -1.679698e-05 -7.346653e-07
3.869590e-06 3.469695e-05 -2.160055e-22
-3.186555e-05 -9.175851e-06 -1.456795e-07
-2.494703e-05 2.184616e-05 -1.456795e-07
1.225403e-06 3.313771e-05 -1.456847e-07
5.297672e-06 3.272726e-05 -9.398943e-08
5.971860e-06 3.283532e-05 -5.892252e-07
-1.970482e-05 2.666194e-05 -9.400927e-08
-2.035391e-05 2.644928e-05 -5.896316e-07
-2.697122e-05 1.927932e-05 -9.400927e-08
-2.676888e-05 1.993171e-05 -5.896316e-07
1.038862e-05 -3.154870e-05 3.368612e-07
3.318602e-06 3.475398e-05 -2.160055e-22
1.884247e-05 2.750143e-05 -5.454841e-07
1.669219e-05 2.890960e-05 5.986396e-07
-2.519458e-05 -2.364425e-05 7.111906e-07
-2.930876e-05 1.818508e-05 7.512865e-07
-2.459745e-05 2.420796e-05 7.388097e-07
-3.365733e-05 -7.552871e-06 7.498407e-07
-3.364455e-05 7.598958e-06 7.512865e-07
3.292006e-06 3.435456e-05 7.386875e-07
8.494570e-06 3.205453e-05 -1.493647e-07
-1.179392e-05 3.241533e-05 7.499463e-07
2.766779e-06 3.480225e-05 -2.160055e-22
-1.866440e-05 2.906095e-05 7.207504e-07
3.431401e-05 3.779176e-06 -7.323604e-07
3.431401e-05 -3.779176e-06 7.323604e-07
2.864841e-05 1.913173e-05 -7.759362e-07
2.864841e-05 -1.913173e-05 7.759362e-07
-3.014012e-05 1.679316e-05 7.446158e-07
1.075743e-05 3.277597e-05 7.487173e-07
-2.797250e-05 -2.004893e-05 7.933099e-07
-1.533494e-05 3.093428e-05 7.288650e-07
-3.059267e-05 1.342540e-05 -6.259246e-07
2.214260e-06 3.484177e-05 -2.160055e-22
2.727286e-05 1.982894e-05 8.253361e-07
2.727286e-05 -1.982894e-05 -8.253361e-07
4.124511e-07 -3.344448e-05 6.616048e-07
-8.798745e-06 -3.226895e-05 6.616050e-07
2.013392e-05 -2.643127e-05 3.627464e-07
2.827725e-05 -1.765120e-05 5.416573e-07
2.827725e-05 1.765120e-05 -5.416573e-07
-2.914576e-05 1.579201e-05 -3.900332e-08
-2.155341e-05 -2.536926e-05 -4.777675e-07
-2.641625e-05 -2.004067e-05 1.302209e-07
1.661183e-06 3.487252e-05 -2.160055e-22
-2.696191e-05 -1.928372e-05 4.456436e-09
3.214433e-05 -1.240808e-05 -7.722621e-07
3.214433e-05 1.240808e-05 7.722621e-07
3.297218e-05 -1.021063e-05 -7.353698e-07
3.297218e-05 1.021063e-05 7.353698e-07
3.281434e-05 -4.736057e-06 -1.036394e-07
3.281434e-05 4.736057e-06 1.036394e-07
-2.946717e-05 -1.604331e-05 -7.407021e-07
2.431957e-05 -2.287689e-05 6.050410e-07
2.432402e-05 2.287177e-05 -6.047676e-07
1.107688e-06 3.489448e-05 -2.160055e-22
1.681464e-05 3.015216e-05 7.308815e-07
1.453437e-05 2.996394e-05 4.989274e-07
3.062668e-05 1.582037e-05 -7.635878e-07
3.062668e-05 -1.582037e-05 7.635878e-07
3.056596e-05 1.597962e-05 7.519440e-07
3.056596e-05 -1.597962e-05 -7.519440e-07
2.695768e-05 -1.979135e-05 6.577749e-07
2.695768e-05 1.979135e-05 -6.577749e-07
2.693528e-05 2.155901e-05 -7.458713e-07
2.693528e-05 -2.155901e-05 7.458713e-07
5.539135e-07 3.490767e-05 -2.160055e-22
-6.282082e-06 -3.280788e-05 6.209618e-07
-2.158900e-06 -3.333408e-05 6.209618e-07
3.364406e-05 7.643321e-06 -7.454792e-07
3.364406e-05 -7.643321e-06 7.454792e-07
5.018232e-06 3.405944e-05 7.875060e-07
-2.828862e-05 1.962096e-05 7.875047e-07
-2.006732e-05 2.797375e-05 7.875047e-07
1.267402e-05 3.201821e-05 7.832872e-07
2.531998e-05 2.340904e-05 -7.566988e-07
2.594469e-05 2.284407e-05 -6.985574e-07
-1.606550e-19 3.491206e-05 -2.160055e-22
2.531998e-05 -2.340904e-05 7.566988e-07
2.594469e-05 -2.284407e-05 6.985574e-07
-2.742563e-07 3.456947e-05 6.969376e-07
-3.275788e-05 1.104739e-05 6.969374e-07
-3.275788e-05 -1.104739e-05 6.969374e-07
-3.432607e-05 -4.104185e-06 6.969374e-07
3.328280e-07 -3.369219e-05 -8.152656e-07
-4.165460e-08 -3.445913e-05 -7.705304e-07
-8.783887e-06 -3.252873e-05 -8.152653e-07
-8.614022e-06 -3.336513e-05 -7.705304e-07
-5.539135e-07 3.490767e-05 -2.160055e-22
-2.283846e-05 -2.595719e-05 6.941533e-07
[...]
POINT_DATA 5247
VECTORS 10.000GHz_fone_imag double
3.278799e+10 -1.239821e+10 8.806114e+08
-6.045150e+09 4.157432e+10 2.401173e+08
-1.314331e+10 4.064144e+10 5.499774e+08
1.253999e+10 4.047490e+10 8.221636e+08
3.347191e+10 -1.427495e+10 -8.385647e+08
-3.735538e+10 1.854779e+10 -6.349221e+08
-1.893738e+10 3.630208e+10 -5.660036e+08
-2.547854e+10 -3.079790e+10 -1.035789e+09
2.384244e+10 -2.768065e+10 -5.274720e+08
2.460466e+10 2.734691e+10 -5.463593e+08
6.624355e+09 3.478930e+10 -8.481424e+08
3.419648e+10 -1.053400e+10 1.043764e+08
1.738771e+10 3.192427e+10 -3.375568e+08
3.084203e+10 1.866349e+10 7.209215e+08
3.267730e+10 1.540143e+10 1.165633e+09
3.346105e+10 1.309861e+10 3.073898e+08
-8.897284e+09 3.506664e+10 -1.002428e+09
3.539011e+10 -2.241148e+09 -9.217324e+08
3.394149e+10 -9.902386e+09 -9.215353e+08
-3.704891e+10 -3.252990e+09 5.158285e+08
4.173157e+10 1.026229e+10 -1.033286e+09
5.696515e+09 4.172075e+10 5.344026e+08
3.299655e+10 -1.057093e+10 -4.619686e+08
-3.102947e+10 -2.443551e+10 2.536035e+08
1.363007e+10 3.407206e+10 8.259451e+08
-1.203017e+10 3.442783e+10 -8.654417e+08
-3.733757e+09 3.654050e+10 2.431848e+08
3.460855e+10 1.390745e+09 -3.868005e+08
-1.476188e+10 3.377726e+10 5.140337e+08
-7.960526e+08 3.589857e+10 -8.866714e+08
1.443765e+10 3.355272e+10 -9.611277e+07
3.877917e+10 2.305571e+09 1.105566e+08
1.677150e+10 -3.578821e+10 9.039115e+08
3.340232e+10 -9.183181e+09 -1.280870e+08
-1.712080e+10 -3.551288e+10 4.933053e+08
4.060918e+10 -1.561167e+10 4.915892e+08
-3.956999e+10 -1.699271e+10 1.570821e+09
3.298340e+10 -1.785652e+10 -2.786069e+08
1.420734e+10 -4.172678e+10 6.603733e+08
-1.398829e+10 -4.189740e+10 1.368843e+07
-3.279821e+10 -2.399309e+10 5.642565e+08
-2.887110e+10 -2.727225e+10 -1.200597e+08
3.489771e+10 -2.131375e+10 -4.695229e+07
-2.703244e+10 3.176653e+10 2.775036e+08
3.322892e+10 -1.010765e+10 1.684259e+08
-1.576067e+10 3.318964e+10 2.100093e+08
1.224874e+10 -3.413749e+10 7.952951e+07
-1.261027e+10 -3.437386e+10 5.716222e+07
-1.784909e+10 -3.167359e+10 3.900917e+08
1.801409e+10 -3.167701e+10 6.397210e+07
-1.912895e+10 3.182109e+10 7.705250e+08
-4.261587e+10 -2.763321e+09 -1.139546e+09
-3.999772e+10 1.463212e+10 2.786067e+08
3.548621e+10 4.339085e+09 -2.020967e+08
3.928111e+09 3.931425e+10 -5.778825e+06
3.430483e+10 -8.502397e+09 -5.760959e+08
3.090569e+08 3.572001e+10 -5.572992e+08
1.111706e+10 3.438722e+10 5.184729e+08
2.240222e+10 2.825484e+10 -2.745102e+07
-1.200055e+10 3.539072e+10 -7.463897e+06
2.864723e+10 2.283869e+10 -1.719098e+08
1.530217e+10 3.330820e+10 4.942385e+07
-4.585705e+09 3.662261e+10 2.443000e+08
3.507378e+10 8.155863e+09 1.014248e+09
3.673312e+10 5.188054e+08 3.824959e+08
3.528603e+10 -7.434748e+09 1.354302e+07
3.487865e+10 -8.692147e+09 1.143894e+09
-2.228906e+10 3.735544e+10 1.974956e+09
3.690310e+10 7.387388e+09 -7.646081e+08
3.572594e+09 3.815294e+10 1.285058e+09
3.533570e+10 -1.233330e+10 5.605276e+08
-2.174531e+09 -4.028320e+10 2.068654e+08
2.125833e+09 -4.024315e+10 1.363527e+08
-3.755062e+10 1.876032e+10 3.723477e+07
-3.410358e+10 2.371824e+10 -2.476255e+08
3.434934e+10 -9.845355e+09 1.533925e+09
3.803993e+10 -4.819930e+09 8.407957e+08
3.466835e+10 -7.616826e+09 9.978851e+08
3.504449e+10 1.176718e+10 6.684496e+08
1.977201e+10 3.180902e+10 1.099564e+09
3.376695e+10 1.882400e+10 -1.917275e+08
2.782301e+10 2.635048e+10 7.951601e+08
8.400348e+09 3.755367e+10 1.137519e+09
3.393508e+10 2.285460e+10 -5.035510e+08
-7.892918e+09 3.894725e+10 5.860093e+08
3.587321e+10 -1.358908e+09 1.300862e+09
9.883268e+09 3.569272e+10 -1.331868e+09
-5.357922e+09 3.758506e+10 -5.354007e+08
3.514736e+10 -7.089450e+09 1.340314e+09
-1.150473e+10 3.816328e+10 1.285593e+09
2.448548e+10 2.884232e+10 1.165337e+09
2.657979e+10 2.452830e+10 -1.337311e+09
6.252633e+09 3.724617e+10 6.131627e+08
3.539744e+10 1.040801e+10 6.443584e+08
-3.324650e+10 -1.564379e+10 3.120351e+08
2.732425e+09 -3.715685e+10 -4.634022e+08
-2.821535e+09 -3.714368e+10 -2.769939e+08
6.279219e+09 4.138596e+10 1.259282e+09
-3.199792e+10 -1.831928e+10 4.823807e+08
3.426630e+10 -5.944360e+09 5.451034e+08
-3.130525e+10 2.613905e+10 5.016509e+08
3.076790e+10 1.726932e+10 -7.311543e+08
3.621870e+10 2.018806e+10 6.158583e+08
3.161910e+10 -2.479989e+10 -1.853603e+08
-4.063340e+10 -1.976953e+09 4.824170e+08
-3.975463e+10 1.049623e+10 -1.329678e+09
8.233993e+09 -3.563928e+10 -2.125035e+08
-8.147906e+09 -3.594588e+10 -5.062371e+08
-4.155517e+10 -1.843530e+09 3.838941e+08
-4.085216e+10 1.367530e+10 3.806191e+08
3.364091e+10 -6.669358e+09 1.791848e+08
3.227838e+10 -1.330463e+10 -3.949502e+08
1.043041e+10 -3.822425e+10 -7.484168e+08
-1.091566e+10 -3.916867e+10 5.258461e+08
-3.478364e+10 2.617491e+10 2.552584e+08
3.352897e+10 -2.309663e+10 -2.087117e+08
-3.643777e+10 -1.922162e+10 -8.645986e+08
-1.620311e+10 3.188279e+10 -2.643202e+08
-3.582200e+10 -4.199993e+08 -3.329580e+08
-3.493461e+10 8.893191e+09 3.322154e+08
-1.970370e+10 3.746275e+10 5.766606e+08
3.445226e+10 -4.923655e+09 2.748565e+08
-3.769098e+10 1.550641e+10 1.190246e+07
-1.374090e+10 3.354204e+10 4.757104e+08
3.593908e+10 -1.848071e+10 -2.616999e+08
-3.933183e+10 -1.220278e+10 7.312638e+08
-2.574694e+10 2.455256e+10 6.863554e+08
-3.005657e+10 2.849399e+10 -2.814281e+08
-3.311388e+10 -2.190061e+10 4.371688e+08
1.885963e+09 3.680135e+10 -9.058748e+07
3.680921e+10 7.258984e+09 -1.808323e+08
-3.635104e+10 6.244038e+09 -1.011506e+09
3.458274e+10 -4.894362e+09 4.936281e+08
-3.700021e+10 3.242089e+09 1.444387e+09
-3.896432e+10 1.637329e+10 -7.884086e+08
-2.155502e+10 2.915120e+10 -8.568929e+08
3.210466e+10 -2.719728e+10 -2.685574e+08
7.294811e+09 -3.640519e+10 4.448287e+07
-7.114149e+09 -3.656788e+10 -9.258794e+07
1.374682e+09 -3.607344e+10 -6.352246e+08
-1.901577e+09 -3.735755e+10 -8.844367e+08
-7.579061e+09 -3.861415e+10 1.206755e+09
7.622063e+09 -3.872365e+10 1.214911e+09
3.539020e+10 -5.260598e+09 7.279437e+07
-2.691822e+10 -2.612386e+10 7.997726e+08
-1.888356e+10 3.695934e+10 -1.192763e+09
-3.288045e+10 2.410671e+10 1.431430e+08
-1.867103e+10 -3.290567e+10 -4.000998e+08
1.865427e+10 -3.264121e+10 2.344671e+08
3.175854e+10 -1.686584e+10 4.189774e+08
-3.237029e+10 1.493392e+10 2.110867e+08
-3.878371e+10 -1.421068e+10 3.111346e+08
1.971416e+10 -3.621674e+10 -7.593676e+08
-2.023490e+10 -3.540888e+10 -1.068033e+08
3.459603e+10 -3.888708e+09 5.348571e+07
-1.086016e+10 4.093085e+10 6.875415e+08
2.718876e+10 3.157803e+10 1.016449e+09
4.279945e+10 -2.730053e+09 1.063658e+09
4.220435e+10 -7.073465e+09 -5.844743e+07
4.073140e+10 -8.813144e+09 7.005509e+08
3.279881e+10 2.474576e+10 -3.531891e+08
3.260659e+10 2.670115e+10 -5.589965e+08
2.496689e+10 3.414816e+10 8.338184e+08
2.602191e+10 3.256669e+10 7.436193e+08
-3.951133e+10 -1.146399e+10 6.965528e+08
3.493058e+10 -2.712472e+09 1.378427e+08
3.396399e+10 -2.348144e+10 1.035389e+09
3.749481e+10 -2.109303e+10 9.388186e+08
-2.612779e+10 2.760295e+10 2.874419e+08
1.782265e+10 3.085701e+10 -9.206414e+08
2.391761e+10 2.411335e+10 -2.552153e+07
-8.476420e+09 3.606516e+10 3.495831e+08
7.495505e+09 3.394135e+10 -5.348859e+08
3.410220e+10 -2.899877e+09 -6.786257e+07
4.120619e+10 -1.218778e+10 1.859122e+09
3.443022e+10 1.274236e+10 -1.561365e+08
3.416940e+10 -3.103245e+09 -3.132198e+08
3.025430e+10 1.905093e+10 5.522005e+08
4.522245e+09 -3.552604e+10 -1.133560e+08
-4.479257e+09 -3.548936e+10 -1.401024e+08
1.989180e+10 -3.076775e+10 3.709152e+08
-2.000048e+10 -3.021054e+10 6.760151e+08
1.778977e+10 3.401653e+10 -2.627454e+08
3.379998e+10 -1.021425e+10 2.008048e+08
-2.255982e+10 3.013077e+10 -4.355976e+08
3.140945e+10 1.595767e+10 -8.390260e+06
1.591170e+10 3.718500e+10 -1.476797e+08
3.447558e+10 -1.583328e+09 -1.937859e+08
2.321030e+10 -3.303569e+10 -3.355216e+08
-2.319822e+10 -3.321462e+10 -5.465503e+08
-4.110236e+10 -1.824736e+09 -5.172074e+08
-3.861938e+10 1.183614e+10 1.126498e+09
-3.298684e+10 -2.492968e+10 -3.049589e+07
-2.158848e+10 -3.461602e+10 -8.936652e+08
2.137803e+10 -3.450597e+10 -3.658158e+08
1.930928e+10 3.778833e+10 1.656703e+09
-3.336397e+10 2.825759e+10 3.863219e+08
-2.634109e+10 3.458713e+10 8.143848e+08
3.392275e+10 -2.337816e+09 6.852268e+07
-2.466609e+10 3.440099e+10 1.385973e+09
-1.303212e+10 -3.469065e+10 -8.622242e+08
1.215846e+10 -3.492977e+10 -3.865763e+08
-1.199842e+10 -3.425224e+10 3.611958e+08
1.162597e+10 -3.377490e+10 5.459671e+08
-6.462941e+09 -4.364227e+10 -1.089450e+08
6.460167e+09 -4.365341e+10 -1.365452e+08
-1.917665e+10 3.806436e+10 -4.719109e+08
-2.784682e+10 -2.936088e+10 4.624508e+08
2.754995e+10 -2.953537e+10 5.623999e+08
3.457309e+10 -6.435762e+07 -5.460110e+08
3.109934e+10 -1.746975e+10 7.314914e+08
3.445269e+10 -1.706530e+10 1.020266e+09
1.632315e+10 -3.284238e+10 -1.560578e+09
-1.635233e+10 -3.349520e+10 -1.860756e+09
1.631639e+10 -3.317511e+10 1.951256e+08
-1.622805e+10 -3.287579e+10 9.615997e+07
-2.352870e+10 -3.296658e+10 -1.948788e+08
2.372427e+10 -3.307017e+10 -2.375009e+08
2.149993e+10 -2.648226e+10 9.493668e+08
-2.259051e+10 -2.765613e+10 -5.202913e+07
3.544924e+10 -1.075851e+09 4.457222e+07
-4.130542e+10 7.545166e+09 -5.199048e+08
-4.177464e+10 2.946151e+09 6.171931e+08
8.539240e+09 -3.610736e+10 3.331514e+08
-7.987762e+09 -3.553865e+10 -1.540850e+08
3.660489e+10 -5.638480e+09 -4.813705e+08
2.135358e+10 3.052847e+10 -6.300842e+08
2.927147e+10 2.151820e+10 -1.645740e+08
3.442639e+10 -1.386758e+10 7.019149e+08
2.384168e+10 -2.660689e+10 4.597681e+08
2.388541e+10 -2.689106e+10 -5.485170e+08
3.539301e+10 -6.420678e+08 -7.134146e+08
-2.331472e+10 -2.686090e+10 -2.832384e+08
-2.414440e+10 -2.750605e+10 -6.558546e+08
3.569877e+10 1.321329e+08 4.385644e+08
1.102524e+10 3.370543e+10 5.143580e+07
-1.141423e+10 3.304337e+10 6.444743e+08
-4.724129e+09 3.497980e+10 -9.675198e+07
-3.889804e+10 -1.564731e+09 2.955505e+08
-3.602941e+10 -7.600988e+08 -6.161654e+08
-3.930052e+10 1.004486e+10 1.285123e+08
-3.518578e+10 8.701413e+09 9.586309e+08
3.427163e+10 1.356274e+09 -1.844768e+08
-2.661793e+10 2.449323e+10 4.665103e+08
2.920523e+10 -2.928377e+10 1.170511e+08
3.232779e+10 1.583194e+10 -9.610071e+08
3.546982e+10 2.033816e+10 -5.181797e+08
-2.883283e+10 2.444742e+10 -2.128392e+08
3.982397e+10 1.215205e+10 5.668639e+08
-2.738630e+10 -2.598262e+10 1.038283e+09
-2.990740e+10 -2.966414e+10 -1.042282e+09
-5.667928e+09 4.081125e+10 4.149914e+08
-1.298752e+10 3.953210e+10 3.207299e+06
3.502568e+10 6.298711e+08 3.630238e+08
1.225315e+10 3.944576e+10 5.690743e+08
2.999418e+10 2.478672e+10 -7.347368e+08
2.412475e+10 3.109706e+10 3.503380e+08
4.093416e+10 1.115058e+08 4.181550e+08
3.924482e+10 -7.428129e+09 9.806122e+08
-1.444435e+10 -3.645377e+10 1.044124e+09
1.562191e+10 -3.749070e+10 -1.831976e+08
-3.005166e+10 -2.107897e+10 1.508345e+09
-3.499149e+10 -7.900694e+09 -1.720784e+09
3.561105e+10 7.060936e+09 1.069785e+09
3.530903e+10 1.355720e+09 6.205584e+08
3.001585e+09 3.608156e+10 -8.339697e+08
-3.722097e+10 -1.704413e+10 6.701568e+08
3.136080e+10 2.843792e+10 -1.363502e+08
1.132602e+10 3.946930e+10 -6.172546e+08
-6.607303e+09 3.980727e+10 -5.312146e+08
-3.934849e+10 1.433509e+10 -1.456013e+08
2.688678e+09 -4.071580e+10 3.662104e+08
-2.650177e+09 -4.061994e+10 3.850620e+08
2.241259e+10 -3.416563e+10 -5.020921e+08
-2.284746e+10 -3.353654e+10 -1.146811e+09
3.691153e+10 2.810057e+09 2.654779e+09
-3.771569e+10 1.975274e+10 -3.469427e+08
-3.594562e+10 -3.248459e+09 1.941790e+08
-3.632218e+10 -2.107790e+10 2.488717e+08
-1.342751e+10 -3.451886e+10 -2.087706e+08
1.317513e+10 -3.416060e+10 -1.213944e+08
-3.226716e+10 1.645005e+10 1.157519e+09
-3.049443e+10 2.093722e+10 -1.061914e+08
-2.430158e+10 -3.069720e+10 -6.555892e+08
2.561038e+10 -3.225975e+10 -2.414457e+08
-3.436988e+10 1.276573e+10 5.530655e+08
3.431342e+10 4.345325e+09 -9.363485e+08
-3.493115e+10 -2.334746e+10 -4.346708e+08
2.321695e+10 2.840328e+10 -1.089686e+09
2.740768e+10 2.285896e+10 9.351473e+08
3.576677e+10 -8.155259e+09 -1.105930e+09
-2.287879e+10 3.507121e+10 -2.711280e+08
-7.369015e+09 -4.009123e+10 5.436882e+08
7.443809e+09 -4.010281e+10 6.512284e+08
-3.839578e+10 -9.010988e+09 9.615964e+08
7.220482e+09 3.661770e+10 -4.456246e+08
3.511428e+10 1.089116e+10 -2.845104e+08
3.423025e+10 2.515654e+09 1.158410e+08
-2.678053e+10 2.983873e+10 1.202230e+09
-2.756090e+10 -2.524996e+10 7.397133e+08
2.875448e+10 -2.236636e+10 1.475299e+09
-3.733497e+10 7.223116e+09 -1.193659e+08
-3.772841e+10 2.066387e+09 1.929710e+08
3.970048e+10 -9.044685e+09 1.548747e+08
3.119697e+10 2.624583e+10 -5.344531e+08
2.576948e+10 3.158535e+10 1.322855e+08
-1.341531e+10 3.376779e+10 -9.216900e+08
-1.930127e+10 -3.107117e+10 6.103414e+08
3.464359e+10 3.543465e+09 9.839949e+07
1.878486e+10 -3.067846e+10 1.729380e+08
3.475271e+10 -2.657384e+10 8.389763e+08
3.418409e+10 -9.108452e+09 6.747618e+08
3.501658e+10 -8.364372e+08 9.617996e+08
1.656008e+10 3.167341e+10 1.796799e+09
2.240078e+10 2.685130e+10 1.472932e+09
3.331438e+10 1.451686e+10 -8.230718e+08
6.134250e+09 3.472601e+10 4.926148e+08
-9.498371e+09 3.285624e+10 7.086186e+08
3.618266e+10 -1.062649e+10 8.345924e+08
3.496497e+10 3.892613e+09 -3.831197e+08
2.339453e+10 -3.302609e+10 -7.555188e+08
-2.353882e+10 -3.373688e+10 -8.060385e+08
3.256370e+10 -2.738511e+10 -9.161048e+08
3.635033e+10 -2.952733e+09 4.273164e+08
3.341650e+10 1.234790e+10 2.585083e+08
1.877737e+10 3.153319e+10 5.392479e+08
7.331045e+09 3.564147e+10 5.520918e+08
3.073245e+10 1.987482e+10 7.176452e+08
3.208984e+10 1.663422e+10 2.628819e+08
2.518360e+10 2.478389e+10 -1.509145e+08
3.495334e+10 5.046949e+09 -6.874226e+08
-7.837651e+09 3.513667e+10 -6.332580e+08
-1.366618e+10 -3.767379e+10 4.623674e+06
1.446110e+10 -3.818994e+10 7.291400e+08
2.848655e+10 -2.886171e+10 -1.627797e+08
-1.986611e+10 3.348681e+10 -3.098219e+08
8.949859e+09 -3.569030e+10 -6.309357e+08
-8.629119e+09 -3.459974e+10 3.723103e+08
2.601929e+10 -2.530939e+10 -1.235834e+08
2.526405e+10 -2.543009e+10 4.345089e+08
-2.407827e+10 -2.464468e+10 3.595005e+08
3.609249e+10 6.968179e+09 -6.305401e+08
-2.630612e+10 -2.623416e+10 4.205990e+08
-3.796116e+10 -6.179859e+09 1.455171e+08
-3.011980e+10 2.074688e+10 -8.324500e+07
-3.181408e+10 1.838122e+10 3.089296e+08
-3.778224e+10 -4.100638e+09 3.878952e+08
-2.144321e+10 -2.863959e+10 4.712644e+08
2.158975e+10 -2.823764e+10 6.632920e+08
-1.914229e+10 -3.578029e+10 8.364579e+08
1.864169e+10 -3.742898e+10 -7.361947e+07
1.883288e+10 -3.540628e+10 -7.218374e+08
3.503829e+10 5.812090e+09 8.366957e+08
-1.882975e+10 -3.532420e+10 -8.249260e+08
1.542552e+10 -3.144070e+10 -1.302536e+09
-1.468110e+10 -3.194338e+10 -7.599364e+08
4.987400e+09 4.166482e+10 -3.692099e+08
4.180077e+10 1.174592e+10 3.952846e+07
-2.819661e+10 2.212654e+10 -1.158296e+09
1.638792e+10 -3.704733e+10 -1.002008e+08
-1.656532e+10 -3.738959e+10 -8.244618e+08
-1.498768e+09 -3.640482e+10 -1.368265e+09
1.383335e+09 -3.690850e+10 -7.262999e+08
3.435213e+10 7.045475e+09 -5.370920e+08
-3.717154e+10 -8.021354e+09 2.680416e+08
-3.378087e+10 2.061882e+10 3.386530e+08
-3.655365e+10 8.785143e+09 -3.704042e+08
-3.754372e+10 -2.760537e+08 8.541271e+08
4.050161e+10 2.674522e+08 7.293174e+07
-3.546637e+09 3.924710e+10 -9.606284e+08
1.417872e+10 3.922078e+10 -7.751528e+08
-1.394953e+10 3.838035e+10 7.420538e+08
-3.826731e+10 -1.018909e+09 6.997315e+08
-2.428503e+10 2.687805e+10 1.205789e+09
3.557658e+10 7.471167e+09 3.321694e+08
-3.562310e+10 -1.764435e+09 -4.905986e+08
-3.273822e+10 1.552420e+10 1.974365e+08
3.114330e+10 -3.879142e+10 1.144283e+09
-2.792685e+10 -3.430714e+10 8.381864e+08
-3.719670e+10 -1.698735e+10 6.784368e+08
-3.951961e+10 -6.552496e+09 9.066665e+08
2.515207e+10 -2.609455e+10 1.020613e+09
-2.530124e+10 -2.483800e+10 5.805091e+08
-3.390793e+10 -1.606538e+10 -7.467422e+07
-2.100885e+10 3.411662e+10 -1.063318e+09
3.477596e+10 7.803784e+09 -3.692944e+08
8.381810e+09 -3.525714e+10 1.044511e+09
-8.422736e+09 -3.572319e+10 9.503156e+08
-2.656229e+10 2.607011e+10 1.153923e+09
-2.698276e+10 -2.394394e+10 3.174745e+08
-1.319566e+10 -3.333908e+10 6.602287e+08
1.292493e+10 -3.370811e+10 1.438163e+09
-3.227455e+10 2.029426e+10 2.723516e+07
4.338253e+10 5.384174e+09 -4.137717e+08
-1.130844e+09 4.093471e+10 8.024906e+08
-3.359209e+10 1.323845e+10 -4.441112e+08
3.490083e+10 9.481306e+09 -1.369156e+09
-5.119910e+09 -4.111075e+10 1.035654e+09
5.114207e+09 -4.115385e+10 1.047318e+09
-3.916991e+10 -1.266316e+10 4.253892e+08
-3.766191e+10 2.316430e+10 -3.847830e+08
-2.624561e+10 -3.111590e+10 -3.522850e+08
2.626754e+10 -3.139182e+10 -2.163891e+08
-3.587802e+10 4.951174e+09 -5.706501e+08
-3.526846e+10 3.413408e+09 -3.461456e+08
-3.728087e+10 3.391767e+09 1.171211e+09
-3.455254e+10 6.658711e+09 1.351788e+09
3.308395e+10 8.612146e+09 -5.606225e+08
1.029836e+10 -4.111585e+10 -2.485734e+08
-1.002952e+10 -4.002192e+10 -3.460034e+08
3.135649e+10 -2.666556e+10 9.719367e+08
-3.096661e+10 -2.698238e+10 -9.684073e+08
-3.966019e+10 -6.650272e+09 -4.911357e+07
2.269369e+10 -2.916677e+10 -9.336268e+08
-2.223649e+10 -2.905757e+10 -1.097999e+09
3.515936e+10 -5.270841e+09 2.964899e+08
3.896836e+10 1.940162e+09 -2.853451e+08
3.405106e+10 1.161525e+10 6.755924e+08
3.252256e+10 8.643466e+09 -5.281654e+08
3.134909e+09 3.598166e+10 -1.157612e+09
1.328257e+10 3.393641e+10 -5.780659e+07
1.920507e+10 2.920810e+10 7.819452e+08
2.798435e+10 2.639287e+10 -9.345731e+07
8.564986e+09 3.564203e+10 6.912504e+08
-6.505891e+09 3.579225e+10 -1.500290e+08
2.816831e+10 2.004461e+10 2.164330e+08
-1.335582e+09 3.637792e+10 1.990143e+08
3.586250e+10 6.189507e+09 -4.623043e+08
-3.417054e+10 1.814268e+10 -4.095610e+08
3.354769e+10 9.923860e+09 -7.071347e+08
-3.086873e+10 2.061257e+10 -7.757794e+07
-2.365659e+10 -2.883135e+10 1.162464e+08
2.316675e+10 -2.878528e+10 4.766596e+08
-2.302613e+10 3.365630e+10 5.198384e+08
-1.644187e+10 3.098499e+10 2.002169e+07
3.549521e+10 -2.439390e+10 -8.011830e+07
-3.827319e+10 -1.188058e+10 -2.201276e+09
1.387156e+10 -3.496916e+10 -4.824225e+08
-1.373973e+10 -3.458472e+10 -9.016497e+07
3.220100e+10 -1.436395e+10 1.022786e+08
3.308639e+10 1.037255e+10 -4.276287e+08
3.638699e+10 3.726601e+09 2.710432e+08
7.434071e+08 3.826667e+10 6.440740e+08
1.458968e+10 3.292834e+10 -1.252368e+09
-2.717264e+10 3.034019e+10 1.699737e+09
2.968560e+10 2.667119e+10 3.992348e+08
1.292176e+10 4.016542e+10 -4.095322e+08
2.801154e+10 3.055896e+10 2.435776e+08
-1.368254e+10 4.088637e+10 -7.104943e+08
-5.570568e+09 4.175976e+10 -4.009905e+08
4.122919e+10 -1.083747e+09 5.389520e+08
3.343726e+10 1.172890e+10 9.465676e+08
3.927922e+10 -1.111266e+10 -1.463617e+09
3.071668e+10 -2.906645e+10 8.148650e+08
2.253968e+10 -3.632615e+10 1.074654e+07
-2.239393e+10 -3.599317e+10 6.551954e+06
-3.463646e+10 1.236119e+10 6.396909e+08
-3.100836e+10 -1.738650e+10 -8.817386e+08
-3.081865e+10 -2.709201e+10 -1.394700e+09
-4.180571e+10 -1.041017e+10 -1.099927e+09
1.964116e+10 3.718045e+10 -1.929443e+09
-3.143303e+10 2.571955e+10 1.496248e+09
3.259428e+10 1.123712e+10 2.784405e+08
-1.607433e+10 3.221458e+10 8.600698e+08
2.877652e+10 -2.922572e+10 4.124612e+07
-3.541043e+10 5.951356e+09 2.028613e+08
-3.508474e+10 3.544730e+09 -7.242902e+07
1.548416e+10 -3.377317e+10 8.995199e+08
-1.493673e+10 -3.347682e+10 4.732098e+08
-2.778774e+10 -3.019981e+10 -1.904940e+09
4.216629e+09 -3.972120e+10 4.342017e+08
-4.192249e+09 -3.978202e+10 4.206008e+08
-1.458355e+10 -3.804563e+10 -8.055501e+08
3.208711e+10 1.122402e+10 2.443425e+08
1.465549e+10 -3.838159e+10 -7.289650e+08
-2.262182e+10 -2.922788e+10 1.176039e+09
2.370635e+10 -3.242828e+10 -1.150868e+09
3.815231e+10 -1.679787e+10 -2.558400e+08
3.742611e+10 1.672738e+10 3.040455e+08
3.565020e+10 1.932246e+10 -1.454557e+09
3.970179e+10 1.523357e+10 -1.022302e+09
-2.934226e+10 2.343738e+10 7.322922e+08
-3.588682e+10 -1.983831e+10 4.543245e+08
-4.085389e+10 -1.121938e+10 -1.591528e+09
3.280194e+10 1.250736e+10 1.719170e+08
-2.913449e+10 -1.540322e+10 -5.499317e+08
1.269778e+10 -3.435645e+10 8.397331e+08
-1.274646e+10 -3.409995e+10 1.027562e+09
-3.009663e+10 2.882868e+10 -1.467253e+09
-3.512172e+10 1.829295e+10 -1.119109e+09
3.993234e+10 1.698940e+10 -8.631788e+08
-4.155628e+10 1.313203e+09 5.518071e+08
-4.060234e+10 8.691014e+09 -1.217599e+08