# vtk DataFile Version 2.0
Electric current density generated by TTH
ASCII
DATASET UNSTRUCTURED_GRID
POINTS 1818 double
8.938463e-06 -1.120848e-05 -5.500449e-22
2.266067e-06 1.331264e-05 -1.744943e-06
3.042947e-06 -9.401933e-06 -4.080068e-07
9.979212e-06 3.045442e-06 1.515929e-06
9.979212e-06 -3.045442e-06 1.515929e-06
-3.503097e-06 -9.205543e-06 1.472118e-07
1.537061e-06 1.029299e-05 1.486509e-06
-6.456405e-06 -9.779651e-06 2.214737e-06
-6.456405e-06 9.779651e-06 -2.214737e-06
1.362246e-06 -1.190259e-05 2.243025e-06
-6.870910e-06 1.143141e-05 1.867725e-06
9.690450e-06 -1.056510e-05 -5.500449e-22
-6.870910e-06 -1.143141e-05 -1.867725e-06
2.174691e-06 -1.203040e-05 -2.241672e-06
6.238961e-06 -1.195448e-05 1.760588e-06
6.238961e-06 1.195448e-05 1.760588e-06
1.326493e-05 -3.014562e-06 -1.659823e-06
1.326493e-05 3.014562e-06 -1.659823e-06
-9.823029e-06 8.045499e-07 2.239879e-07
-9.823029e-06 -8.045499e-07 -2.239879e-07
-8.765886e-06 -6.079552e-06 -1.737620e-06
-8.765886e-06 6.079552e-06 1.737620e-06
1.039626e-05 -9.871367e-06 -5.500449e-22
-4.393313e-06 1.103079e-05 -2.235223e-06
-4.391827e-06 -1.103060e-05 2.235152e-06
5.154130e-06 1.324389e-05 7.379681e-07
5.154130e-06 -1.324389e-05 7.379681e-07
-5.872582e-06 1.240148e-05 1.543523e-06
8.674306e-06 9.667270e-06 2.058375e-06
8.674306e-06 -9.667270e-06 2.058375e-06
9.399335e-06 8.335141e-06 -2.195508e-06
9.399335e-06 -8.335141e-06 -2.195508e-06
-4.845920e-06 -8.661019e-06 -5.933421e-07
1.105252e-05 -9.130596e-06 -5.500449e-22
-4.877694e-06 8.646341e-06 6.033502e-07
-9.935069e-07 -1.217836e-05 -2.242057e-06
-1.164828e-05 4.493125e-06 2.210831e-06
-1.164828e-05 -4.493125e-06 -2.210831e-06
3.465439e-06 1.376928e-05 -7.737667e-07
1.391752e-06 -1.413873e-05 7.504984e-07
6.832977e-06 1.249035e-05 -6.592953e-07
-2.890471e-08 1.224656e-05 -2.240294e-06
1.083804e-05 -7.021682e-07 1.879138e-06
1.082809e-05 7.910307e-07 1.876634e-06
1.165612e-05 -8.346314e-06 -5.500449e-22
-1.889827e-06 -1.018551e-05 -1.430578e-06
-9.935560e-06 3.509903e-06 -1.622044e-06
-9.935560e-06 -3.509903e-06 1.622044e-06
-9.615816e-07 1.017225e-05 1.239241e-06
3.212781e-06 1.189374e-05 2.233964e-06
1.109147e-05 7.755383e-06 -1.720386e-06
1.109147e-05 -7.755383e-06 -1.720386e-06
2.702475e-06 -1.332534e-05 -1.665761e-06
-8.288494e-06 -6.038339e-06 1.293690e-06
-8.288494e-06 6.038339e-06 -1.293690e-06
1.220417e-05 -7.522258e-06 -5.500449e-22
-7.905617e-06 5.908587e-06 3.337306e-07
-7.905617e-06 -5.908587e-06 -3.337306e-07
-1.263920e-07 -1.215979e-05 2.244638e-06
4.338388e-07 -9.895082e-06 5.150697e-07
4.126382e-06 1.282089e-05 -1.773163e-06
1.658544e-06 1.027938e-05 -1.492375e-06
9.703348e-06 -2.705882e-06 -9.876592e-07
9.703348e-06 2.705882e-06 -9.876592e-07
-1.328844e-06 1.152857e-05 -2.192609e-06
9.933819e-06 -2.051610e-06 1.119166e-06
1.269406e-05 -6.662355e-06 -5.500449e-22
9.933819e-06 2.051610e-06 1.119166e-06
5.342872e-06 1.123822e-05 -2.217784e-06
-8.301360e-06 -1.100625e-05 -1.472707e-06
-8.301360e-06 1.100625e-05 1.472707e-06
-1.365386e-05 7.361001e-07 1.592688e-06
-1.365386e-05 -7.361001e-07 -1.592688e-06
1.194059e-05 -1.957875e-06 2.245708e-06
1.194059e-05 1.957875e-06 2.245708e-06
8.078859e-06 -7.696269e-06 -2.042986e-06
8.078859e-06 7.696269e-06 -2.042986e-06
1.312345e-05 -5.770703e-06 -5.500449e-22
-1.219220e-05 7.299982e-06 7.406156e-07
-1.219220e-05 -7.299982e-06 -7.406156e-07
-1.248303e-05 1.122814e-06 -2.201608e-06
-1.248303e-05 -1.122814e-06 2.201608e-06
4.715755e-06 -8.791361e-06 7.573751e-07
-1.394078e-05 2.838286e-06 -6.923913e-07
-1.394078e-05 -2.838286e-06 6.923913e-07
-6.004727e-06 -1.189710e-05 -1.874908e-06
6.205769e-06 -1.174667e-05 -1.901562e-06
-6.699110e-06 -1.252574e-05 -7.572702e-07
1.349031e-05 -4.851551e-06 -5.500449e-22
-1.174593e-05 7.991008e-06 7.522400e-07
-1.168588e-05 -8.095454e-06 -7.246519e-07
1.389424e-05 2.912925e-06 -7.801854e-07
1.389424e-05 -2.912925e-06 -7.801854e-07
1.120405e-05 8.790753e-06 -6.466413e-07
1.120405e-05 -8.790753e-06 -6.466413e-07
8.492464e-06 -1.143786e-05 6.302328e-07
8.492464e-06 1.143786e-05 6.302328e-07
-2.343269e-06 -1.181883e-05 -2.245344e-06
-2.780669e-06 1.316372e-05 -1.784232e-06
1.379288e-05 -3.909279e-06 -5.500449e-22
-5.508494e-06 -1.313803e-05 6.296550e-07
-5.500660e-06 1.313106e-05 -6.611719e-07
1.415716e-05 -9.630489e-07 -7.973158e-07
1.415716e-05 9.630489e-07 -7.973158e-07
-9.947360e-06 -1.848395e-06 -1.072982e-06
-9.947360e-06 1.848395e-06 1.072982e-06
3.747988e-06 -1.321755e-05 1.525346e-06
1.759522e-06 -1.003819e-05 -1.198437e-06
-6.562847e-06 -9.400653e-06 -2.156836e-06
-6.562847e-06 9.400653e-06 2.156836e-06
1.402972e-05 -2.948378e-06 -5.500449e-22
-7.374252e-07 -1.422754e-05 -6.278227e-07
3.076825e-06 -1.206971e-05 2.215826e-06
-5.876699e-07 1.016698e-05 -1.186820e-06
-2.493646e-06 1.400650e-05 -6.924998e-07
-2.905717e-06 -1.321447e-05 -1.723522e-06
-1.108416e-06 -1.006032e-05 -1.079513e-06
6.254478e-06 1.019509e-05 -2.241977e-06
-4.436824e-06 -1.351014e-05 -7.128699e-07
-8.874039e-06 -7.647382e-06 -2.214047e-06
-8.874039e-06 7.647382e-06 2.214047e-06
1.419971e-05 -1.973426e-06 -5.500449e-22
-1.224968e-05 -4.341578e-07 -2.239517e-06
-1.224968e-05 4.341578e-07 2.239517e-06
-6.177007e-06 8.197445e-06 -1.306924e-06
-6.177007e-06 -8.197445e-06 1.306924e-06
8.320526e-06 -5.757407e-06 1.074103e-06
8.320526e-06 5.757407e-06 1.074103e-06
1.314341e-05 5.394372e-06 -7.497138e-07
1.314341e-05 -5.394372e-06 -7.497138e-07
-8.127350e-06 1.033861e-05 -1.979695e-06
-8.127350e-06 -1.033861e-05 1.979695e-06
1.430202e-05 -9.890695e-07 -5.500449e-22
-1.173908e-05 -4.970839e-06 2.147262e-06
-1.173907e-05 4.970860e-06 -2.147264e-06
1.035240e-06 -1.082046e-05 -1.885068e-06
1.316699e-05 -3.620638e-06 1.610355e-06
1.316699e-05 3.620638e-06 1.610355e-06
-1.016682e-05 -2.916382e-06 1.658999e-06
-1.016682e-05 2.916382e-06 -1.658999e-06
4.209595e-06 -1.314302e-05 -1.455446e-06
-6.831665e-06 7.330186e-06 8.701263e-07
-6.831665e-06 -7.330186e-06 -8.701263e-07
1.414203e-05 -3.463798e-21 9.134201e-07
6.467935e-06 -1.068497e-05 2.209881e-06
6.467935e-06 1.068497e-05 2.209881e-06
-3.034541e-06 -1.202571e-05 2.223919e-06
1.103179e-05 -2.129576e-06 2.076604e-06
1.102815e-05 2.176473e-06 2.078822e-06
9.321898e-06 -3.539062e-06 -7.427134e-07
9.321898e-06 3.539062e-06 -7.427134e-07
1.022553e-05 -4.966095e-06 -2.126231e-06
1.022553e-05 4.966095e-06 -2.126231e-06
1.029745e-05 -3.544801e-06 -1.898269e-06
1.359314e-05 -3.329359e-21 1.668902e-06
1.029745e-05 3.544801e-06 -1.898269e-06
3.961884e-06 9.110061e-06 6.278362e-07
-2.540284e-06 -9.768328e-06 -1.026838e-06
7.797854e-06 -1.099158e-05 1.766810e-06
7.797854e-06 1.099158e-05 1.766810e-06
-1.137192e-05 3.357174e-06 -2.233574e-06
-1.137192e-05 -3.357174e-06 2.233574e-06
1.120323e-05 7.194008e-07 -2.072811e-06
1.119123e-05 -6.421678e-07 -2.065784e-06
9.452895e-06 -7.344678e-06 -2.242542e-06
1.278442e-05 -3.131280e-21 2.135815e-06
9.452895e-06 7.344678e-06 -2.242542e-06
-1.354330e-05 -4.265502e-06 7.724995e-07
-1.353223e-05 4.334213e-06 -7.439270e-07
1.208857e-05 -6.557191e-06 -1.510301e-06
1.208857e-05 6.557191e-06 -1.510301e-06
-3.220202e-06 1.318684e-05 1.685646e-06
-2.546609e-06 9.765711e-06 1.025010e-06
-9.377715e-06 1.067398e-05 7.470556e-07
-9.377715e-06 -1.067398e-05 -7.470556e-07
9.520895e-07 -1.104407e-05 2.008093e-06
1.185571e-05 -2.903811e-21 2.233426e-06
-6.574181e-08 -1.360310e-05 1.659733e-06
-1.547894e-08 -1.356971e-05 -1.689690e-06
3.541165e-06 9.923457e-06 -1.621138e-06
-5.953175e-06 -7.843148e-06 -9.144337e-08
-5.953175e-06 7.843148e-06 9.144337e-08
-9.593254e-06 8.984158e-06 1.983650e-06
-9.593254e-06 -8.984158e-06 -1.983650e-06
9.886952e-06 9.237751e-06 1.722826e-06
9.886952e-06 -9.237751e-06 1.722826e-06
1.345133e-05 -1.923745e-06 -1.673339e-06
1.096759e-05 -2.686284e-21 1.944858e-06
1.347484e-05 1.773773e-06 -1.670752e-06
-1.290822e-05 5.950495e-06 -7.313822e-07
-1.294019e-05 -5.857113e-06 7.590153e-07
3.456545e-06 1.327341e-05 1.549383e-06
1.345786e-05 -4.555974e-06 7.474964e-07
1.345786e-05 4.555974e-06 7.474964e-07
-7.378382e-07 -1.423551e-05 5.997457e-07
7.274783e-06 6.895575e-06 8.781703e-07
7.274783e-06 -6.895575e-06 8.781703e-07
-6.373663e-06 7.626935e-06 -6.455354e-07
1.027362e-05 -2.516311e-21 1.320006e-06
-6.373663e-06 -7.626935e-06 6.455354e-07
4.620680e-06 1.191636e-05 -2.136968e-06
-2.827099e-06 -1.041709e-05 1.833640e-06
1.246671e-05 4.911443e-06 -1.824890e-06
1.246671e-05 -4.911443e-06 -1.824890e-06
-9.923446e-06 1.446025e-06 -8.891635e-07
-9.923446e-06 -1.446025e-06 8.891635e-07
-1.543919e-06 1.372927e-05 -1.437519e-06
2.111133e-06 1.351206e-05 1.590404e-06
-1.022402e-05 9.904211e-06 -6.677557e-07
9.893798e-06 -2.423282e-21 4.669132e-07
-1.016879e-05 -9.940554e-06 7.118719e-07
8.699566e-06 1.047786e-05 1.645557e-06
8.699566e-06 -1.047786e-05 1.645557e-06
-1.830925e-06 1.027576e-05 1.520324e-06
9.091028e-06 5.932405e-06 -1.875633e-06
9.091028e-06 -5.932405e-06 -1.875633e-06
-1.897677e-06 1.023230e-05 -1.486126e-06
5.527412e-06 -9.375310e-06 -1.893768e-06
5.661616e-06 9.307407e-06 -1.900545e-06
7.689450e-06 -1.200640e-05 -5.885925e-07
9.893798e-06 -2.423282e-21 -4.669132e-07
1.177002e-05 -3.515096e-06 2.237398e-06
1.177002e-05 3.515096e-06 2.237398e-06
-1.326323e-06 1.414635e-05 7.467634e-07
2.137915e-07 1.424369e-05 -6.324110e-07
1.149334e-05 -6.631492e-07 2.170074e-06
1.149334e-05 6.631492e-07 2.170074e-06
-8.839734e-06 -4.349674e-06 -1.797832e-07
-8.839734e-06 4.349674e-06 1.797832e-07
2.944438e-06 1.391683e-05 6.981381e-07
8.145336e-06 5.607406e-06 -4.430340e-07
1.027362e-05 -2.516311e-21 -1.320006e-06
8.145336e-06 -5.607406e-06 -4.430340e-07
5.172885e-06 -8.376328e-06 2.630291e-08
-1.365202e-05 -2.266863e-06 -1.409281e-06
-1.365202e-05 2.266863e-06 1.409281e-06
-3.854038e-06 1.368988e-05 7.068596e-07
4.038482e-06 -9.094469e-06 6.820893e-07
1.311162e-05 -4.160107e-06 -1.506667e-06
1.311162e-05 4.160107e-06 -1.506667e-06
1.088388e-05 2.072074e-06 -2.005241e-06
1.088388e-05 -2.072074e-06 -2.005241e-06
1.096759e-05 -2.686284e-21 -1.944858e-06
[...]
POINT_DATA 1818
VECTORS 10.000GHz_fone_imag double
-3.044086e+10 -2.442955e+10 -1.469554e+09
4.167541e+10 -6.141768e+09 -1.601928e+09
-1.215100e+11 -3.965439e+10 3.543137e+09
2.319943e+10 -7.721153e+10 1.953064e+09
-2.253631e+10 -8.226109e+10 -3.793543e+09
-1.119233e+11 4.548065e+10 7.044167e+09
8.763884e+10 -6.985292e+09 4.200160e+09
-5.592148e+10 4.436394e+10 2.858829e+09
5.037295e+10 3.618202e+10 -1.487986e+08
-6.281163e+10 -8.812722e+09 5.139373e+08
3.785935e+10 2.664898e+10 3.640858e+08
-2.656123e+10 -2.362189e+10 1.028597e+09
-4.095474e+10 2.331868e+10 1.318334e+09
-6.707057e+10 -1.266572e+10 -2.400896e+09
-3.335358e+10 -1.800704e+10 -3.716459e+08
3.311737e+10 -1.689827e+10 2.262537e+09
-1.237206e+10 -4.339678e+10 -1.867955e+09
1.062545e+10 -4.907374e+10 -2.116810e+09
6.887634e+09 1.087014e+11 1.576156e+08
-6.240294e+09 1.173462e+11 9.822129e+09
-4.955169e+10 6.331257e+10 6.410503e+08
5.417298e+10 7.096643e+10 -3.372581e+09
-3.055993e+10 -3.198058e+10 -4.769504e+08
7.184632e+10 2.915004e+10 7.177861e+08
-7.062242e+10 2.696663e+10 6.886604e+08
3.892642e+10 -1.672193e+10 1.056548e+09
-3.030257e+10 -1.326575e+10 9.958756e+08
3.759206e+10 1.748954e+10 5.371590e+08
3.949740e+10 -3.306427e+10 -2.303986e+09
-3.880813e+10 -3.569686e+10 2.479819e+09
4.035264e+10 -4.368108e+10 -1.640416e+09
-3.824172e+10 -4.163361e+10 1.554683e+09
-8.173918e+10 4.359873e+10 -1.239287e+09
-2.382187e+10 -3.138962e+10 1.413394e+09
9.475558e+10 5.034842e+10 -9.175937e+09
-5.485704e+10 8.518496e+08 9.402316e+08
1.701157e+10 4.853915e+10 1.098355e+09
-2.134045e+10 6.070169e+10 -9.094210e+08
4.139370e+10 -8.862159e+09 3.342433e+08
-2.994949e+10 -3.332078e+09 5.513040e+08
2.448068e+10 -1.369432e+10 3.913620e+08
7.179615e+10 3.195705e+09 1.281519e+09
-2.615997e+09 -8.487259e+10 -2.933936e+08
1.841626e+07 -8.741467e+10 -4.441543e+09
-2.005386e+10 -2.791113e+10 -5.274673e+08
-1.221731e+11 1.899549e+10 -3.036240e+09
3.594616e+10 9.503340e+10 2.836160e+09
-3.955220e+10 9.645584e+10 5.707049e+09
1.207979e+11 1.366820e+10 -7.239686e+08
4.648739e+10 -1.305544e+10 1.092826e+09
2.436911e+10 -3.094992e+10 1.498607e+09
-2.336674e+10 -3.058112e+10 -2.213015e+09
-3.744312e+10 -8.148843e+09 1.462543e+09
-7.054726e+10 9.944796e+10 -5.414445e+09
5.666254e+10 7.470808e+10 -4.366148e+09
-1.763804e+10 -2.852203e+10 -1.934208e+09
6.154009e+10 8.362276e+10 -2.393182e+08
-5.982528e+10 7.605249e+10 2.872014e+09
-5.847981e+10 -1.175988e+09 -1.155806e+08
-1.291682e+11 -1.495280e+09 2.741335e+09
4.529008e+10 -1.596224e+10 -1.078092e+09
9.420836e+10 -2.217758e+10 4.923566e+09
-3.663307e+10 -1.094653e+11 4.897220e+09
2.320469e+10 -9.055076e+10 2.709661e+09
6.277333e+10 1.737124e+09 -2.181547e+09
-2.417757e+10 -1.208461e+11 6.428073e+09
-1.576212e+10 -2.986335e+10 -2.954236e+08
1.490827e+10 -7.944155e+10 -1.983275e+09
6.077185e+10 -2.699657e+10 1.499800e+09
-3.105985e+10 2.352364e+10 4.466761e+08
3.200753e+10 2.743771e+10 -2.822155e+09
3.489946e+09 4.670780e+10 -1.903674e+08
-7.756542e+08 4.680566e+10 -3.421595e+09
-8.317088e+09 -7.013921e+10 -1.391397e+09
4.847504e+09 -6.292680e+10 1.483970e+09
-4.765873e+10 -5.352397e+10 3.041008e+09
6.009306e+10 -6.667694e+10 -9.900016e+08
-1.272780e+10 -2.938353e+10 6.564057e+08
2.262377e+10 3.904539e+10 -8.187893e+08
-1.686506e+10 2.618065e+10 -6.049469e+08
9.620353e+09 6.063796e+10 -3.217510e+08
-6.074652e+09 6.783306e+10 -2.137056e+08
-1.268198e+11 -6.584552e+10 -8.177639e+09
6.226193e+09 3.136464e+10 5.867396e+08
-8.099025e+09 3.547479e+10 3.876083e+09
-5.446593e+10 2.344688e+10 2.041549e+09
-4.605676e+10 -2.187598e+10 -2.727073e+09
-2.504546e+10 1.329171e+10 3.071626e+08
-1.048332e+10 -2.865934e+10 -1.648351e+09
1.900536e+10 2.570669e+10 -3.314018e+08
-1.753466e+10 2.699605e+10 -1.284314e+09
9.568451e+09 -3.781594e+10 2.198634e+09
-9.079147e+09 -4.305835e+10 8.985578e+08
2.285218e+10 -3.088033e+10 3.073100e+09
-2.420890e+10 -3.241380e+10 1.917210e+09
-3.392487e+10 -2.439394e+10 9.956148e+08
2.649891e+10 -1.917029e+10 -1.395085e+09
-6.909476e+10 5.147894e+09 5.861343e+07
5.103980e+10 1.082080e+10 -4.711527e+07
-8.636822e+09 -2.899415e+10 1.326084e+09
-2.945201e+10 1.183975e+10 3.165837e+07
2.875798e+10 1.190831e+10 -1.745511e+09
-3.467859e+09 -4.279484e+10 -2.761688e+09
1.892504e+09 -4.207433e+10 -1.052605e+09
-1.361055e+10 1.096900e+11 8.431598e+09
1.317680e+10 9.498882e+10 -1.879964e+09
-4.648850e+10 -9.659791e+09 2.519595e+09
-1.112317e+11 -1.935735e+10 -3.422109e+09
-6.473950e+10 4.751074e+10 -1.772883e+09
5.672447e+10 3.718162e+10 -2.984279e+09
-5.923972e+09 -2.962783e+10 3.281125e+08
-3.925153e+10 3.908190e+09 -4.478064e+09
-6.542557e+10 -1.677053e+10 -1.035653e+09
1.144089e+11 5.655526e+09 1.058593e+08
3.482397e+10 7.429143e+09 2.127060e+09
-3.827792e+10 8.662125e+09 2.917707e+07
-1.256725e+11 1.356793e+10 -7.141217e+09
4.053752e+10 -3.660717e+10 -1.650643e+08
-4.101986e+10 1.443464e+10 -8.200729e+08
-5.286177e+10 5.877925e+10 -4.041515e+08
6.004028e+10 6.376789e+10 -7.566448e+08
-4.539766e+09 -3.416490e+10 -4.135921e+09
-9.644384e+09 6.318829e+10 1.493130e+09
6.981951e+09 6.239466e+10 -2.311313e+08
8.943463e+10 5.721830e+10 5.990423e+09
-6.871796e+10 5.226885e+10 1.251316e+09
-6.173626e+10 -7.807626e+10 -7.059916e+09
5.334071e+10 -7.321529e+10 3.312626e+09
1.627559e+10 -3.483971e+10 7.814435e+08
-1.434574e+10 -3.551209e+10 2.349882e+09
4.174005e+10 3.750720e+10 2.276565e+09
-4.940487e+10 3.832464e+10 -1.568975e+07
-2.244889e+09 -3.122166e+10 -1.467247e+07
-1.927236e+10 4.482218e+10 -9.591963e+08
2.470834e+10 5.961678e+10 1.154474e+09
-7.512143e+10 -8.145913e+09 3.069363e+08
-9.083138e+09 -4.288724e+10 -1.228044e+09
1.179661e+10 -4.189259e+10 3.443803e+09
-2.586040e+10 9.772636e+10 -4.011406e+09
2.425775e+10 7.091513e+10 -1.764341e+09
-3.228849e+10 -1.097172e+10 -1.314773e+09
8.813758e+10 8.671416e+10 -2.517978e+09
-6.876220e+10 5.696853e+10 -4.680957e+09
-1.075495e+09 -4.861162e+10 1.982490e+09
-5.680916e+10 -3.679184e+10 -8.355058e+07
5.253840e+10 -3.498789e+10 1.199862e+08
-6.442595e+10 1.681533e+10 -3.246825e+08
-2.526490e+10 -7.734305e+10 -7.047131e+08
2.305723e+10 -8.749189e+10 1.507634e+09
-2.987494e+10 -9.596544e+10 -3.258889e+09
3.038807e+10 -9.634462e+10 1.973549e+09
-3.001249e+10 -6.623944e+10 -2.881701e+09
3.088767e+10 -6.782427e+10 1.199263e+09
-2.784505e+10 -8.118310e+10 8.167319e+08
6.121061e+08 -4.171653e+10 1.737407e+08
2.909980e+10 -7.746383e+10 4.618459e+09
1.068742e+11 -4.483485e+10 7.127509e+09
-9.949336e+10 2.701470e+10 2.894237e+09
-3.482394e+10 -2.479368e+10 -1.959844e+09
4.308124e+10 -2.587814e+10 -2.819564e+09
2.068349e+10 8.683179e+10 1.891089e+08
-1.445313e+10 5.469914e+10 1.257444e+09
4.826562e+09 -8.031812e+10 -6.996934e+09
-9.435249e+09 -8.940412e+10 -6.484009e+08
-4.578979e+10 -5.981828e+10 2.896058e+08
-1.798266e+09 -6.514610e+10 8.802178e+08
4.516658e+10 -5.875527e+10 -2.760342e+08
-1.028958e+10 3.892403e+10 -6.782483e+06
1.087385e+10 3.215208e+10 1.376737e+09
-2.130565e+10 -3.594168e+10 -2.943333e+09
1.986454e+10 -3.597523e+10 1.492884e+09
4.967125e+10 1.393019e+10 -1.686717e+09
1.098149e+11 2.404098e+10 -3.412062e+09
2.542277e+10 2.359441e+10 1.054248e+07
-2.227780e+10 2.032584e+10 -1.098663e+09
-8.153557e+10 -5.335771e+09 5.801010e+08
-1.416046e+09 -8.469329e+10 -3.531543e+08
-4.500052e+10 2.928337e+09 3.318967e+09
-3.911385e+10 -1.934118e+09 4.705539e+08
7.789404e+10 -2.755864e+10 -2.774858e+09
-1.088081e+11 7.947656e+10 1.932732e+09
8.023355e+10 5.822470e+10 -9.660465e+09
4.075762e+10 4.518607e+10 -4.735299e+08
-2.983303e+10 3.621164e+10 -1.016205e+09
2.958535e+10 -2.984939e+10 1.355910e+09
-3.825280e+10 -4.310665e+10 -1.809086e+09
-5.427699e+09 -4.129965e+10 8.654501e+08
2.009907e+09 -7.256442e+10 2.048168e+09
6.047818e+09 -4.494251e+10 2.851973e+06
1.852136e+10 4.245251e+10 1.987941e+09
-1.807491e+10 3.965191e+10 -4.649129e+08
4.107975e+10 -1.043548e+10 -5.268779e+08
-1.271303e+10 -3.695859e+10 -5.043551e+07
9.276010e+09 -2.885907e+10 -2.409223e+09
-3.710449e+10 2.298984e+09 2.032111e+09
6.435594e+10 -7.007866e+10 5.045819e+08
-7.770151e+10 -8.676020e+10 4.119304e+09
7.125086e+10 5.629004e+10 3.935746e+09
-1.161887e+09 -8.660496e+10 -2.357113e+09
-9.098021e+10 6.986108e+10 6.228753e+09
4.591665e+10 -1.743828e+10 -5.962826e+08
-7.823451e+10 2.835026e+10 -3.902106e+09
1.595103e+10 -4.572992e+10 -2.849372e+09
-1.637756e+10 -4.315762e+10 1.341117e+09
1.564983e+10 1.029125e+11 1.034949e+10
-1.453488e+10 9.207518e+10 6.348469e+08
3.669724e+10 3.735504e+09 2.435711e+09
3.551936e+10 -4.042992e+09 4.870270e+08
3.166467e+10 3.173077e+10 -4.384006e+09
-9.893469e+08 -1.017725e+11 -6.920431e+09
-3.013405e+10 3.201825e+10 2.822963e+09
2.790374e+10 -2.543340e+10 -5.326274e+08
-2.957656e+10 -2.611447e+10 1.349859e+09
1.052565e+11 1.652544e+10 -4.415199e+09
4.897141e+10 -7.711976e+10 -5.996559e+09
-6.258031e+10 -8.374079e+10 5.063579e+09
1.068925e+11 1.574616e+10 -7.937749e+08
-6.434201e+10 -3.833340e+10 -2.222739e+09
6.739056e+10 -2.936989e+10 -8.422352e+09
-3.133568e+10 -2.068269e+10 -1.528784e+09
1.839734e+09 -1.285339e+11 1.418615e+09
-1.695165e+10 -4.907866e+10 2.977332e+09
1.171849e+10 -4.315173e+10 -1.920006e+09
4.230781e+10 3.011169e+09 2.741409e+09
3.615198e+10 1.227604e+08 3.418910e+09
-5.491311e+09 -6.930279e+10 -5.158813e+09
8.584325e+09 -7.135718e+10 -6.212798e+08
-5.719349e+10 1.161563e+11 2.674211e+09
6.016543e+10 1.145872e+11 2.319542e+09
3.878294e+10 -9.059366e+09 6.426092e+08
5.163031e+10 -7.948462e+10 -9.086129e+08
1.558127e+09 -9.300111e+10 -3.227466e+08
-5.478190e+10 -8.330094e+10 6.290453e+08
-8.333120e+10 -5.072084e+10 -1.934968e+08
-6.314126e+09 3.396343e+10 -1.440110e+09
9.255931e+09 3.856706e+10 2.620007e+09
3.095009e+10 9.836411e+09 1.586486e+09
-1.101814e+11 -5.729627e+10 4.555993e+08
-1.171808e+10 -4.100060e+10 1.271678e+09
1.245538e+10 -3.865595e+10 1.587592e+08
1.519196e+10 -9.246217e+10 2.478197e+09
-1.235710e+10 -7.951753e+10 -4.899563e+08
-1.215125e+09 -9.981789e+10 2.042170e+09
-6.680268e+10 -3.819070e+10 6.186157e+08
6.031332e+10 -5.629417e+09 -2.389857e+09
-5.949429e+10 -2.059893e+10 -6.858454e+07
-4.373904e+10 -9.919537e+10 3.650791e+09
3.341888e+10 -8.309736e+10 -5.810686e+09
4.152743e+09 6.739785e+10 8.918473e+08
-4.287581e+09 6.169719e+10 9.108499e+08
-1.099694e+11 2.696017e+10 9.204957e+08
-9.202053e+10 4.887221e+10 3.936802e+09
9.223782e+10 5.035041e+10 3.826966e+09
1.044428e+09 -7.261498e+10 -1.496857e+09
3.438231e+09 -4.316561e+10 -8.862221e+08
-3.274680e+09 -5.026630e+10 1.280552e+09
-2.638068e+10 -4.234997e+10 1.025027e+09
2.799565e+10 -4.374575e+10 -1.224174e+09
1.012169e+10 4.826243e+10 1.488688e+08
-1.251173e+10 6.266508e+10 -4.063428e+08
-5.102318e+10 -8.673571e+10 -1.154488e+09
6.012102e+10 -8.868171e+10 1.418820e+09
5.820699e+10 2.857732e+10 -7.900894e+08
-5.765055e+10 1.476798e+10 3.532664e+09
-9.977582e+06 -4.322444e+10 -5.607080e+08
-9.122670e+10 2.251801e+09 6.298596e+08
-1.122618e+10 4.100060e+10 -1.333341e+09
8.861858e+09 3.414110e+10 -1.383552e+09
-2.612104e+09 3.829191e+10 -5.447853e+08
2.625523e+09 5.059530e+10 -6.886772e+08
4.474435e+10 -1.187284e+10 -2.056417e+09
1.881040e+10 -4.734615e+10 9.300528e+08
-1.355171e+10 -3.494483e+10 -2.110406e+09
-7.780543e+10 -4.257137e+10 -1.020582e+09
9.888022e+10 5.853965e+10 -2.362412e+09
-1.470928e+08 -4.837791e+10 -2.677617e+08
-6.802960e+10 4.603551e+10 1.355271e+08
9.744529e+10 -3.703333e+10 -1.919073e+08
1.005523e+11 -6.588005e+10 6.020699e+08
-3.456324e+10 1.466762e+10 -1.002577e+09
-3.247482e+10 -1.057888e+11 2.401879e+08
3.220957e+10 -8.550691e+10 -3.753246e+08
2.324555e+10 -2.966871e+10 3.950003e+09
-2.201985e+10 -2.603320e+10 1.288422e+09
-5.185406e+10 9.699532e+10 -1.714742e+08
4.270767e+10 6.826901e+10 1.711327e+09
1.980152e+08 -4.058887e+10 -2.648809e+08
-1.809090e+09 -4.965323e+10 8.316413e+07
2.059490e+09 -4.681189e+10 1.617871e+09
1.142739e+11 1.550843e+10 6.543067e+09
4.297504e+10 1.016917e+11 -6.919125e+09
-4.532597e+10 9.413655e+10 4.575526e+09
-5.286465e+10 9.836857e+09 -2.141673e+09
1.471964e+10 4.458157e+10 -1.616811e+09
-1.578259e+10 4.162163e+10 -1.341840e+09
-4.580992e+09 -3.875839e+10 1.006504e+09
2.821525e+09 -3.213342e+10 2.022328e+09
9.925157e+10 4.634628e+09 1.144910e+09
-4.857716e+10 6.124603e+09 -9.716084e+08
4.071953e+10 4.015749e+10 -1.001535e+09
-4.017626e+10 4.045763e+10 -1.189284e+09
-5.998372e+10 1.137416e+11 3.211825e+09
5.018628e+10 9.926709e+10 -9.555518e+08
-6.687069e+09 -1.235923e+11 7.562253e+09
5.814759e+09 -1.261401e+11 -9.603094e+09
3.939693e+10 -1.173679e+10 2.283064e+09
-3.961751e+10 -6.567983e+09 1.602200e+09
4.708994e+10 1.346954e+10 2.065761e+09
-1.083090e+11 4.926930e+09 1.816618e+08
-1.063906e+11 -6.003994e+09 -1.455991e+09
1.218054e+11 6.085779e+10 -5.784998e+09
-1.223879e+11 5.635630e+10 2.490503e+09
-3.007683e+10 4.060924e+10 2.639145e+09
3.430467e+10 3.611933e+10 -3.384243e+09
2.928051e+10 1.864053e+10 1.159408e+09
-3.453663e+10 2.055207e+10 -1.974971e+09
-9.700051e+10 -4.350789e+10 8.756589e+08
-3.535259e+10 -6.272019e+09 4.439666e+09
-2.992038e+10 4.177946e+10 -6.305455e+08
-4.208953e+07 1.272940e+11 5.291422e+09
2.621081e+10 3.889353e+10 -4.041359e+09
2.992486e+10 5.529294e+10 4.979844e+08
-2.877638e+10 5.832306e+10 -9.698997e+07
5.533797e+10 -1.801430e+10 2.947183e+09
2.615352e+10 4.763053e+10 -2.628139e+08
-2.035478e+10 3.826866e+10 -1.221816e+09
1.515962e+10 -5.639895e+10 1.103648e+09
-9.239964e+09 -6.531852e+10 -9.095412e+07
-9.942912e+10 2.530293e+09 -9.535137e+08
-5.935219e+10 -3.456561e+10 -5.127585e+08
-5.337863e+10 -4.740774e+10 -1.067067e+09
3.852386e+10 3.182559e+09 2.160813e+09
6.320135e+10 7.463991e+10 -1.160518e+09
-7.879173e+10 9.951214e+10 3.647215e+09
7.593031e+09 -3.406911e+10 2.089103e+08
-9.682988e+09 -3.576947e+10 1.734397e+09
7.232478e+10 -2.907368e+10 4.016979e+09
3.277236e+10 -9.298284e+09 -1.178047e+09
6.883805e+09 1.010175e+11 -3.222887e+09
-4.729263e+09 1.002592e+11 1.876461e+09
-7.198926e+10 -8.182952e+10 -4.918898e+07
6.115532e+10 -5.634024e+10 -2.002189e+09
7.928858e+10 -9.190441e+10 1.738718e+09
4.334607e+10 -5.597797e+10 3.543550e+09
-4.161344e+10 -5.326779e+10 -2.913751e+08
-2.178863e+10 6.730898e+10 -7.270218e+08
2.239434e+10 7.801305e+10 -9.107380e+08
8.473737e+10 3.680734e+10 -6.783681e+08
3.159111e+08 4.414249e+10 -8.868253e+08
1.237734e+09 3.657834e+10 3.651146e+09
-1.775459e+10 -6.394345e+10 2.982504e+09
1.493692e+10 -6.559864e+10 -2.471124e+09
-2.967631e+10 -5.073131e+10 -5.891246e+08
-9.355508e+10 -7.010163e+10 1.166306e+10
7.741588e+10 -6.233854e+10 -1.587167e+09
-1.805076e+10 9.323754e+10 -4.279275e+09
9.864050e+09 9.802370e+10 3.455448e+09
1.312198e+10 4.869793e+10 5.443754e+08
-1.376857e+10 4.702527e+10 1.619988e+09
-3.792094e+10 -5.797550e+10 -3.426803e+08
3.329898e+10 -5.105433e+10 2.430958e+08
1.065909e+10 9.820685e+10 8.793015e+09
4.497155e+09 9.811300e+10 -2.920065e+09
3.046771e+10 -4.985435e+10 1.371697e+09
-8.301603e+10 3.475874e+10 -1.723737e+09
8.423938e+10 4.305148e+10 -1.531246e+09
-6.196268e+10 4.421809e+10 1.369314e+08
5.907065e+10 4.566673e+10 -1.997345e+08
1.105763e+10 2.687500e+10 -1.340358e+09
-1.102321e+10 2.867670e+10 2.585925e+08
2.389087e+10 -1.224438e+11 3.290568e+09
-1.997716e+10 -9.730363e+10 -3.628173e+09
3.403569e+10 -4.210295e+10 4.374959e+09
-3.994907e+10 -4.879149e+10 -3.849305e+09
8.124368e+10 8.340808e+10 -5.285949e+09
-8.710781e+10 -7.036030e+10 1.254720e+09
6.213969e+10 -5.876039e+10 -5.766863e+09
9.842835e+10 1.151950e+10 -1.800375e+09
8.795781e+10 -3.889662e+10 2.254034e+09
7.445437e+10 7.299213e+10 2.053297e+08
-7.369906e+10 6.533243e+10 9.949060e+08
7.209367e+10 4.467920e+09 4.383198e+07
-4.237452e+10 -1.917050e+10 2.725972e+09
-6.682685e+09 3.553680e+10 -1.817878e+09
8.894140e+09 5.835412e+10 -3.306345e+08
-6.709838e+10 8.915060e+10 9.119699e+09
3.749741e+10 -2.103895e+10 9.796824e+08
-3.826041e+10 -2.205571e+10 -3.458490e+09
-3.131358e+10 -5.064885e+10 -4.248293e+08
3.469280e+10 -4.647808e+10 5.844385e+08
-4.498334e+10 -1.889915e+10 1.804604e+09
6.277810e+10 -2.275670e+10 6.773390e+07
4.649366e+10 -8.052325e+10 -3.738377e+08
-4.527804e+10 -7.928632e+10 -1.834628e+08
-3.163511e+10 -1.836291e+10 1.668483e+09
3.413392e+10 -2.250748e+10 5.640196e+08
-8.837930e+10 -1.606107e+10 -1.631790e+08
-9.444794e+10 5.977041e+10 -3.788653e+09
8.736018e+10 5.064285e+10 3.921742e+08
4.053454e+10 7.870568e+09 -3.214834e+09
9.611085e+10 -2.780368e+10 4.983797e+09
-1.128789e+11 -5.341515e+10 8.648318e+08
-3.059100e+09 7.767960e+10 4.993801e+08
7.278838e+09 7.453328e+10 -9.353779e+08
2.809038e+10 -3.639131e+10 2.299978e+09
-3.445474e+10 -4.010882e+10 6.251081e+08
-3.894431e+10 2.992359e+09 -8.630321e+08
7.798942e+10 -1.356079e+09 4.759023e+09
-3.659891e+10 7.669886e+09 -1.387111e+09
-8.767020e+10 1.641622e+09 3.047482e+09
-3.856845e+10 -2.991907e+10 1.161686e+09
4.552181e+10 -3.556164e+10 -1.017443e+09
1.564218e+10 6.982970e+10 6.923298e+07
-1.947798e+10 7.293223e+10 2.234250e+08
4.361095e+10 1.388527e+10 -2.856965e+09
-5.166672e+10 1.968236e+10 -1.378922e+09
4.600373e+10 -5.880912e+09 -1.577002e+09
2.403029e+10 -2.141009e+10 7.574031e+08
-2.130849e+10 -4.159199e+10 -3.187353e+09
-2.231227e+10 -1.965861e+10 9.284828e+08
-6.413557e+10 9.330098e+10 -4.582498e+09
8.574858e+10 1.064848e+11 -2.533409e+09
-8.713731e+10 -6.478047e+10 -4.356792e+09
9.865603e+10 -7.605009e+10 -2.232420e+08
8.363657e+10 2.845928e+09 1.143214e+09
4.945735e+10 2.024026e+10 3.920963e+09
1.136318e+11 -7.665246e+09 -5.229273e+09
6.071897e+10 4.108201e+09 1.185564e+08
-1.349076e+10 -1.047018e+11 3.862451e+09
2.113270e+10 -4.513596e+10 1.162762e+09
1.078882e+09 -8.068479e+10 -2.629322e+09
-9.216824e+10 2.368986e+10 -1.126546e+09
-2.573609e+10 -5.983311e+10 2.427769e+08
2.962015e+10 -6.220085e+10 6.091780e+08
-4.699259e+10 -6.782022e+09 1.823728e+09
-3.348157e+10 1.118319e+11 -3.985966e+09
3.262530e+10 1.109113e+11 4.003824e+08
-3.854065e+10 1.837214e+10 -3.731126e+09
6.589477e+10 -2.274787e+10 9.727624e+08
-6.857566e+10 -3.307930e+10 -2.027824e+09
-9.120319e+10 -5.811397e+10 2.597618e+08
-8.525704e+10 4.898682e+09 3.190911e+09
-2.044648e+09 -4.367701e+10 -6.745916e+08
1.681693e+09 -4.169495e+10 5.548860e+08
8.047018e+10 8.504940e+09 -1.093620e+09
-7.861194e+10 -1.915757e+10 3.903843e+09
-5.772277e+10 -1.268899e+10 -8.778413e+08
-7.427915e+10 1.164087e+09 8.553664e+08
1.515899e+10 7.020792e+10 -6.612192e+09
-1.927348e+10 7.537828e+10 -1.276411e+09
2.111822e+10 3.471248e+10 9.132081e+08
7.297908e+10 -5.133004e+10 6.540734e+08
-2.115000e+10 3.610808e+10 -8.841942e+08
-2.823818e+10 -3.326964e+10 1.447042e+09
2.476152e+10 -2.900412e+10 -3.396014e+09
9.620371e+09 7.778044e+10 5.409185e+08
-3.918658e+09 5.999493e+10 6.842060e+08
6.225277e+10 -1.312618e+10 -6.178898e+08
5.245964e+10 8.323996e+08 3.720640e+08
2.292537e+10 2.223841e+10 2.101880e+09
-2.434383e+10 2.546505e+10 -1.267154e+09
5.453899e+10 -6.299667e+10 -5.084325e+08
-1.444805e+10 -4.396160e+10 -3.956823e+08
-6.314891e+10 -6.862997e+10 -5.202935e+08
1.058179e+11 1.509059e+10 -2.618321e+09
-4.302399e+10 1.527391e+10 -1.940593e+08
-3.279239e+10 5.580255e+09 -9.269523e+07
-4.211411e+10 -1.890036e+10 5.461859e+08
3.503470e+10 -1.327038e+10 -1.809948e+09
-8.826406e+09 3.966831e+10 5.432403e+09
1.104310e+10 5.510248e+10 3.743560e+09
4.090931e+10 -6.918567e+10 -2.025331e+09
-3.050276e+10 -6.417755e+10 1.486554e+09
1.465292e+10 -3.910550e+10 -2.426647e+09
3.623768e+10 2.621276e+10 4.617251e+09
-3.969785e+10 2.706771e+10 -9.402363e+08
-2.761044e+10 -3.814941e+10 5.694853e+08
2.021549e+10 -2.829501e+10 1.508334e+09
4.030666e+10 1.161013e+10 -1.103394e+08
-5.691353e+09 -2.833652e+09 1.173741e+08
5.279620e+09 2.520815e+09 -6.861306e+07
6.358928e+06 6.529217e+09 3.936546e+08
-5.822426e+09 -1.106913e+09 -1.862055e+07
4.076121e+09 3.151155e+09 2.061345e+08
3.725218e+10 8.258824e+10 -1.978837e+09
-4.029733e+09 4.390216e+09 1.282143e+06
3.657818e+09 4.105476e+09 -6.555645e+07
4.153052e+09 9.878131e+07 4.988156e+07
-4.753527e+09 3.507982e+09 -1.071410e+08
5.390237e+09 -2.397433e+09 1.548765e+08
1.735650e+09 -6.580950e+09 7.350489e+08
-2.629082e+09 4.832069e+09 2.097089e+08