# vtk DataFile Version 2.0
Electric current density generated by TTH
ASCII
DATASET UNSTRUCTURED_GRID
POINTS 16121 double
4.310754e-05 -1.055830e-20 -8.295597e-23
4.306501e-05 1.914275e-06 -8.295597e-23
3.806281e-05 2.023568e-05 -8.295597e-23
9.340276e-06 -4.208348e-05 -8.295597e-23
4.144944e-05 -9.070568e-06 1.045078e-08
1.699393e-05 -3.923884e-05 -3.385963e-07
1.683686e-05 -3.895087e-05 5.135748e-08
4.149997e-05 1.051595e-05 3.359845e-07
-2.149721e-05 3.678126e-05 2.951502e-07
-4.148147e-05 -1.156198e-05 1.684948e-07
4.188256e-05 7.402039e-06 2.417411e-07
4.188256e-05 -7.402039e-06 2.417411e-07
3.619166e-05 -2.219022e-05 -1.218299e-07
1.331960e-05 -4.041678e-05 2.626446e-07
9.547874e-06 -4.203686e-05 -8.295597e-23
2.747619e-05 -3.314430e-05 1.856494e-07
2.747619e-05 3.314430e-05 1.856494e-07
1.220123e-05 -4.128697e-05 -1.856793e-07
2.780302e-05 -3.286743e-05 1.893035e-07
2.780302e-05 3.286743e-05 1.893035e-07
1.180762e-05 -4.139944e-05 -1.883179e-07
3.405320e-05 2.595591e-05 -3.351949e-07
1.572123e-05 4.009392e-05 1.625312e-07
-1.209558e-05 -4.066964e-05 6.335672e-09
-2.273502e-05 3.582515e-05 6.335672e-09
9.755240e-06 -4.198923e-05 -8.295597e-23
-2.891872e-05 3.104884e-05 6.335672e-09
3.990203e-05 1.616526e-05 1.856129e-07
3.990203e-05 -1.616526e-05 1.856129e-07
3.973715e-05 1.656029e-05 1.891685e-07
3.973715e-05 -1.656029e-05 1.891685e-07
2.442696e-05 3.545153e-05 1.856121e-07
2.442696e-05 -3.545153e-05 1.856121e-07
2.477688e-05 -3.520498e-05 1.891655e-07
2.477688e-05 3.520498e-05 1.891655e-07
-2.496889e-05 -3.433012e-05 1.142552e-07
9.962368e-06 -4.194057e-05 -8.295597e-23
-3.088734e-05 -2.912001e-05 1.142371e-07
-2.597567e-05 -3.357444e-05 1.134476e-07
4.117283e-05 1.127968e-05 -3.293805e-07
2.555090e-05 -3.403116e-05 -2.630332e-07
2.555090e-05 3.403116e-05 -2.630332e-07
3.875839e-05 -1.757433e-05 -2.639974e-07
3.875839e-05 1.757433e-05 -2.639974e-07
3.021893e-05 -3.030924e-05 -3.372644e-07
8.328308e-06 -4.198184e-05 3.372620e-07
1.824510e-05 -3.876704e-05 3.298223e-07
1.016925e-05 -4.189088e-05 -8.295597e-23
8.736639e-06 -4.197968e-05 -3.202240e-07
2.998961e-05 -3.064710e-05 3.202271e-07
-4.096386e-05 1.270967e-05 -3.161868e-07
-3.899220e-05 1.786567e-05 -3.161868e-07
-3.660757e-05 2.234859e-05 -3.161868e-07
7.140093e-06 -4.247954e-05 -1.439581e-07
-2.481664e-05 -3.441703e-05 2.524552e-08
-3.099385e-05 -2.897894e-05 2.524552e-08
-2.583276e-05 -3.366109e-05 2.574005e-08
3.290867e-05 2.775719e-05 -1.864139e-07
1.037589e-05 -4.184018e-05 -8.295597e-23
3.810236e-05 -1.868110e-05 -6.007174e-08
3.810236e-05 1.868110e-05 -6.007174e-08
3.152366e-05 -2.840211e-05 -2.867513e-08
7.898006e-06 -4.171547e-05 1.311021e-07
3.026321e-05 -2.977573e-05 -1.281795e-07
-3.424896e-05 2.504672e-05 9.612047e-09
-4.033536e-05 -1.316767e-05 9.612047e-09
-2.707047e-05 -3.267291e-05 9.612170e-09
-2.988312e-05 -3.012189e-05 9.612170e-09
3.703699e-05 -2.197646e-05 -1.620303e-07
1.058227e-05 -4.178846e-05 -8.295597e-23
-4.270774e-05 -2.585097e-07 -3.332778e-07
-4.221681e-05 -6.462102e-06 -3.332778e-07
-1.575640e-06 4.267944e-05 -3.332778e-07
-3.898527e-05 -1.744036e-05 -3.332778e-07
-4.262366e-05 -2.690874e-06 -3.332778e-07
-2.042402e-05 -3.750836e-05 -3.332778e-07
3.682430e-05 2.174643e-05 -3.386821e-07
3.803837e-05 -2.017274e-05 1.788973e-07
3.590194e-05 2.344981e-05 -3.193273e-07
1.560094e-05 4.012618e-05 -1.854012e-07
1.078840e-05 -4.173572e-05 -8.295597e-23
6.309749e-06 -4.204892e-05 -2.294266e-07
2.947528e-05 -3.139933e-05 -1.618873e-07
2.947528e-05 3.139933e-05 -1.618873e-07
9.647862e-06 -4.197176e-05 1.618865e-07
4.108472e-05 -1.063908e-05 -8.062054e-08
3.266529e-06 -4.267569e-05 3.372089e-07
3.698336e-05 2.204353e-05 -1.820410e-07
3.630050e-05 -2.213860e-05 2.283989e-07
-4.204919e-05 -9.249290e-06 -1.820847e-07
3.709535e-05 -2.105402e-05 3.185129e-07
1.099427e-05 -4.168196e-05 -8.295597e-23
1.941500e-05 3.844320e-05 1.594737e-07
-3.071621e-05 2.980545e-05 -3.372464e-07
-2.355943e-05 -3.604907e-05 -1.645812e-07
-2.924587e-05 -3.161256e-05 -1.626302e-07
-4.937248e-06 4.278091e-05 -1.645812e-07
-3.607814e-05 2.351490e-05 -1.645792e-07
-3.933116e-05 1.754238e-05 -1.626302e-07
-1.241554e-05 4.123747e-05 -1.626302e-07
-9.958490e-06 4.189762e-05 -1.645792e-07
-4.234985e-05 7.814865e-06 -1.645812e-07
1.119986e-05 -4.162719e-05 -8.295597e-23
-1.720201e-05 3.948121e-05 -1.626302e-07
-3.250279e-05 2.825157e-05 -1.645792e-07
-3.698236e-05 2.206763e-05 -1.626302e-07
-3.860431e-05 1.908637e-05 -1.645792e-07
8.192518e-06 4.227842e-05 -1.645812e-07
1.149664e-05 4.150304e-05 -1.626302e-07
-4.148944e-05 1.154163e-05 -1.645792e-07
-1.483479e-05 4.043024e-05 -1.626302e-07
-1.758485e-05 -3.931101e-05 -1.645792e-07
-1.534522e-06 -4.303751e-05 -1.645812e-07
3.796247e-05 2.042330e-05 -8.295597e-23
1.140519e-05 -4.157140e-05 -8.295597e-23
-3.277210e-05 -2.793871e-05 -1.645792e-07
-4.100063e-05 1.317664e-05 -1.626302e-07
-5.353304e-06 -4.273192e-05 -1.626302e-07
1.392705e-05 4.075070e-05 -1.645792e-07
3.443393e-05 2.586616e-05 1.609541e-07
4.088095e-05 1.262298e-05 3.382879e-07
4.088095e-05 -1.262298e-05 3.382879e-07
1.924929e-05 -3.829969e-05 -3.247814e-07
4.072825e-05 -1.320869e-05 3.353121e-07
4.072825e-05 1.320869e-05 3.353121e-07
1.161023e-05 -4.151460e-05 -8.295597e-23
3.616359e-05 2.228365e-05 -1.732849e-07
3.008914e-05 3.081227e-05 1.609781e-07
-2.923062e-05 -3.133592e-05 -3.281038e-07
3.626887e-05 -2.275092e-05 3.356749e-07
1.160991e-05 4.125019e-05 -3.281068e-07
-1.218484e-05 4.108403e-05 -3.281068e-07
-1.695479e-05 3.935610e-05 -3.281068e-07
-1.459541e-05 4.029072e-05 -3.281068e-07
-5.502068e-06 -4.249818e-05 -3.281068e-07
1.862199e-05 -3.818359e-05 -1.809353e-07
1.181499e-05 -4.145679e-05 -8.295597e-23
-3.670743e-05 2.210791e-05 -3.286162e-07
-3.906292e-05 1.761487e-05 -3.286162e-07
-4.084920e-05 1.294366e-05 -3.286162e-07
2.239392e-05 -3.653908e-05 -3.274275e-07
2.239392e-05 3.653908e-05 -3.274275e-07
2.442320e-05 -3.477341e-05 -1.969810e-07
2.442320e-05 3.477341e-05 -1.969810e-07
3.923920e-05 1.630851e-05 -1.969823e-07
3.923920e-05 -1.630851e-05 -1.969823e-07
1.168606e-05 -4.085488e-05 1.970238e-07
1.201947e-05 -4.139797e-05 -8.295597e-23
2.741211e-05 3.246939e-05 -1.970238e-07
2.741211e-05 -3.246939e-05 -1.970238e-07
2.267670e-05 -3.660648e-05 1.710024e-07
2.267670e-05 3.660648e-05 1.710024e-07
-2.197341e-05 3.680508e-05 -3.246307e-07
4.160419e-05 -9.387946e-06 3.172453e-07
5.448065e-06 -4.211055e-05 1.423277e-07
3.598112e-05 2.312825e-05 -3.386639e-07
4.005084e-05 1.420511e-05 -1.997831e-07
4.005084e-05 -1.420511e-05 -1.997831e-07
1.222365e-05 -4.133814e-05 -8.295597e-23
1.869534e-05 3.853344e-05 -3.332697e-07
4.249424e-05 8.278170e-07 2.089685e-07
4.249424e-05 -8.278170e-07 2.089685e-07
3.745906e-05 2.031676e-05 -3.012185e-07
1.756021e-05 -3.898394e-05 -3.384642e-07
3.029025e-05 -2.977328e-05 1.647192e-07
3.010217e-05 3.080138e-05 -1.585208e-07
3.255111e-05 -2.820006e-05 -1.595468e-07
1.526290e-05 4.008503e-05 -3.153180e-07
1.558412e-05 3.991845e-05 -3.281669e-07
1.242753e-05 -4.127731e-05 -8.295597e-23
1.656887e-05 -3.918574e-05 2.538969e-07
3.176711e-05 2.826076e-05 -2.280865e-07
3.662654e-05 2.155968e-05 2.071169e-07
4.157544e-05 -1.120478e-05 1.749635e-07
5.199459e-06 -4.250117e-05 -3.351031e-07
1.768500e-05 -3.864316e-05 -2.029353e-07
7.844611e-06 -4.174231e-05 -1.649507e-07
-4.204951e-05 -7.998384e-06 -3.369205e-07
-2.181202e-05 -3.682895e-05 -3.369205e-07
-4.259334e-05 -4.235940e-06 -3.369205e-07
1.263112e-05 -4.121547e-05 -8.295597e-23
-3.552236e-05 -2.388091e-05 -3.369205e-07
-3.727836e-05 -2.103473e-05 -3.369205e-07
-2.598374e-05 3.401442e-05 -3.369205e-07
-4.278416e-05 1.284963e-06 -3.369205e-07
-3.479967e-05 -2.492226e-05 -3.369205e-07
-3.525839e-08 4.280344e-05 -3.369205e-07
2.498517e-06 4.273047e-05 -3.369205e-07
-3.025578e-06 4.269639e-05 -3.369205e-07
-3.845812e-05 -1.879118e-05 -3.369205e-07
-7.600331e-06 4.212328e-05 -3.369205e-07
1.283439e-05 -4.115262e-05 -8.295597e-23
6.279980e-06 4.234026e-05 -3.369205e-07
-3.788485e-05 -1.992169e-05 -3.369205e-07
3.762673e-06 4.263775e-05 -3.369205e-07
5.023529e-06 4.250764e-05 -3.369205e-07
1.232169e-06 4.278572e-05 -3.369205e-07
-3.967697e-05 -1.605844e-05 -3.369205e-07
-3.663917e-05 -2.212932e-05 -3.369205e-07
-3.404646e-05 -2.594175e-05 -3.369205e-07
3.787526e-05 2.049063e-05 -1.683061e-07
2.109028e-05 3.709002e-05 -3.230068e-07
1.303735e-05 -4.108877e-05 -8.295597e-23
2.109028e-05 -3.709002e-05 -3.230068e-07
8.537262e-06 -4.191578e-05 3.386099e-07
3.004765e-05 -3.044596e-05 -3.386099e-07
3.193471e-05 2.831735e-05 -3.271982e-07
2.657230e-05 -3.389177e-05 -1.612653e-07
2.657230e-05 3.389177e-05 -1.612653e-07
4.034105e-05 -1.507774e-05 -1.612653e-07
4.034105e-05 1.507774e-05 -1.612653e-07
2.346041e-05 -3.611576e-05 -1.612653e-07
2.346041e-05 3.611576e-05 -1.612653e-07
1.323999e-05 -4.102392e-05 -8.295597e-23
2.418024e-05 3.563783e-05 -1.612653e-07
2.418024e-05 -3.563783e-05 -1.612653e-07
4.003045e-05 1.588403e-05 -1.612652e-07
4.003045e-05 -1.588403e-05 -1.612652e-07
1.251089e-05 -4.120943e-05 1.612645e-07
2.724689e-05 3.335185e-05 -1.612645e-07
2.724689e-05 -3.335185e-05 -1.612645e-07
-2.406841e-05 -3.507883e-05 -2.514120e-07
-3.174515e-05 -2.832064e-05 -2.514120e-07
-4.083501e-05 -1.192958e-05 -2.514120e-07
3.786120e-05 2.061042e-05 -8.295597e-23
1.344232e-05 -4.095808e-05 -8.295597e-23
-3.510851e-05 2.402511e-05 -2.514120e-07
3.725534e-05 2.160886e-05 -1.576888e-07
4.178912e-05 1.039499e-05 1.686003e-07
1.050643e-05 -4.112962e-05 1.151767e-07
2.829758e-05 -3.164297e-05 -1.151717e-07
2.829758e-05 3.164297e-05 -1.151717e-07
4.181862e-05 7.624806e-06 -2.161096e-07
4.181862e-05 -7.624806e-06 -2.161096e-07
1.768842e-05 3.926719e-05 -1.601255e-07
3.595183e-05 -2.368116e-05 1.883514e-07
1.364431e-05 -4.089123e-05 -8.295597e-23
-2.063806e-05 -3.780082e-05 1.592636e-07
-3.762115e-05 -2.096379e-05 1.592636e-07
-2.283946e-05 -3.651289e-05 1.592636e-07
-3.933282e-05 -1.754312e-05 1.592636e-07
-4.030230e-05 -1.518409e-05 1.592636e-07
-4.287852e-05 -4.032929e-06 1.592636e-07
[...]
POINT_DATA 16121
VECTORS 10.000GHz_fone_imag double
8.098203e-05 5.584306e-05 2.779254e-02
1.593930e-04 -1.941846e-04 2.752905e-02
-4.349647e-04 -1.133845e-04 2.762735e-02
-2.422965e-04 2.618168e-04 2.762302e-02
-3.997798e-04 -4.409607e-05 -2.941794e-02
1.107525e-02 -2.643604e-02 -1.453766e-03
-1.737931e-03 4.006579e-03 -2.915244e-02
-2.740308e-02 -7.168904e-03 2.750740e-03
1.251217e-02 -2.139683e-02 -1.457595e-02
1.328807e-02 3.795766e-03 2.403975e-02
-1.989739e-02 -3.671260e-03 -2.077760e-02
-1.993150e-02 3.652602e-03 -2.077781e-02
8.769333e-03 -5.295036e-03 -2.743482e-02
-7.140552e-03 2.101963e-02 -1.903856e-02
-4.246703e-05 1.069940e-05 2.766177e-02
-1.003380e-02 1.152878e-02 2.292830e-02
-1.003419e-02 -1.152887e-02 2.292876e-02
4.034951e-03 -1.477544e-02 2.294017e-02
-9.814932e-03 1.207265e-02 2.276528e-02
-9.815285e-03 -1.207287e-02 2.276569e-02
4.538646e-03 -1.481998e-02 2.284634e-02
2.230034e-02 1.678754e-02 3.591700e-03
-5.013180e-03 -1.268144e-02 2.426292e-02
1.655761e-04 8.672143e-04 -2.933325e-02
3.007874e-04 -5.701557e-04 -2.934265e-02
3.176586e-06 6.124178e-05 2.753630e-02
6.679360e-04 -5.846633e-04 -2.934066e-02
-1.403615e-02 -6.078203e-03 2.294704e-02
-1.403790e-02 6.078031e-03 2.294672e-02
-1.447250e-02 -5.686315e-03 2.278921e-02
-1.447296e-02 5.686628e-03 2.278929e-02
-8.995532e-03 -1.243981e-02 2.299176e-02
-8.996275e-03 1.244015e-02 2.299094e-02
-8.763490e-03 1.292620e-02 2.281196e-02
-8.763619e-03 -1.292674e-02 2.281137e-02
5.815603e-03 8.079528e-03 -2.765634e-02
-5.842661e-05 9.878777e-05 2.754648e-02
7.240285e-03 6.720908e-03 -2.760281e-02
5.986570e-03 7.740628e-03 -2.757988e-02
2.698084e-02 7.328663e-03 -7.211984e-03
1.347532e-02 -1.762628e-02 -1.895552e-02
1.348658e-02 1.763258e-02 -1.894910e-02
2.032016e-02 -9.327185e-03 -1.875587e-02
2.032001e-02 9.328178e-03 -1.875513e-02
2.022689e-02 -2.004948e-02 2.403117e-03
-5.459229e-03 2.795570e-02 2.349685e-03
-1.182538e-02 2.496008e-02 5.917235e-03
-6.455621e-05 4.529317e-05 2.768304e-02
5.492289e-03 -2.623825e-02 8.729399e-03
-1.872588e-02 1.917087e-02 8.757771e-03
-2.543003e-02 7.904976e-03 9.729730e-03
-2.419911e-02 1.107087e-02 9.724569e-03
-2.272916e-02 1.385643e-02 9.723936e-03
2.038811e-03 -1.182490e-02 2.504696e-02
1.031329e-03 1.369163e-03 -2.940620e-02
1.214203e-03 1.159070e-03 -2.953909e-02
9.942397e-04 1.454830e-03 -2.929654e-02
1.186327e-02 1.007488e-02 2.322048e-02
-1.578237e-06 -3.902846e-05 2.753471e-02
4.246534e-03 -2.214495e-03 -2.905813e-02
4.316005e-03 2.277683e-03 -2.903580e-02
1.795369e-03 -1.462535e-03 -2.949401e-02
-1.910447e-03 1.078722e-02 -2.686571e-02
7.940971e-03 -7.496775e-03 -2.722406e-02
4.227790e-04 -1.928053e-04 -2.955373e-02
5.324923e-04 1.151546e-04 -2.954593e-02
2.002909e-04 4.668533e-04 -2.948944e-02
3.516981e-04 3.355641e-04 -2.956862e-02
1.191521e-02 -7.219135e-03 2.407243e-02
-4.819521e-05 -8.444442e-05 2.768125e-02
-2.816761e-02 -1.234611e-04 -5.577813e-03
-2.777426e-02 -4.351163e-03 -5.567408e-03
-9.870191e-04 2.817798e-02 -5.583124e-03
-2.569687e-02 -1.141405e-02 -5.601079e-03
-2.806775e-02 -1.868723e-03 -5.567802e-03
-1.348174e-02 -2.467368e-02 -5.553395e-03
2.461514e-02 1.451644e-02 -7.862466e-04
-1.325268e-02 6.934876e-03 2.346713e-02
2.236475e-02 1.469586e-02 9.159581e-03
5.576749e-03 1.478750e-02 2.310020e-02
4.469264e-05 -1.310566e-04 2.754468e-02
2.956857e-03 -1.942158e-02 -2.206988e-02
9.535821e-03 -1.003489e-02 2.413505e-02
9.530404e-03 1.004021e-02 2.413080e-02
-3.097766e-03 1.345346e-02 2.414907e-02
6.715348e-03 -1.713591e-03 -2.860642e-02
-2.293172e-03 2.836620e-02 2.318036e-03
1.298768e-02 7.651845e-03 2.342694e-02
-1.638146e-02 1.008342e-02 -2.174111e-02
-1.517841e-02 -3.380086e-03 2.328560e-02
-2.326430e-02 1.331395e-02 -1.026750e-02
1.848975e-04 -6.344940e-05 2.780341e-02
-5.961874e-03 -1.199885e-02 2.446212e-02
-2.032899e-02 1.994828e-02 2.229975e-03
-7.653895e-03 -1.177297e-02 2.396001e-02
-9.488127e-03 -1.014987e-02 2.409035e-02
-1.591132e-03 1.381351e-02 2.406641e-02
-1.173946e-02 7.556611e-03 2.402045e-02
-1.263999e-02 5.688073e-03 2.410653e-02
-3.966109e-03 1.330571e-02 2.414505e-02
-3.081609e-03 1.357512e-02 2.408796e-02
-1.367708e-02 2.525328e-03 2.406234e-02
-1.476931e-04 -1.780809e-04 2.780638e-02
-5.488222e-03 1.276359e-02 2.408160e-02
-1.044182e-02 9.174140e-03 2.401745e-02
-1.189018e-02 7.149411e-03 2.410799e-02
-1.250057e-02 6.076990e-03 2.403529e-02
2.618694e-03 1.376781e-02 2.395791e-02
3.745249e-03 1.337663e-02 2.415909e-02
-1.337232e-02 3.870739e-03 2.409065e-02
-4.745837e-03 1.304421e-02 2.415188e-02
-5.758344e-03 -1.272806e-02 2.397609e-02
-5.451868e-04 -1.402427e-02 2.394038e-02
-5.665913e-04 -2.860848e-04 2.748232e-02
1.752024e-04 -1.843559e-04 2.756787e-02
-1.068844e-02 -9.037388e-03 2.398618e-02
-1.321561e-02 4.192834e-03 2.411038e-02
-1.790932e-03 -1.377284e-02 2.408158e-02
4.626744e-03 1.312536e-02 2.408882e-02
-1.098878e-02 -8.222395e-03 2.422785e-02
-2.708916e-02 -8.644562e-03 7.245426e-04
-2.709547e-02 8.642961e-03 7.234835e-04
1.232489e-02 -2.425915e-02 7.610227e-03
-2.695400e-02 8.976066e-03 3.077857e-03
-2.695282e-02 -8.976579e-03 3.078529e-03
8.656927e-05 4.118808e-05 2.768671e-02
1.332777e-02 7.943776e-03 -2.509067e-02
-9.462038e-03 -9.785954e-03 2.426567e-02
-1.893321e-02 -2.002854e-02 6.055732e-03
-2.389524e-02 1.506826e-02 2.989529e-03
7.664937e-03 2.652569e-02 6.079584e-03
-7.669352e-03 2.650970e-02 6.084971e-03
-1.073484e-02 2.538618e-02 6.039858e-03
-9.223123e-03 2.602054e-02 6.078943e-03
-3.718915e-03 -2.731492e-02 6.056716e-03
6.957724e-03 -1.348568e-02 -2.440183e-02
-8.270718e-05 6.370859e-05 2.751797e-02
-2.359669e-02 1.444038e-02 6.056915e-03
-2.513242e-02 1.154623e-02 6.062400e-03
-2.643234e-02 8.170832e-03 6.059471e-03
1.463487e-02 -2.366865e-02 6.224016e-03
1.463478e-02 2.366827e-02 6.224200e-03
9.582008e-03 -1.384113e-02 -2.362693e-02
9.581484e-03 1.384127e-02 -2.362705e-02
1.566629e-02 6.387164e-03 -2.364739e-02
1.566536e-02 -6.387103e-03 -2.364847e-02
-4.727892e-03 1.622756e-02 -2.365046e-02
1.381543e-05 -2.463941e-04 2.782190e-02
1.083112e-02 1.298623e-02 -2.365868e-02
1.083118e-02 -1.298647e-02 -2.365871e-02
-7.296047e-03 1.193789e-02 2.373856e-02
-7.296187e-03 -1.193816e-02 2.373881e-02
-1.372465e-02 2.336258e-02 7.751405e-03
-2.596423e-02 5.874075e-03 -1.060455e-02
-1.458448e-03 1.187911e-02 -2.663420e-02
2.399767e-02 1.541389e-02 -1.757970e-04
1.594171e-02 5.533774e-03 -2.402753e-02
1.594043e-02 -5.528837e-03 -2.403090e-02
4.147569e-05 -2.485879e-06 2.758892e-02
1.211245e-02 2.510651e-02 4.360969e-03
-1.826849e-02 -3.650475e-04 -2.301001e-02
-1.828219e-02 3.748384e-04 -2.297979e-02
2.245134e-02 1.227483e-02 -1.356158e-02
1.176633e-02 -2.599709e-02 -1.641270e-03
-1.025953e-02 1.017387e-02 -2.556421e-02
9.360594e-03 9.522521e-03 2.437407e-02
9.935246e-03 -8.615725e-03 2.413229e-02
9.274332e-03 2.485849e-02 9.668532e-03
9.971717e-03 2.566849e-02 6.561825e-03
1.887916e-04 -1.821066e-04 2.765293e-02
-8.560017e-03 1.958097e-02 -1.970230e-02
1.409814e-02 1.295453e-02 -2.185415e-02
-1.491289e-02 -8.844381e-03 -2.352803e-02
-1.420669e-02 3.941045e-03 2.354795e-02
3.353629e-03 -2.799976e-02 3.695724e-03
7.067778e-03 -1.558009e-02 -2.377327e-02
2.745411e-03 -1.402928e-02 -2.571410e-02
-2.744159e-02 -5.285203e-03 2.246417e-03
-1.430747e-02 -2.409494e-02 2.165244e-03
-2.790806e-02 -2.811115e-03 2.208387e-03
-9.073924e-05 -5.619472e-05 2.761538e-02
-2.337436e-02 -1.572183e-02 2.088301e-03
-2.440810e-02 -1.382404e-02 2.199803e-03
-1.697125e-02 2.244417e-02 2.375626e-03
-2.813499e-02 9.415537e-04 2.320569e-03
-2.282976e-02 -1.631369e-02 2.204539e-03
5.241734e-05 2.799572e-02 2.272901e-03
1.716657e-03 2.794243e-02 2.264636e-03
-1.973209e-03 2.796763e-02 2.138769e-03
-2.508176e-02 -1.234086e-02 2.244918e-03
-4.894642e-03 2.769965e-02 2.321944e-03
2.273417e-04 3.609693e-05 2.770026e-02
4.133106e-03 2.784205e-02 2.099624e-03
-2.494850e-02 -1.309462e-02 2.066703e-03
2.528229e-03 2.783117e-02 2.256263e-03
3.254385e-03 2.798567e-02 2.029473e-03
7.578798e-04 2.815337e-02 2.029643e-03
-2.596240e-02 -1.044421e-02 2.262988e-03
-2.408172e-02 -1.456553e-02 2.090889e-03
-2.227540e-02 -1.688864e-02 2.236558e-03
1.192515e-02 6.462548e-03 2.410399e-02
1.345546e-02 2.375598e-02 -8.937069e-03
-2.122830e-04 -1.243452e-04 2.772461e-02
1.345476e-02 -2.376122e-02 -8.937289e-03
-5.633344e-03 2.794581e-02 2.027379e-04
2.009124e-02 -2.020452e-02 1.094926e-04
2.074973e-02 1.823549e-02 -8.224179e-03
8.687251e-03 -1.083819e-02 2.423603e-02
8.705525e-03 1.084365e-02 2.424329e-02
1.295308e-02 -4.895983e-03 2.425122e-02
1.294948e-02 4.909419e-03 2.425512e-02
7.464420e-03 -1.155470e-02 2.430361e-02
7.464420e-03 1.155464e-02 2.430368e-02
-3.475689e-05 -2.472652e-04 2.758912e-02
7.656917e-03 1.146706e-02 2.426441e-02
7.656754e-03 -1.146653e-02 2.426488e-02
1.289365e-02 4.975489e-03 2.421004e-02
1.289311e-02 -4.977283e-03 2.420829e-02
-4.029546e-03 1.324897e-02 2.416747e-02
8.625971e-03 1.077631e-02 2.419719e-02
8.625648e-03 -1.077620e-02 2.419640e-02
-1.182978e-02 -1.758084e-02 -1.996986e-02
-1.591194e-02 -1.396114e-02 -1.994937e-02
-2.036476e-02 -5.799785e-03 -1.990996e-02
-4.327964e-05 -5.086496e-04 2.768369e-02
1.457299e-04 6.571085e-05 2.769834e-02
-1.756604e-02 1.181329e-02 -1.994047e-02
1.134887e-02 6.561664e-03 2.450382e-02
-1.365384e-02 -3.308780e-03 2.391359e-02
-2.658016e-03 9.479477e-03 -2.751359e-02
6.368921e-03 -7.465258e-03 -2.754861e-02
6.368959e-03 7.464492e-03 -2.754869e-02
1.803028e-02 3.222410e-03 -2.269915e-02
1.800692e-02 -3.195580e-03 -2.266888e-02
5.609252e-03 1.205505e-02 2.405838e-02
-1.290904e-02 8.583634e-03 2.289673e-02
1.673214e-04 -2.078312e-04 2.775191e-02
6.374032e-03 1.157702e-02 2.435810e-02
1.175275e-02 6.628179e-03 2.436721e-02
7.091381e-03 1.141491e-02 2.435621e-02
1.213602e-02 5.442529e-03 2.432154e-02
1.268542e-02 4.714709e-03 2.426262e-02
1.338718e-02 1.322190e-03 2.436366e-02
-3.362227e-04 -1.331700e-02 2.438753e-02
4.216090e-04 -1.319904e-02 2.433549e-02
1.353861e-02 4.137583e-04 2.426844e-02
6.284475e-03 -1.186742e-02 2.433853e-02
-1.034408e-04 3.794789e-04 2.770290e-02
1.095700e-02 7.855563e-03 2.434909e-02
1.120688e-02 7.519915e-03 2.436901e-02
-1.122718e-03 -1.330711e-02 2.440178e-02
5.772022e-03 1.208608e-02 2.442143e-02
1.228160e-03 -1.338168e-02 2.437174e-02
1.327417e-02 -8.185798e-04 2.439842e-02
-1.517358e-03 -1.323845e-02 2.438027e-02
1.235609e-02 -5.040537e-03 2.441237e-02
8.652495e-03 -1.021004e-02 2.434909e-02
9.899696e-03 -9.018033e-03 2.444301e-02
-2.061053e-04 1.571335e-04 2.765680e-02
1.337252e-02 1.660786e-03 2.435281e-02
2.364459e-03 -1.307597e-02 2.441310e-02
-1.982681e-03 -1.336695e-02 2.436974e-02
1.039984e-02 8.445773e-03 2.443152e-02
1.159054e-02 6.996222e-03 2.436466e-02
1.330424e-02 -3.863002e-04 2.439699e-02
7.753196e-03 -1.083082e-02 2.437523e-02
1.322272e-02 2.824793e-03 2.432548e-02
1.035316e-02 -8.432271e-03 2.441579e-02
4.530711e-03 1.252778e-02 2.434103e-02
2.965545e-05 -4.811173e-05 2.766206e-02
1.311816e-02 2.465468e-03 2.439304e-02
1.317622e-02 -2.747964e-03 2.437786e-02
7.859776e-04 1.343187e-02 2.436703e-02
1.182039e-02 6.167314e-03 2.437319e-02
-1.858946e-03 2.813990e-02 2.758712e-03
1.410265e-03 -2.544505e-02 -1.373594e-02
1.125636e-02 -9.797353e-03 2.331271e-02
-1.912002e-03 -3.235396e-03 -2.924002e-02
-1.911877e-03 3.235097e-03 -2.924011e-02
-2.184615e-02 1.087943e-02 -1.579027e-02
1.378848e-04 5.970541e-05 2.802656e-02
-2.184344e-02 -1.087737e-02 -1.585289e-02
4.544083e-03 -2.791244e-02 3.893452e-03
2.414952e-03 -2.726692e-02 7.042640e-03
-6.784816e-03 -2.757917e-02 1.914893e-03
-1.235562e-02 -1.191988e-02 2.230168e-02
5.013420e-03 1.230395e-02 2.437305e-02
1.180136e-03 1.323990e-02 2.434134e-02
5.630711e-05 1.338394e-02 2.441877e-02
1.202933e-02 5.886423e-03 2.439432e-02
6.097004e-03 1.205793e-02 2.434173e-02
4.735228e-05 1.247286e-04 2.769659e-02
6.837400e-03 1.169280e-02 2.435274e-02
1.314848e-02 8.951510e-04 2.438663e-02
1.321678e-02 9.082007e-05 2.437570e-02
9.399818e-03 9.627459e-03 2.436735e-02
5.734040e-03 -1.199313e-02 2.435241e-02
1.138638e-02 -7.167142e-03 2.439842e-02
1.167966e-02 -6.333169e-03 2.450471e-02
8.199899e-03 -1.076600e-02 2.431279e-02
8.614923e-05 -1.350720e-02 2.433180e-02
1.302827e-02 2.070717e-03 2.440420e-02
-3.306144e-04 1.034010e-04 2.771244e-02
2.916450e-03 -1.289713e-02 2.431719e-02
4.963983e-03 -1.242670e-02 2.436970e-02
1.072232e-02 8.241508e-03 2.436797e-02
9.275387e-04 -1.327229e-02 2.442202e-02
-7.433780e-04 -1.353393e-02 2.434787e-02
1.215676e-02 -5.769276e-03 2.439512e-02
1.253881e-02 -4.429743e-03 2.438702e-02
2.074135e-03 1.322395e-02 2.438034e-02
1.136560e-02 7.297088e-03 2.435047e-02
4.130087e-03 -1.277449e-02 2.438310e-02
6.325771e-05 1.069704e-04 2.770158e-02
9.742504e-03 -9.407513e-03 2.431258e-02
3.369001e-03 -1.299785e-02 2.436738e-02
-2.281387e-03 -1.324052e-02 2.439773e-02
-3.078376e-03 -1.299292e-02 2.446102e-02
1.248057e-02 5.129353e-03 2.435062e-02
-4.091402e-03 -1.278803e-02 2.438484e-02
1.986215e-03 -1.314604e-02 2.437693e-02
1.064854e-02 -7.934905e-03 2.435835e-02
1.294578e-02 -3.838473e-03 2.434736e-02
8.564433e-03 1.020911e-02 2.442484e-02
-1.520877e-04 -6.670503e-05 2.776965e-02
3.196109e-03 1.310849e-02 2.426723e-02
1.296163e-02 -3.088515e-03 2.432543e-02
1.258100e-02 4.260016e-03 2.433861e-02
1.322846e-02 -2.014837e-03 2.443072e-02
-2.019552e-02 -1.956618e-02 4.288244e-03
-3.627903e-04 -1.673493e-04 -2.924522e-02
-9.280444e-04 7.908521e-03 -2.832531e-02
-2.316474e-02 3.057369e-04 -1.747247e-02
-2.313179e-02 -3.217919e-04 -1.751067e-02
1.656015e-02 -2.219196e-04 -2.392128e-02
3.618208e-04 -9.048343e-06 2.763102e-02
1.239329e-04 -3.381091e-04 2.775896e-02
1.658962e-02 1.352476e-03 -2.388023e-02
1.639559e-02 2.802895e-03 -2.388988e-02
3.311947e-04 -1.663722e-02 -2.387021e-02
8.102921e-03 1.449202e-02 -2.387715e-02
1.509541e-02 6.950613e-03 -2.392319e-02
1.506756e-02 -4.406718e-03 2.315630e-02
1.506975e-02 4.405515e-03 2.315939e-02
-6.250088e-03 1.291777e-02 2.361488e-02
3.757629e-03 -1.055680e-02 -2.701854e-02
-1.392822e-02 4.761215e-04 2.397463e-02
1.434058e-04 2.837381e-04 2.755964e-02
-1.390151e-02 -4.498895e-04 2.398596e-02
-1.262749e-02 3.847774e-03 2.419172e-02
-1.262536e-02 -3.855405e-03 2.419119e-02
-5.787078e-03 -2.273331e-02 -1.695732e-02
-1.657245e-02 1.648030e-02 -1.703766e-02
1.018654e-02 1.763670e-02 -2.084828e-02
1.018705e-02 -1.763772e-02 -2.084914e-02
1.546950e-02 1.692252e-02 -1.807177e-02
1.546982e-02 -1.692485e-02 -1.807275e-02
-5.441953e-03 2.229474e-02 -1.802708e-02
-9.856128e-05 -8.405582e-05 2.771706e-02
1.367524e-02 1.361325e-02 -2.180071e-02
1.387497e-02 1.295460e-02 -2.209332e-02
1.566153e-02 -1.126605e-02 -2.183809e-02
1.837621e-02 5.843069e-03 -2.184353e-02
1.090485e-02 1.526830e-02 -2.220915e-02
8.324367e-03 -2.435401e-02 -1.316220e-02
2.388571e-02 -1.484116e-02 3.959490e-03
-7.046444e-03 -5.104673e-03 -2.798523e-02
-1.562516e-02 2.038566e-02 -1.328417e-02
-1.563796e-02 -2.039360e-02 -1.327189e-02
-7.011931e-06 5.860951e-05 2.765458e-02
-2.107881e-02 -1.903052e-02 2.043583e-04
-1.427017e-03 2.374073e-02 -1.670049e-02
1.538041e-03 -1.068583e-02 -2.736195e-02
-1.057752e-02 -1.085618e-02 2.321109e-02
4.252785e-03 1.462485e-02 2.318744e-02
-4.181506e-03 1.458242e-02 2.319472e-02
-5.063320e-03 1.436630e-02 2.318661e-02
-5.795739e-03 1.406624e-02 2.321318e-02
-2.185468e-03 -1.505617e-02 2.322377e-02
-3.106201e-03 2.585373e-02 -1.268965e-02
-1.185822e-04 5.035534e-04 2.776188e-02
2.748272e-02 -7.773016e-03 2.232787e-03
-2.450733e-02 -1.315922e-02 -7.842012e-03
-5.266254e-03 -1.390754e-02 2.333630e-02
-2.257524e-03 2.359644e-02 -1.666223e-02
1.557958e-02 6.725084e-03 -2.354995e-02
1.677697e-02 2.400046e-03 -2.363916e-02
7.397790e-04 -1.692636e-02 -2.361505e-02
7.977267e-03 1.495186e-02 -2.359275e-02
1.693904e-02 3.199354e-04 -2.364632e-02
1.693162e-02 9.103059e-04 -2.364531e-02
-2.569482e-04 3.607921e-05 2.752886e-02
7.723455e-03 1.487227e-02 2.249739e-02
1.678455e-02 -1.654599e-04 2.253150e-02
1.661269e-02 2.442790e-03 2.253587e-02
8.740037e-03 1.439502e-02 2.251656e-02
1.566634e-02 6.169570e-03 2.249178e-02
1.580421e-02 -5.844066e-03 2.236139e-02
-2.775919e-03 -1.670391e-02 2.246668e-02
1.336334e-02 1.011381e-02 2.250485e-02
-1.151346e-03 -1.678506e-02 2.249413e-02
9.665206e-04 -1.689530e-02 2.249834e-02
3.393990e-05 -5.041354e-04 2.771439e-02
1.674750e-02 9.598284e-04 2.252763e-02
3.355036e-03 -1.652604e-02 2.254290e-02
1.342091e-02 -1.020022e-02 2.237706e-02
1.426238e-02 8.947057e-03 2.253701e-02
-1.646139e-04 -1.680567e-02 2.248976e-02
1.024162e-02 -1.341903e-02 2.246256e-02
1.517337e-02 7.156987e-03 2.255525e-02
-1.557033e-02 -3.218119e-03 2.316772e-02
-2.599967e-02 -8.932649e-03 -9.073653e-03
-2.600011e-02 8.932389e-03 -9.073280e-03
4.041591e-04 -2.955964e-04 2.775146e-02
-9.271304e-04 1.319872e-02 2.434697e-02
1.913530e-02 -2.098378e-02 1.362365e-05
1.913449e-02 2.098342e-02 1.455410e-05
-6.759793e-03 2.755691e-02 3.097828e-05
2.598928e-02 -1.192569e-02 -3.655303e-04
2.598873e-02 1.192613e-02 -3.652150e-04
1.833059e-02 2.168313e-02 2.761544e-04
1.833063e-02 -2.168322e-02 2.758505e-04
-7.793304e-03 2.728685e-02 2.951216e-04
1.741713e-02 -2.264524e-02 -5.527102e-04
5.787690e-05 2.248128e-04 2.766625e-02
1.742135e-02 2.264194e-02 -5.347571e-04
2.624312e-02 -1.090515e-02 2.722674e-04
2.624315e-02 1.090498e-02 2.724919e-04
2.680737e-02 -9.507542e-03 5.939491e-06
2.680441e-02 9.507875e-03 6.882207e-06
1.638715e-02 2.321532e-02 1.772670e-04
1.638679e-02 -2.321490e-02 1.771651e-04
1.507121e-02 -2.408576e-02 1.019882e-04
1.507106e-02 2.408546e-02 1.020847e-04
-9.310893e-03 2.705852e-02 -5.398219e-04
-4.162967e-05 1.665458e-04 2.766907e-02
-1.376129e-02 -4.049052e-03 -2.490571e-02
-1.375778e-02 4.054963e-03 -2.493503e-02
1.076549e-02 8.357411e-03 2.428033e-02
-1.160658e-02 8.248439e-03 2.388409e-02
-1.426137e-02 -2.413856e-02 4.267246e-03
-1.426143e-02 2.413783e-02 4.267549e-03
-1.109587e-02 -2.213528e-02 -1.503291e-02
3.325896e-03 1.177144e-02 -2.658334e-02
8.472720e-03 -8.843600e-03 -2.658873e-02
6.481883e-03 -1.039978e-02 -2.659667e-02
2.354390e-04 1.792934e-04 2.756696e-02
-5.049454e-05 1.517654e-04 2.768236e-02
8.475124e-03 -7.543134e-04 -2.806482e-02
7.515106e-03 -3.855724e-03 -2.807144e-02
4.175080e-03 -7.392261e-03 -2.806816e-02
2.583756e-03 8.136559e-03 -2.807852e-02
8.104298e-03 -2.692713e-03 -2.809273e-02
1.000144e-03 8.356753e-03 -2.817462e-02
8.382821e-03 -1.469554e-03 -2.808187e-02
2.541997e-03 -8.152301e-03 -2.807982e-02
5.702266e-03 -6.364831e-03 -2.805950e-02
8.133206e-03 -2.163727e-03 -2.806808e-02
-6.121689e-05 1.498579e-04 2.780072e-02
1.053986e-03 -8.447241e-03 -2.807869e-02
3.408552e-03 7.681105e-03 -2.816767e-02
1.593194e-03 8.389973e-03 -2.806215e-02
-2.191607e-03 -8.216183e-03 -2.803458e-02
4.754444e-03 -7.090287e-03 -2.804733e-02
2.036085e-03 -8.171239e-03 -2.807252e-02
-1.648761e-03 -8.246861e-03 -2.808521e-02
-2.655086e-03 -7.970482e-03 -2.808075e-02
7.813007e-03 -3.401209e-03 -2.808027e-02
6.453908e-03 -5.488200e-03 -2.808567e-02
-1.266936e-04 1.042361e-04 2.764333e-02
3.005560e-03 -7.971028e-03 -2.807922e-02
7.351331e-03 -4.287027e-03 -2.804381e-02
3.410859e-03 -7.695579e-03 -2.817747e-02
5.656578e-03 6.182582e-03 -2.808602e-02
2.380180e-04 8.422582e-03 -2.814822e-02
2.199074e-02 1.778046e-02 1.931001e-03
-1.705914e-02 1.103968e-02 -2.079812e-02
9.102580e-03 2.697608e-02 -5.811633e-04
-3.518745e-03 -2.811461e-02 -5.384852e-04
-2.700553e-02 8.652003e-03 -5.379577e-04
-4.426120e-05 7.384052e-05 2.757277e-02
-2.138120e-02 1.859569e-02 -4.834017e-04
-2.741913e-02 7.576821e-03 -5.546475e-04
-1.157233e-02 -2.584259e-02 -5.079213e-04
-2.434104e-02 1.456761e-02 -5.512034e-04
-2.155905e-02 -1.832324e-02 -5.670114e-04
-2.787545e-02 5.186148e-03 -5.018397e-04
-1.004043e-03 -2.828020e-02 -5.379138e-04
-9.761509e-03 2.663363e-02 -5.428725e-04
-1.131801e-02 2.596759e-02 -5.432540e-04
5.365050e-03 2.778718e-02 -5.262700e-04
-3.355548e-05 -1.207866e-04 2.771656e-02
7.591537e-03 2.733585e-02 -5.397202e-04
-3.209673e-03 2.817985e-02 -5.008080e-04
-6.629288e-03 2.765295e-02 -5.550171e-04