# vtk DataFile Version 2.0
Electric current density generated by TTH
ASCII
DATASET UNSTRUCTURED_GRID
POINTS 1775 double
2.131106e-05 -5.219703e-21 -4.368112e-22
1.944143e-05 8.728803e-06 -4.368112e-22
-1.497660e-06 -2.125837e-05 -4.368112e-22
1.865622e-05 -9.920013e-06 -7.837107e-07
1.273214e-05 1.492844e-05 1.780996e-06
-1.400040e-05 1.570776e-05 -9.427542e-07
-1.397675e-05 -1.571801e-05 9.555826e-07
1.029502e-05 -1.535418e-05 1.447724e-06
1.127298e-05 -1.486401e-05 -1.555490e-06
-1.365611e-05 -1.608825e-05 -8.366484e-07
-2.003241e-05 1.659901e-06 -1.688716e-06
5.869240e-06 1.710368e-05 1.045326e-06
3.657941e-07 1.787963e-05 -6.906157e-07
-4.995860e-07 -2.130520e-05 -4.368112e-22
1.982304e-05 7.180246e-06 -8.719146e-07
4.687728e-06 -2.054630e-05 -8.879647e-07
4.687728e-06 2.054630e-05 -8.879647e-07
-3.111009e-06 1.995880e-05 1.651901e-06
2.796947e-06 1.948287e-05 -1.776671e-06
2.796947e-06 -1.948287e-05 -1.776671e-06
-1.784720e-05 -5.202467e-06 -1.517040e-06
1.625221e-05 1.212065e-05 1.619621e-06
1.307170e-05 -1.216474e-05 -6.224611e-07
-9.543105e-06 1.883845e-05 8.075945e-07
4.995860e-07 -2.130520e-05 -4.368112e-22
-1.702580e-05 -1.249236e-05 8.085767e-07
-9.543161e-06 -1.883856e-05 -8.073507e-07
4.015359e-06 -1.818179e-05 -1.535119e-06
4.015359e-06 1.818179e-05 -1.535119e-06
-1.856681e-05 4.282145e-06 -1.719433e-06
-1.697080e-05 1.255718e-05 -8.199342e-07
1.715832e-05 -7.214039e-06 1.531122e-06
-7.653065e-07 1.791007e-05 -7.852719e-07
-2.097602e-05 -2.420888e-06 -8.124224e-07
1.886156e-05 -6.904585e-06 1.693883e-06
1.497660e-06 -2.125837e-05 -4.368112e-22
4.567140e-06 -1.751091e-05 -1.064426e-06
4.551380e-06 1.752332e-05 -1.075147e-06
-1.305133e-05 -1.271177e-05 1.211462e-06
-1.138499e-05 1.361982e-05 1.615047e-07
1.870836e-05 9.904893e-06 -6.984374e-07
-4.124456e-06 1.773385e-05 1.198709e-06
1.519091e-05 1.462055e-05 -8.712685e-07
1.766534e-05 2.002971e-06 3.481415e-07
1.766408e-05 -1.999789e-06 3.399345e-07
-1.795927e-05 -5.911990e-07 8.667349e-07
2.492441e-06 -2.116480e-05 -4.368112e-22
-1.005751e-05 -1.469103e-05 -4.575984e-07
5.439899e-06 -1.692473e-05 3.428228e-07
-1.098481e-05 1.409476e-05 -6.572752e-07
6.977464e-06 1.989974e-05 8.644368e-07
1.650818e-05 -1.126390e-05 1.723805e-06
1.703169e-05 -1.249668e-05 7.940712e-07
-1.726601e-05 -9.612076e-06 1.768050e-06
1.745896e-05 6.050975e-06 1.441682e-06
1.737528e-05 -6.159780e-06 1.409387e-06
7.284257e-06 1.847846e-05 -1.751721e-06
3.481744e-06 -2.102471e-05 -4.368112e-22
7.284257e-06 -1.847846e-05 -1.751721e-06
1.043907e-05 1.834516e-05 8.277533e-07
1.807159e-05 2.127820e-06 -1.186781e-06
1.807156e-05 -2.127757e-06 -1.186747e-06
4.513456e-06 1.918661e-05 -1.774035e-06
4.513456e-06 -1.918661e-05 -1.774035e-06
-4.199410e-06 1.731959e-05 -5.190579e-07
1.372326e-05 1.600652e-05 -8.707456e-07
-4.693028e-06 1.954919e-05 1.687508e-06
-1.794697e-06 1.768119e-05 -3.137776e-07
4.463393e-06 -2.083841e-05 -4.368112e-22
-1.755049e-05 -9.854572e-06 -1.679363e-06
2.078430e-05 -3.614605e-06 8.485108e-07
2.078430e-05 3.614605e-06 8.485108e-07
-1.411672e-05 1.195746e-05 1.457823e-06
7.235249e-07 -2.024260e-05 1.628115e-06
-1.769799e-05 -1.385712e-06 1.680906e-07
1.527223e-05 -9.744983e-06 1.090464e-06
-1.831928e-05 -8.338508e-06 -1.679412e-06
1.591236e-06 1.868857e-05 1.607931e-06
1.528216e-05 1.312116e-05 -1.674173e-06
5.435231e-06 -2.060629e-05 -4.368112e-22
-1.318332e-06 -2.008803e-05 -1.678165e-06
-1.825076e-05 1.614693e-06 -1.314207e-06
1.087982e-05 1.491418e-05 1.429182e-06
1.221000e-05 1.622826e-05 -1.603316e-06
1.905143e-05 7.467055e-07 -1.722649e-06
1.905143e-05 -7.467055e-07 -1.722649e-06
1.985211e-05 7.237634e-06 7.823371e-07
-1.621791e-05 8.151385e-06 1.134003e-06
-4.099149e-06 -2.070168e-05 -8.347922e-07
-1.730429e-05 4.225989e-06 -4.899652e-07
6.395120e-06 -2.032888e-05 -4.368112e-22
-2.111483e-05 4.148586e-07 -8.052711e-07
-1.603181e-05 -7.807657e-06 -5.524768e-07
-1.798134e-05 -2.337588e-07 -8.911944e-07
-1.821774e-05 -8.477645e-06 1.691201e-06
-6.614986e-06 -1.910598e-05 -1.644077e-06
1.220643e-05 -1.630410e-05 -1.573467e-06
-2.026599e-06 1.870916e-05 -1.636414e-06
2.097228e-05 -2.202166e-06 8.643821e-07
2.097228e-05 2.202166e-06 8.643821e-07
1.644434e-05 -8.538797e-06 1.477662e-06
7.340952e-06 -2.000679e-05 -4.368112e-22
8.072044e-06 1.806330e-05 -1.764770e-06
8.075319e-06 -1.807565e-05 -1.762886e-06
-1.490358e-05 -9.707069e-06 3.840120e-07
-1.579371e-05 1.404293e-05 -7.747477e-07
-1.579371e-05 -1.404293e-05 7.747477e-07
1.720980e-05 -7.621056e-06 -1.637766e-06
-1.704827e-05 -1.076250e-05 -1.667076e-06
1.988712e-05 -7.044829e-06 -8.452427e-07
-1.790647e-05 -3.208541e-06 -1.181410e-06
1.177060e-05 1.327847e-05 2.728125e-08
1.901092e-05 9.630473e-06 -4.368112e-22
8.270647e-06 -1.964071e-05 -4.368112e-22
8.786474e-06 -1.665725e-05 1.642400e-06
1.308827e-05 -1.285466e-05 -1.335044e-06
1.830970e-05 -5.959648e-06 1.762485e-06
1.115860e-05 -1.668345e-05 1.698573e-06
-1.842589e-05 9.045748e-06 1.477420e-06
-1.542488e-05 -1.324473e-05 -1.592223e-06
-1.839525e-05 7.447404e-06 1.754838e-06
1.638403e-05 8.538265e-06 1.439880e-06
-1.995474e-05 6.107509e-07 -1.729188e-06
1.717243e-05 1.047344e-05 -1.684161e-06
9.182161e-06 -1.923146e-05 -4.368112e-22
1.181230e-05 1.386048e-05 1.203018e-06
-1.615023e-05 7.634413e-06 -6.419610e-07
-2.145992e-06 -1.761751e-05 -1.117966e-07
2.567866e-06 -1.785634e-05 9.836785e-07
2.568445e-06 1.785540e-05 9.823940e-07
3.617346e-07 2.107738e-05 -8.770605e-07
-1.725839e-05 9.852148e-06 -1.749753e-06
-2.024947e-05 1.140171e-06 1.616231e-06
9.633054e-06 1.556006e-05 1.294182e-06
-1.577940e-05 8.856706e-06 -1.062196e-06
1.007349e-05 -1.877993e-05 -4.368112e-22
1.736192e-05 -3.781750e-06 2.963608e-07
1.737354e-05 3.774453e-06 3.495637e-07
1.557985e-05 -1.253982e-05 1.719869e-06
1.688510e-05 5.461456e-06 -8.786183e-08
1.555145e-05 -8.752252e-06 5.914639e-07
1.050562e-05 -1.829985e-05 -8.396925e-07
1.050078e-05 1.830490e-05 -8.359934e-07
1.689819e-05 -5.440757e-06 -1.714299e-07
1.284592e-05 1.447778e-05 -1.775061e-06
-1.985235e-05 -2.111493e-06 1.729129e-06
1.094268e-05 -1.828712e-05 -4.368112e-22
4.604332e-07 -2.019836e-05 -1.650346e-06
1.941023e-05 8.313476e-06 -8.116557e-07
-1.357799e-05 1.157271e-05 5.785517e-07
-2.016791e-05 -6.344482e-06 7.572434e-07
1.126572e-05 1.490891e-05 -1.572695e-06
1.957017e-05 4.536038e-06 1.692771e-06
1.053964e-06 2.110449e-05 7.813199e-07
-1.397272e-05 1.094109e-05 -9.355764e-08
1.560608e-05 8.719055e-06 6.741861e-07
1.629264e-05 7.134579e-06 3.851179e-07
1.178781e-05 -1.775412e-05 -4.368112e-22
8.664045e-06 1.607061e-05 1.251760e-06
-1.521820e-05 -1.002894e-05 1.218736e-06
-1.561849e-05 1.418782e-05 8.406289e-07
-5.933975e-06 2.029469e-05 -7.527276e-07
-5.823262e-06 -2.032207e-05 7.622885e-07
8.654099e-06 -1.924368e-05 8.414604e-07
1.696852e-05 1.075145e-05 1.693123e-06
-1.033855e-05 -1.449990e-05 4.734812e-07
1.627557e-06 -1.875701e-05 1.640235e-06
-9.770906e-06 1.778088e-05 1.612884e-06
1.260703e-05 -1.718208e-05 -4.368112e-22
-1.317399e-05 -1.307991e-05 -1.500935e-06
1.946639e-05 -8.069749e-06 8.906089e-07
-9.759523e-06 -1.778897e-05 -1.612123e-06
1.785796e-05 8.906321e-06 -1.731287e-06
1.872977e-05 -9.679707e-06 8.722613e-07
2.018068e-05 -6.335900e-06 7.364123e-07
-1.953785e-05 7.963047e-06 8.447661e-07
7.522451e-06 1.607169e-05 5.406219e-08
5.560344e-06 2.035308e-05 -8.435510e-07
5.560344e-06 -2.035308e-05 -8.435510e-07
1.339853e-05 -1.657228e-05 -4.368112e-22
-1.719727e-05 9.294965e-06 1.783295e-06
1.823767e-05 -4.518903e-06 1.623346e-06
1.601451e-05 -1.372848e-05 -8.536155e-07
5.289825e-06 1.696008e-05 2.770900e-07
-1.625662e-05 -1.230940e-05 -1.560427e-06
1.717726e-05 7.631353e-06 -1.626508e-06
-1.903431e-05 6.166471e-06 -1.717436e-06
-1.610243e-05 -1.066366e-05 -1.770485e-06
-1.007639e-05 1.547981e-05 -1.436306e-06
-1.007639e-05 -1.547981e-05 1.436306e-06
1.416059e-05 -1.592604e-05 -4.368112e-22
1.625094e-05 -9.868854e-06 1.707496e-06
7.461713e-06 -1.609908e-05 3.117895e-09
-2.013144e-05 -2.415041e-06 -1.618908e-06
-1.775700e-05 3.043549e-07 -2.337329e-07
6.119167e-07 2.021353e-05 -1.642359e-06
2.599269e-06 2.093582e-05 8.479847e-07
8.036321e-06 1.709692e-05 -1.666088e-06
-4.792445e-07 1.793371e-05 8.126057e-07
6.190430e-06 1.923351e-05 1.649701e-06
1.062724e-05 -1.555067e-05 -1.643468e-06
1.489151e-05 -1.524480e-05 -4.368112e-22
9.644059e-06 1.490058e-05 1.336004e-07
-1.971374e-05 4.161282e-06 1.671989e-06
9.736437e-06 1.538320e-05 -1.196903e-06
-9.014772e-06 1.629541e-05 -1.536797e-06
-9.014772e-06 -1.629541e-05 1.536797e-06
4.279742e-06 -1.764503e-05 1.140583e-06
4.177288e-06 1.767381e-05 1.145527e-06
-1.048527e-05 -1.835819e-05 7.589082e-07
-1.048527e-05 1.835819e-05 -7.589082e-07
1.514478e-05 -1.156516e-05 -1.719824e-06
1.558970e-05 -1.453004e-05 -4.368112e-22
-3.724940e-06 -1.762681e-05 -9.464691e-07
-1.510032e-05 1.304719e-05 1.731166e-06
1.305892e-05 1.289981e-05 -1.344501e-06
-1.712856e-05 6.605542e-06 1.346412e-06
-7.750733e-06 1.968390e-05 -7.297906e-07
-7.750733e-06 -1.968390e-05 7.297906e-07
-1.763878e-05 2.698848e-06 -5.883236e-07
-1.245782e-05 -1.380182e-05 -1.518687e-06
9.515033e-06 -1.497997e-05 8.858008e-08
-1.988532e-05 7.161743e-06 7.712447e-07
1.853862e-05 1.051097e-05 -4.368112e-22
1.625363e-05 -1.378335e-05 -4.368112e-22
-1.807600e-05 -1.091333e-05 8.129538e-07
-4.284748e-06 -2.066354e-05 8.357474e-07
5.202218e-07 -1.863891e-05 -1.550350e-06
-1.675212e-05 -6.162760e-06 -6.043448e-07
-1.302052e-05 -1.589237e-05 -1.464696e-06
-1.808095e-05 8.371510e-06 -1.738602e-06
-1.706907e-05 -5.045738e-06 4.395297e-07
-1.011330e-05 -1.632916e-05 -1.754411e-06
1.801011e-05 -9.110755e-06 -1.658475e-06
-5.762812e-06 1.724381e-05 1.169573e-06
1.688182e-05 -1.300636e-05 -4.368112e-22
6.235349e-06 -1.693000e-05 9.862554e-07
1.658527e-05 -6.336565e-06 1.914403e-07
1.563726e-05 -1.275706e-05 -1.659488e-06
-2.109965e-05 -1.561791e-07 8.411599e-07
1.753543e-05 1.180575e-05 7.637728e-07
8.890559e-06 1.836976e-05 -1.550927e-06
8.890559e-06 -1.836976e-05 -1.550927e-06
[...]
POINT_DATA 1775
VECTORS 10.000GHz_fone_imag double
1.445270e-04 2.361436e-04 1.982178e-02
-2.800929e-04 -3.894280e-04 2.029232e-02
-4.585461e-04 5.066050e-04 1.847576e-02
8.359848e-03 -3.815879e-03 1.918018e-02
-1.754285e-02 -2.063139e-02 3.669388e-04
-6.106181e-03 8.517675e-03 1.656013e-02
8.017941e-03 9.286225e-03 1.759745e-02
-1.405629e-02 2.141120e-02 -2.030245e-02
1.548601e-02 -2.078963e-02 -1.471640e-02
-6.169521e-03 -8.231590e-03 1.710801e-02
-2.387930e-02 3.368418e-03 6.067257e-03
-6.132542e-03 -2.086488e-02 -2.903422e-02
4.500645e-04 1.414557e-02 -3.413876e-02
3.705407e-04 -7.517414e-04 1.887130e-02
1.019618e-02 3.597197e-03 1.637012e-02
2.416433e-03 -1.113014e-02 1.543711e-02
2.936834e-03 8.660069e-03 1.708880e-02
3.040604e-03 -2.182200e-02 8.146154e-03
2.338200e-03 2.604385e-02 -6.646384e-04
3.381841e-03 -2.475717e-02 -3.054861e-05
-2.407030e-02 -7.374388e-03 -1.810503e-02
-1.650620e-02 -1.157277e-02 9.865004e-03
9.429320e-03 -9.537700e-03 -3.398895e-02
4.689395e-03 -9.254866e-03 1.801596e-02
1.173727e-04 8.312135e-05 2.019425e-02
8.657781e-03 6.148702e-03 1.830296e-02
-4.275469e-03 -8.913849e-03 1.789221e-02
5.976792e-03 -2.725775e-02 -1.781766e-02
5.509239e-03 2.413446e-02 -1.636700e-02
-2.413994e-02 6.014451e-03 -8.114047e-03
-8.689797e-03 6.460820e-03 1.788065e-02
-2.363385e-02 1.059585e-02 -1.581843e-02
-1.031799e-03 1.634931e-02 -3.215990e-02
-1.044997e-02 -1.250467e-03 1.620770e-02
-2.019509e-02 7.548059e-03 7.217165e-03
1.603852e-05 -1.251973e-04 1.940226e-02
4.143541e-03 -1.788729e-02 -2.851561e-02
5.341536e-03 2.071226e-02 -2.774051e-02
1.604993e-02 1.570131e-02 -2.695331e-02
1.345970e-03 -8.225191e-04 -3.737254e-02
7.494029e-03 3.904503e-03 1.912121e-02
4.837557e-03 -2.190110e-02 -2.742844e-02
6.112835e-03 6.915792e-03 1.787232e-02
-7.710362e-03 -6.739029e-04 -3.758648e-02
-7.514086e-03 -1.038703e-05 -3.528365e-02
1.712172e-02 1.971029e-03 -2.739943e-02
5.199056e-04 5.767653e-04 1.871957e-02
-4.582548e-03 -7.957945e-03 -3.705946e-02
-3.106028e-03 5.093069e-03 -3.342001e-02
-8.765091e-03 9.033608e-03 -3.236902e-02
-3.095775e-03 -9.851481e-03 1.811966e-02
-1.785745e-02 1.270746e-02 5.358977e-03
-8.323475e-03 5.994445e-03 1.871397e-02
2.334049e-02 1.323577e-02 1.895995e-03
-2.467028e-02 -8.809941e-03 -2.019378e-02
-2.425605e-02 9.213508e-03 -2.212354e-02
9.314108e-03 2.386142e-02 3.706328e-03
-5.391853e-05 -8.362461e-05 2.018063e-02
9.789982e-03 -2.431192e-02 3.658248e-03
-4.697754e-03 -8.823372e-03 1.781319e-02
2.084256e-02 3.818713e-03 -2.518034e-02
1.994096e-02 -2.108668e-03 -2.431588e-02
6.419332e-03 2.687651e-02 9.382374e-04
6.947775e-03 -2.621219e-02 1.622881e-03
-3.983326e-03 9.743285e-03 -3.545344e-02
7.003396e-03 8.707260e-03 1.767705e-02
5.957166e-03 -2.175267e-02 8.705071e-03
1.678903e-04 7.033099e-03 -3.563679e-02
8.993292e-06 -1.865711e-04 2.123123e-02
-1.830979e-02 -1.029791e-02 7.554787e-03
-1.148201e-02 2.029093e-03 1.821643e-02
-1.069656e-02 -1.750496e-03 1.651768e-02
1.673706e-02 -1.587848e-02 -1.944896e-02
-9.441195e-04 1.976253e-02 7.736484e-03
4.498189e-03 9.330853e-05 -3.853991e-02
-1.832935e-02 1.195279e-02 -2.944923e-02
-2.157483e-02 -9.343545e-03 8.420248e-03
-2.501153e-03 -2.926864e-02 -1.511924e-02
1.618144e-02 1.448935e-02 7.435541e-03
1.379429e-04 4.628266e-04 2.127881e-02
-8.113296e-04 -2.316399e-02 6.716425e-03
-2.496411e-02 1.708782e-03 -2.394172e-02
-1.551498e-02 -2.115047e-02 -2.110566e-02
1.271175e-02 1.697712e-02 8.521849e-03
2.791745e-02 2.153620e-03 -7.973823e-03
2.845696e-02 -1.071269e-03 -9.888017e-03
-9.574709e-03 -3.560124e-03 1.810805e-02
1.997141e-02 -9.809149e-03 -2.370067e-02
-1.375914e-03 -8.936648e-03 1.828097e-02
-9.146054e-03 2.096874e-03 -3.705881e-02
-2.714425e-04 -2.997569e-04 2.029161e-02
-9.577335e-03 3.567640e-04 1.910593e-02
-9.166789e-03 -4.128810e-03 -3.240965e-02
-1.787842e-02 -9.906915e-04 -3.267647e-02
2.001432e-02 9.898063e-03 5.669202e-03
-7.821325e-03 -2.171633e-02 7.235008e-03
1.382832e-02 -1.616837e-02 1.002182e-02
-3.163181e-03 2.851007e-02 -1.406825e-02
-1.121246e-02 1.289863e-03 1.533735e-02
-9.689820e-03 -1.160544e-03 1.802836e-02
-2.401956e-02 1.216508e-02 -1.911894e-02
-1.798089e-04 -6.288599e-04 1.987753e-02
9.222133e-03 2.418026e-02 2.049353e-03
1.045526e-02 -2.436424e-02 2.963667e-03
6.541504e-03 4.067461e-03 -3.722840e-02
-7.139197e-03 6.451098e-03 1.803184e-02
6.840858e-03 6.122502e-03 1.815597e-02
2.321419e-02 -8.743486e-03 -1.255551e-02
-1.769549e-02 -1.203011e-02 7.746385e-03
8.104914e-03 -2.554515e-03 1.826476e-02
-2.329858e-02 -4.388667e-03 -2.702744e-02
-7.001834e-04 2.074156e-04 -3.443331e-02
-1.085709e-03 4.272148e-04 1.948441e-02
1.044556e-03 -2.618801e-04 1.990481e-02
-1.138095e-02 2.223321e-02 -1.347017e-02
1.568467e-02 -1.469595e-02 -2.068259e-02
-2.704222e-02 9.606648e-03 -5.056374e-03
-1.334816e-02 1.981617e-02 7.025340e-03
1.688285e-02 -1.015585e-02 1.139314e-02
-1.498288e-02 -1.222625e-02 1.068487e-02
2.368656e-02 -8.478485e-03 2.484823e-03
-2.386863e-02 -1.161180e-02 -1.961105e-02
-2.423514e-02 9.426998e-04 2.818461e-03
2.014050e-02 1.235938e-02 7.663710e-03
1.193348e-05 5.159507e-04 1.991927e-02
-1.286838e-02 -1.752338e-02 -2.789465e-02
-1.264793e-02 5.619839e-03 -3.309221e-02
-6.281549e-04 -1.042558e-03 -3.851808e-02
-2.919511e-03 1.855024e-02 -3.185512e-02
-3.640983e-03 -1.849480e-02 -3.071544e-02
-1.142272e-03 1.181002e-02 1.641566e-02
-2.241328e-02 1.296413e-02 3.274934e-03
2.210890e-02 -2.687763e-04 9.067603e-03
-1.303347e-02 -2.094131e-02 -2.428242e-02
-1.861942e-02 1.010789e-02 -2.391702e-02
-1.435502e-04 3.933549e-04 1.817177e-02
-4.374228e-03 2.198623e-03 -3.670878e-02
-7.815947e-03 -3.381842e-03 -3.528161e-02
-1.833590e-02 1.361315e-02 4.951094e-03
-1.591366e-03 -3.064197e-04 -3.419590e-02
-6.833388e-03 4.535343e-03 -3.510201e-02
5.274100e-03 -8.894849e-03 1.912046e-02
5.138051e-03 9.528512e-03 1.792106e-02
2.086653e-03 -3.237973e-04 -3.745734e-02
1.929796e-02 2.122145e-02 -3.593315e-03
2.545283e-02 3.296353e-03 4.577862e-03
-7.656623e-04 1.831878e-03 1.780404e-02
2.498690e-04 -2.090094e-02 6.513613e-03
9.329827e-03 3.924769e-03 1.801409e-02
9.972427e-03 -8.790697e-03 -3.456928e-02
8.961134e-03 2.683425e-03 1.820526e-02
1.684098e-02 2.242346e-02 -1.512179e-02
-2.261950e-02 -5.997865e-03 7.517986e-03
-9.661166e-06 -1.004553e-02 1.858160e-02
-6.624728e-04 1.136615e-03 -3.562733e-02
-1.207081e-02 -6.927034e-03 -3.151697e-02
-8.115306e-03 -3.429734e-03 -3.638525e-02
-4.004338e-04 1.310469e-03 1.899695e-02
-1.032720e-02 -2.220797e-02 -2.672152e-02
2.015375e-02 1.443136e-02 -2.467116e-02
7.546675e-03 -6.213897e-03 1.792607e-02
-1.378275e-03 8.574915e-03 1.713124e-02
2.300179e-03 9.291384e-03 1.834511e-02
-3.920556e-03 8.219009e-03 1.690358e-02
-1.885119e-02 -1.307528e-02 6.388271e-03
5.387265e-03 8.162661e-03 -3.175791e-02
-2.635189e-03 2.853290e-02 -1.351178e-02
1.085891e-02 -1.737830e-02 9.103934e-03
-1.165569e-03 -3.069111e-04 2.017780e-02
-1.965706e-02 -1.998995e-02 -1.896663e-02
-8.631049e-03 4.211127e-03 1.767113e-02
-1.056966e-02 -1.767594e-02 7.733977e-03
2.173093e-02 9.584267e-03 4.211654e-03
-8.780833e-03 3.651541e-03 1.701983e-02
-9.392019e-03 3.374397e-03 1.641524e-02
8.854360e-03 -3.934824e-03 1.791861e-02
5.190355e-04 1.867721e-04 -3.807857e-02
1.359249e-03 8.073201e-03 1.722541e-02
3.077122e-03 -1.034099e-02 1.770123e-02
1.496678e-04 -5.688260e-04 2.048255e-02
2.461285e-02 -1.347637e-02 -1.187254e-03
-2.615421e-02 5.188037e-03 -1.611421e-02
6.868665e-03 -6.841087e-03 1.798111e-02
-7.971925e-04 -5.973099e-03 -3.750431e-02
-1.564486e-02 -1.173898e-02 9.738624e-03
2.563652e-02 1.131047e-02 -1.417483e-02
-2.257368e-02 8.242710e-03 6.852650e-03
-2.436197e-02 -1.552430e-02 -3.661949e-03
-1.482283e-02 2.020192e-02 -1.825415e-02
1.349459e-02 2.160341e-02 -2.199908e-02
4.914371e-04 -5.527768e-04 2.072117e-02
-2.423338e-02 1.538350e-02 -9.597238e-03
-4.024002e-04 -4.780653e-05 -3.818711e-02
-2.159542e-02 -2.164124e-03 9.528372e-03
-3.377430e-03 1.210883e-04 -3.831535e-02
1.849805e-04 2.104051e-02 7.743856e-03
-1.872002e-03 -1.113391e-02 1.850138e-02
1.129433e-02 2.463652e-02 -1.220572e-02
2.538972e-03 -1.627247e-02 -3.125753e-02
-7.493275e-03 -2.168364e-02 7.959537e-03
1.581919e-02 -2.374297e-02 -1.222352e-02
5.610594e-04 7.539489e-05 2.063006e-02
-2.019747e-03 -4.897917e-05 -3.459400e-02
2.139159e-02 -5.619702e-03 8.401533e-03
1.223193e-02 1.788807e-02 -2.682294e-02
-1.117197e-02 2.401203e-02 -1.633545e-02
1.290591e-02 2.394175e-02 -1.702955e-02
-4.960716e-03 2.107150e-02 -2.798367e-02
-6.866288e-03 -2.075459e-02 -2.573525e-02
4.199061e-03 8.453922e-03 1.778872e-02
-3.718525e-03 8.167391e-03 1.752162e-02
2.249634e-02 -1.730919e-02 -8.614496e-03
2.221540e-05 -9.963857e-05 1.840929e-02
-1.586883e-03 -1.898178e-02 -2.999275e-02
1.940564e-02 -1.550923e-02 5.390328e-03
1.694847e-02 1.664286e-02 -2.155589e-02
2.186360e-02 -1.030450e-02 -2.205792e-02
-3.851861e-03 7.574529e-03 1.746538e-02
4.291160e-03 8.123208e-03 1.819065e-02
-1.195082e-02 2.073308e-03 -3.143723e-02
-1.892798e-02 -2.065913e-02 -1.799631e-02
-2.721896e-03 3.729219e-03 -3.575324e-02
8.722152e-03 -3.478929e-03 1.651746e-02
-1.313582e-04 -1.065853e-03 2.004072e-02
2.507848e-04 -3.257753e-04 1.918630e-02
7.071486e-03 4.658242e-03 1.761414e-02
7.330177e-04 7.348610e-03 1.755740e-02
7.589110e-04 -2.792069e-02 -1.627950e-02
-7.954871e-03 -1.479189e-03 -3.337153e-02
-1.211971e-02 -1.325444e-02 1.071093e-02
-2.408479e-02 1.060770e-02 4.605280e-03
8.883420e-03 9.815898e-04 -3.666870e-02
-1.431415e-02 -2.449236e-02 -5.754382e-03
2.208177e-02 -1.067164e-02 6.976208e-03
7.316086e-03 -2.053546e-02 -2.287376e-02
3.321458e-05 -2.802821e-04 1.992380e-02
-6.787198e-03 1.704769e-02 -2.935538e-02
-5.471088e-03 8.320374e-04 -3.412229e-02
1.761891e-02 -1.346079e-02 7.268370e-03
7.738653e-03 3.167187e-04 1.619674e-02
-7.406856e-03 -5.735906e-03 1.808472e-02
9.449139e-03 1.955380e-02 1.069728e-02
7.989641e-03 -1.951551e-02 9.493255e-03
-2.617644e-03 9.906821e-03 1.695993e-02
1.025583e-02 -9.469622e-04 -3.664128e-02
9.021964e-03 5.770843e-04 -3.678570e-02
3.250499e-04 4.352665e-04 1.969605e-02
3.732036e-03 1.672516e-02 -2.931434e-02
2.160586e-02 1.308248e-02 -1.013062e-03
8.812401e-03 2.404671e-03 1.904895e-02
1.333389e-02 -1.569014e-02 7.999821e-03
-3.082114e-03 9.688633e-03 1.703279e-02
-8.595517e-05 -6.111443e-03 -3.366903e-02
-8.888903e-04 4.154655e-03 -3.374396e-02
-2.245098e-02 -6.120491e-03 8.900123e-03
3.708947e-03 -7.268153e-03 1.839479e-02
9.188740e-03 -2.522191e-03 1.876595e-02
1.019619e-03 -6.817743e-04 1.839371e-02
-2.692160e-02 9.683662e-03 -1.212024e-02
-1.409919e-02 -1.257833e-02 -2.715638e-02
1.525377e-03 3.808210e-03 -3.715019e-02
-1.546023e-02 1.782045e-02 8.539826e-03
1.405007e-02 1.656376e-02 5.839621e-03
2.295724e-02 1.174168e-03 9.520727e-03
-6.190296e-03 2.475695e-03 1.659515e-02
-2.625383e-02 9.926288e-03 -2.333601e-03
-1.044199e-03 -1.514082e-02 -3.339842e-02
2.110243e-02 -1.102924e-02 -2.125415e-02
-9.250000e-04 1.491688e-03 1.973359e-02
5.910734e-04 8.500481e-03 1.867644e-02
-7.317607e-03 -2.352008e-02 -1.254738e-02
1.547612e-02 -2.449679e-02 -6.292442e-03
9.157395e-03 3.481771e-03 1.797344e-02
-3.934832e-03 -2.400093e-02 7.407643e-03
-4.335812e-03 2.016329e-02 8.362392e-03
1.932633e-02 -2.210827e-02 -5.671511e-03
6.522560e-03 5.117695e-03 1.757569e-02
-6.146497e-04 -2.417094e-02 5.816988e-03
8.942291e-03 -8.731954e-03 -3.475646e-02
-1.695289e-03 5.840591e-04 1.805903e-02
-1.159682e-02 1.639990e-02 -2.346525e-02
1.030817e-02 -2.549158e-03 -3.515614e-02
1.078053e-02 1.288824e-03 -3.538006e-02
8.099070e-03 -6.850773e-03 -3.545792e-02
-6.264381e-03 -6.096925e-03 1.840399e-02
3.437466e-04 -7.898505e-04 -3.752972e-02
-1.643141e-02 -2.129111e-02 -4.870217e-03
8.510483e-03 -9.260282e-04 1.832883e-02
8.333662e-04 9.259644e-03 1.896525e-02
1.650282e-02 -2.283438e-02 -1.978655e-02
-4.880289e-04 1.361770e-04 1.811080e-02
2.302139e-02 -1.342492e-02 -3.673654e-03
-2.428702e-03 -2.639980e-02 -5.182905e-03
-2.268597e-02 -1.081069e-02 3.772161e-03
1.963839e-03 2.261687e-02 8.588717e-03
-4.914913e-03 8.621424e-03 1.742255e-02
2.815643e-02 -7.972770e-03 -5.085326e-03
-7.205417e-03 6.125361e-04 1.833886e-02
1.025667e-02 -2.040120e-02 7.213503e-03
7.934776e-03 2.525870e-02 -8.696552e-03
8.416937e-03 -2.635014e-02 -7.807387e-03
-2.988521e-04 -5.286316e-04 1.931587e-02
-1.051823e-03 8.155420e-03 1.717037e-02
1.234188e-02 -4.661023e-03 -3.308908e-02
5.050435e-03 7.088963e-03 -3.415391e-02
1.816099e-03 -9.824789e-03 1.778606e-02
1.820652e-03 -1.026342e-02 -3.217465e-02
4.010993e-03 1.375582e-02 -3.427288e-02
-1.086093e-02 -2.577902e-02 -8.114241e-03
1.055264e-02 -2.369898e-02 -7.301155e-03
-7.946888e-04 1.319536e-02 -3.147123e-02
-3.184361e-03 -1.496164e-03 -3.545770e-02
3.834648e-04 5.995371e-04 1.934299e-02
-4.000542e-03 -2.538308e-02 -9.080480e-03
-2.099741e-02 -1.053848e-03 -2.680982e-02
-2.105800e-02 1.380968e-03 -2.283495e-02
-7.717678e-03 -4.392028e-03 1.772732e-02
-1.885771e-02 1.005617e-02 7.958495e-03
-4.026440e-03 -8.038886e-03 1.807186e-02
-2.662221e-02 -1.010200e-02 -1.528615e-02
-1.004333e-02 -1.505263e-04 1.787989e-02
-8.927500e-03 -5.005119e-04 1.824150e-02
-1.490443e-03 2.209715e-02 9.563432e-03
-9.838068e-04 2.013427e-04 2.036809e-02
-4.816469e-04 9.103645e-03 1.826677e-02
-1.377717e-02 1.639463e-02 7.545056e-03
-1.642233e-03 -7.322872e-03 1.843666e-02
2.469105e-02 7.758399e-03 -4.801367e-03
-5.159177e-03 1.997086e-03 -3.792000e-02
-8.460625e-03 7.291087e-03 1.844460e-02
2.411947e-02 1.199246e-02 -1.824449e-02
2.690414e-02 -7.716940e-03 -6.444197e-03
-1.840267e-02 -1.186158e-02 -2.580609e-02
-2.266529e-02 -1.631343e-02 -1.186227e-02
2.462429e-04 -7.484172e-05 2.083616e-02
-6.302996e-04 -6.767592e-04 1.983533e-02
1.085887e-02 -1.319830e-02 -3.256944e-02
3.585887e-03 2.711855e-02 -1.032500e-02
-2.085169e-02 -1.851727e-03 1.117101e-02
-1.987388e-02 1.883044e-03 1.132486e-02
-9.143541e-03 -2.127349e-02 7.986313e-03
-1.071674e-02 1.927793e-02 9.596138e-03
1.977171e-02 8.424029e-03 -2.441764e-02
8.455933e-03 -3.119972e-03 -3.737153e-02
1.254012e-02 -2.126888e-02 -2.507999e-02
-1.094444e-02 -1.317952e-02 -3.289178e-02
1.687716e-04 1.470578e-04 2.070311e-02
-2.601558e-02 -3.503864e-03 4.547444e-03
-2.446428e-02 3.036223e-03 4.653157e-03
2.279136e-02 -1.164043e-02 -1.958558e-02
-1.669941e-02 4.175358e-03 -2.663495e-02
1.030278e-02 1.956509e-02 -2.789595e-02
-2.037482e-02 1.677474e-02 -8.123763e-03
1.349781e-02 -9.797539e-03 -2.694127e-02
7.008221e-03 -2.145473e-02 8.988788e-03
1.550997e-02 2.109540e-02 -1.286736e-02
-5.066790e-03 -2.455355e-02 4.682977e-03
-3.146918e-04 -2.734505e-04 2.084498e-02
-4.703699e-03 2.283515e-02 5.770952e-03
1.789873e-02 -5.360001e-03 -2.529422e-02
5.665074e-03 -3.022981e-03 -3.585461e-02
1.920320e-02 -6.838166e-03 1.245804e-02
-5.759887e-03 7.501945e-03 1.655863e-02
-2.449958e-02 1.188963e-02 -1.089291e-02
4.714284e-03 2.723597e-03 -3.366411e-02
-1.087218e-03 -1.955397e-02 8.014543e-03
1.772095e-02 6.538329e-03 1.189003e-02
-1.939379e-02 6.594348e-03 1.160701e-02
-2.548034e-06 -1.279878e-04 2.090798e-02
-5.008527e-03 2.263364e-02 9.368645e-03
5.828109e-03 2.204966e-02 9.487680e-03
2.490357e-02 -2.978585e-03 -1.081065e-02
-2.604210e-02 -5.929234e-03 -3.303666e-03
1.583791e-02 -1.671303e-02 8.138064e-03
9.963669e-03 2.308683e-02 -1.688025e-02
-1.170054e-02 2.437656e-02 -2.021365e-02
4.277570e-03 8.703708e-03 1.669988e-02
3.673344e-03 -8.475551e-03 1.650442e-02
-2.005262e-02 5.325871e-03 1.096517e-02
-8.967433e-05 -2.457652e-04 1.961583e-02
1.929436e-02 -8.153427e-03 1.137379e-02
2.756767e-02 -7.320348e-03 -8.630965e-04
2.072438e-02 1.848528e-02 -1.756236e-02
9.246516e-03 -7.293610e-05 1.711241e-02
2.789847e-03 -2.279608e-02 9.179012e-03
1.845559e-02 -1.928839e-02 -1.901009e-02
-1.905090e-02 1.962902e-02 -1.233308e-02
2.823117e-02 4.583511e-03 -1.356531e-02
3.814400e-03 2.288268e-02 9.518028e-03
2.018461e-02 1.529668e-03 -2.398215e-02
-1.026401e-02 7.349320e-04 1.776029e-02
1.750685e-03 -6.349632e-03 -3.389216e-02
-6.127165e-03 7.602105e-03 -3.428128e-02
-2.090692e-02 1.487295e-02 1.492016e-04
1.155358e-02 -1.996365e-02 7.185337e-03
1.506114e-02 -1.752700e-02 4.426316e-03
1.875796e-02 -1.273912e-02 6.616966e-03
-2.990864e-03 2.174723e-02 9.292422e-03
-2.646064e-02 -1.219890e-02 -7.263479e-03
4.821131e-03 2.336698e-02 7.184012e-03
4.824126e-03 -2.268655e-02 8.347054e-03
-2.081309e-02 -7.043477e-04 1.032589e-02
2.795486e-02 4.428287e-03 -1.459431e-03
2.841559e-02 -4.336576e-03 -2.439521e-03
-1.513320e-03 2.652906e-03 -3.778336e-02
7.569709e-03 -2.131233e-02 -2.112538e-02
9.507298e-03 2.143395e-02 -2.323197e-02
8.170648e-03 -2.578678e-02 -9.510816e-03
1.004779e-02 2.690780e-02 -8.368537e-03
-1.134850e-02 -1.912222e-02 6.846134e-03
-2.244957e-02 5.498836e-03 -2.017253e-02
1.209751e-02 -4.307551e-04 -3.507204e-02
-2.727592e-02 -3.554257e-04 -1.755122e-03
7.931600e-03 1.146914e-03 1.846316e-02
-7.447806e-03 -6.115203e-03 1.724353e-02
8.626348e-03 3.658712e-04 1.732302e-02
8.282009e-03 6.431497e-04 1.854338e-02
7.633185e-03 -6.237035e-03 1.802161e-02
5.238648e-04 1.087825e-03 -3.827416e-02
-1.237306e-02 1.206775e-02 -3.129831e-02
-2.137548e-02 -1.908424e-02 -1.134502e-02
-1.600283e-02 -4.428601e-03 -2.742262e-02
2.067875e-02 1.717039e-02 -1.581757e-02
-2.660313e-02 -6.528190e-05 -1.800914e-02
1.249645e-02 2.435723e-02 -3.832609e-03
-1.094472e-02 2.349031e-02 -2.821297e-03
-5.500977e-03 -2.065059e-02 8.304035e-03
-9.408407e-03 -2.234907e-02 -2.332428e-02
7.924931e-03 2.727633e-02 -6.644300e-03
-8.450984e-03 2.641455e-02 -7.959475e-03
5.321709e-03 -2.850448e-02 -1.076973e-02
-1.311166e-02 1.648285e-02 -2.543930e-02
-1.571369e-02 1.392466e-02 1.011005e-02
1.679061e-02 -1.705397e-02 2.895757e-03
-1.571857e-02 1.163009e-03 -2.817406e-02
-1.515449e-02 -1.418090e-02 1.015442e-02
-9.545004e-03 -2.301237e-03 -3.688728e-02
-3.952433e-03 -8.979505e-03 1.762177e-02
7.908492e-03 5.853254e-03 1.801427e-02
1.801811e-03 -2.137312e-02 9.701655e-03
2.558558e-02 -3.379542e-03 -2.236586e-02
-1.827190e-02 -9.842549e-03 1.065994e-02
-8.112139e-04 -2.772989e-02 -1.465506e-02
1.177490e-03 -9.745359e-03 1.743558e-02
-2.167779e-02 6.034664e-03 9.539372e-03
5.485449e-04 -5.397547e-05 1.990850e-02
-1.016972e-03 -6.252851e-04 -3.810215e-02
2.040531e-02 -5.673323e-03 1.085873e-02
4.025199e-03 -2.352355e-02 3.033106e-03
5.362519e-03 -7.783073e-03 1.913545e-02
-8.564269e-03 7.400788e-04 1.674215e-02
-8.805535e-03 1.858580e-02 -3.048063e-02
7.773102e-03 1.888703e-02 -2.885524e-02
-9.928582e-03 -2.421531e-02 -9.399412e-03
-1.535187e-02 2.130070e-02 -1.806194e-02
1.184283e-02 1.893919e-02 1.002851e-02
1.714986e-02 7.513232e-03 1.125615e-02
1.676671e-02 -1.138102e-03 -3.197578e-02
-2.015626e-02 -5.755500e-03 8.622108e-03
-7.366029e-03 2.116939e-02 8.425771e-03
1.968509e-02 5.903392e-03 1.132811e-02
-5.489380e-03 2.840968e-02 -1.373703e-02
-5.322922e-03 -2.608087e-02 -1.158458e-02
-3.016055e-03 -7.484133e-03 1.868698e-02
1.253902e-02 1.572736e-02 -2.957523e-02
1.971835e-02 3.456462e-03 1.186238e-02
-1.287976e-02 -1.011880e-02 -2.843024e-02
-5.281230e-03 2.082067e-02 7.686158e-03
2.589635e-02 1.171887e-03 -1.560450e-02
-3.852836e-03 5.897820e-03 1.695896e-02
-7.531791e-03 -2.442623e-03 1.769999e-02
-1.960758e-02 -9.503428e-04 1.199891e-02
6.695991e-03 -3.743362e-03 1.824759e-02
-2.834508e-03 3.982674e-03 -3.538282e-02
-3.224380e-03 8.724328e-03 1.823944e-02
-1.764014e-02 8.636766e-03 1.326759e-02
7.705929e-03 5.824874e-03 -3.607649e-02
1.002236e-03 -8.052837e-03 1.838282e-02
-2.061222e-02 1.338904e-02 -2.314191e-02
2.787077e-02 9.377894e-05 -2.022098e-03
2.105075e-02 -1.279821e-02 7.090018e-03
8.382564e-03 1.145824e-02 -3.171358e-02
-2.617637e-02 -4.763931e-03 -1.068870e-02
-7.082813e-03 -1.428505e-03 1.899339e-02
2.015471e-03 2.742187e-02 -1.554203e-02
-1.507906e-03 -8.736379e-03 1.814470e-02
-7.370110e-04 1.858858e-03 -3.721268e-02
1.028299e-03 1.978290e-03 -3.349005e-02
4.880925e-03 -6.283727e-03 1.646391e-02
1.873858e-02 -1.201638e-02 9.980280e-03
2.096486e-02 -9.086013e-05 1.163429e-02
-5.984797e-03 -6.184176e-03 1.882709e-02