# vtk DataFile Version 2.0
Electric current density generated by TTH
ASCII
DATASET UNSTRUCTURED_GRID
POINTS 2092 double
-1.119391e-05 -1.540710e-05 -4.736121e-22
1.078869e-05 -1.074698e-05 4.418733e-07
1.037935e-05 1.569411e-05 9.116192e-07
1.037935e-05 -1.569411e-05 9.116192e-07
1.608836e-05 -9.858962e-06 8.045905e-07
1.608836e-05 9.858962e-06 8.045905e-07
-1.064076e-05 1.557293e-05 -8.213364e-07
8.225829e-06 1.416406e-05 1.790110e-06
8.225829e-06 -1.416406e-05 1.790110e-06
-5.561121e-06 1.799161e-05 8.817730e-07
-5.091557e-07 -1.538647e-05 -8.919558e-07
-1.037223e-05 -1.597183e-05 -4.736121e-22
-1.373837e-05 -7.112375e-06 -1.023952e-06
1.861875e-07 -1.800953e-05 1.711485e-06
-1.728795e-05 -4.675454e-06 -1.761113e-06
-1.870977e-05 2.463188e-06 -7.994666e-07
-2.833203e-06 -1.729796e-05 -1.887973e-06
-6.313645e-07 1.535597e-05 -8.401711e-07
-1.194713e-05 9.811236e-06 -1.006424e-06
8.782251e-06 -1.558153e-05 1.771334e-06
8.782251e-06 1.558153e-05 1.771334e-06
-3.009794e-06 1.720941e-05 1.899848e-06
-9.522111e-06 -1.649278e-05 -4.736121e-22
-1.045935e-05 1.318687e-05 -1.913392e-06
1.431409e-05 -7.275142e-06 1.621320e-06
1.431409e-05 7.275142e-06 1.621320e-06
-8.060452e-06 -1.324975e-05 -1.083451e-06
8.863270e-07 1.532658e-05 -8.044907e-07
-6.249244e-06 -1.386064e-05 -3.243962e-07
-1.761372e-06 -1.770447e-05 -1.809662e-06
6.791433e-06 1.481186e-05 1.753094e-06
6.791433e-06 -1.481186e-05 1.753094e-06
-1.012547e-05 -1.173102e-05 1.064879e-06
-8.645895e-06 -1.696853e-05 -4.736121e-22
-7.064369e-06 -1.621991e-05 1.844322e-06
-2.972216e-06 1.713445e-05 -1.913322e-06
-1.527599e-05 -9.335432e-06 -1.763973e-06
9.286695e-07 -1.531872e-05 -7.927158e-07
-3.171402e-06 -1.523849e-05 1.162046e-06
-9.046205e-07 -1.661702e-05 -1.875948e-06
1.087247e-05 1.413060e-05 1.795122e-06
1.087247e-05 -1.413060e-05 1.795122e-06
-1.611076e-05 9.828854e-06 -7.971147e-07
-3.932211e-06 1.840354e-05 9.058113e-07
-7.745983e-06 -1.739776e-05 -4.736121e-22
-9.273782e-07 1.662001e-05 -1.877002e-06
-1.515936e-05 -6.037883e-06 -1.763577e-06
7.294872e-07 -1.883585e-05 -8.446969e-07
-1.582680e-05 -8.471070e-06 1.741360e-06
1.483397e-05 -6.208814e-06 -1.636742e-06
1.483397e-05 6.208814e-06 -1.636742e-06
1.203313e-05 9.730424e-06 -1.031609e-06
1.203313e-05 -9.730424e-06 -1.031609e-06
5.619962e-06 -1.418459e-05 -5.519852e-07
5.619962e-06 1.418459e-05 -5.519852e-07
-6.824838e-06 -1.777931e-05 -4.736121e-22
6.533355e-06 -1.396851e-05 9.402899e-07
6.533355e-06 1.396851e-05 9.402899e-07
4.862616e-06 -1.475167e-05 -1.117421e-06
4.862616e-06 1.475167e-05 -1.117421e-06
8.721662e-06 1.487653e-05 -1.929012e-06
8.721662e-06 -1.487653e-05 -1.929012e-06
1.785504e-05 -2.198855e-06 1.722143e-06
1.784443e-05 2.188585e-06 1.728111e-06
1.580382e-05 4.125678e-06 1.770652e-06
1.580382e-05 -4.125678e-06 1.770652e-06
-5.884988e-06 -1.811213e-05 -4.736121e-22
-8.879646e-06 1.506111e-05 1.897293e-06
1.496431e-05 -3.675860e-06 -9.188998e-07
1.496431e-05 3.675860e-06 -9.188998e-07
1.491741e-05 -9.544743e-06 1.838523e-06
1.491741e-05 9.544743e-06 1.838523e-06
-6.627734e-06 1.378603e-05 -6.694145e-07
-1.499841e-05 1.015428e-05 -1.653849e-06
1.550326e-05 -1.959270e-06 -1.239708e-06
1.550326e-05 1.959270e-06 -1.239708e-06
-6.678682e-06 1.679954e-05 1.674006e-06
-4.929007e-06 -1.839531e-05 -4.736121e-22
-1.626689e-05 2.091626e-06 1.798705e-06
1.077659e-05 1.548342e-05 -8.139819e-07
1.077659e-05 -1.548342e-05 -8.139819e-07
-1.735176e-06 1.788875e-05 -1.730829e-06
-1.771519e-05 -7.932248e-07 1.830767e-06
1.397289e-05 -6.105101e-06 5.210446e-07
1.397289e-05 6.105101e-06 5.210446e-07
-9.118422e-06 -1.650841e-05 -8.251972e-07
1.671370e-05 6.102428e-06 -1.809273e-06
1.671370e-05 -6.102428e-06 -1.809273e-06
-3.959516e-06 -1.862806e-05 -4.736121e-22
1.450971e-05 4.676411e-06 5.075603e-07
1.450971e-05 -4.676411e-06 5.075603e-07
-1.179554e-06 -1.879922e-05 8.724935e-07
-1.700092e-05 -8.196478e-06 -7.941375e-07
-6.914142e-06 -1.752673e-05 -8.624695e-07
-4.022073e-06 -1.623218e-05 1.894445e-06
-1.495486e-05 -5.484572e-06 1.530572e-06
4.232963e-06 -1.838984e-05 8.005407e-07
-1.748113e-05 4.081567e-06 1.741329e-06
4.233980e-06 1.838974e-05 8.002546e-07
-2.979173e-06 -1.880976e-05 -4.736121e-22
-1.520801e-05 3.925185e-08 -3.458540e-07
-1.572796e-05 5.028545e-06 -1.838784e-06
1.317962e-05 -1.213720e-05 1.757538e-06
1.317962e-05 1.213720e-05 1.757538e-06
1.219741e-05 -1.439615e-05 -8.050943e-07
1.219741e-05 1.439615e-05 -8.050943e-07
-1.377947e-05 1.122282e-05 -1.817209e-06
4.245031e-06 -1.460855e-05 3.710586e-07
4.245031e-06 1.460855e-05 3.710586e-07
9.960713e-06 1.449728e-05 1.873441e-06
-1.990663e-06 -1.893989e-05 -4.736121e-22
9.960713e-06 -1.449728e-05 1.873441e-06
2.473156e-06 1.675856e-05 1.926138e-06
-1.036959e-05 1.205766e-05 1.510516e-06
4.166516e-06 -1.466436e-05 -5.079028e-07
4.166516e-06 1.466436e-05 -5.079028e-07
-1.852073e-05 -3.713489e-06 7.582706e-07
6.306790e-06 1.780983e-05 7.483717e-07
6.306790e-06 -1.780983e-05 7.483717e-07
-1.373152e-05 1.165492e-05 1.711281e-06
-1.455523e-05 -5.424828e-06 -1.118646e-06
-9.966975e-07 -1.901812e-05 -4.736121e-22
-1.234862e-05 -1.013744e-05 -1.566376e-06
1.387679e-05 6.816702e-06 -1.008465e-06
1.387679e-05 -6.816702e-06 -1.008465e-06
-1.724647e-05 -3.353803e-06 1.878404e-06
-3.278027e-06 -1.484409e-05 -3.089506e-07
1.638894e-05 4.196491e-06 -1.924026e-06
1.638894e-05 -4.196491e-06 -1.924026e-06
-1.888875e-05 -4.946193e-07 7.443283e-07
-1.770318e-05 6.490607e-06 8.331763e-07
1.716006e-05 1.962562e-06 -1.926924e-06
-7.115703e-20 -1.904422e-05 -4.736121e-22
1.716006e-05 -1.962562e-06 -1.926924e-06
-1.486311e-05 1.026579e-05 1.682415e-06
-1.637331e-06 -1.792009e-05 1.719680e-06
-7.883465e-06 -1.715514e-05 7.802241e-07
1.133695e-05 -1.368558e-05 -1.817251e-06
1.133695e-05 1.368558e-05 -1.817251e-06
-1.783151e-05 6.130367e-06 -8.324064e-07
1.441713e-05 -1.108147e-05 1.608446e-06
1.441713e-05 1.108147e-05 1.608446e-06
-1.224713e-05 -1.436817e-05 7.809058e-07
9.966975e-07 -1.901812e-05 -4.736121e-22
-3.066268e-06 1.859459e-05 8.534044e-07
1.812521e-05 -5.336757e-06 7.459279e-07
1.812521e-05 5.336757e-06 7.459279e-07
-1.432469e-05 -1.100994e-05 1.680578e-06
-6.241947e-06 -1.782531e-05 7.646848e-07
-4.064535e-06 1.753390e-05 1.717563e-06
-1.539265e-05 1.036480e-06 9.520666e-07
-1.121871e-05 1.102661e-05 1.354348e-06
-5.144384e-06 -1.704369e-05 1.805376e-06
-9.267778e-06 1.548878e-05 -1.690251e-06
1.990663e-06 -1.893989e-05 -4.736121e-22
1.795909e-05 9.127728e-07 -1.726030e-06
1.794109e-05 -8.570938e-07 -1.736339e-06
-4.889868e-06 -1.492349e-05 1.327103e-06
-1.219781e-05 -9.212124e-06 6.392473e-07
9.173276e-06 -1.386283e-05 1.871216e-06
9.173276e-06 1.386283e-05 1.871216e-06
-2.600963e-06 1.870775e-05 -7.621332e-07
1.840360e-05 -4.229760e-06 -7.720342e-07
1.840360e-05 4.229760e-06 -7.720342e-07
1.452833e-05 -8.012796e-06 -1.862697e-06
2.979173e-06 -1.880976e-05 -4.736121e-22
1.452833e-05 8.012796e-06 -1.862697e-06
6.772196e-06 1.678603e-05 -1.660960e-06
6.772196e-06 -1.678603e-05 -1.660960e-06
7.003792e-06 -1.348865e-05 -2.888557e-07
7.003792e-06 1.348865e-05 -2.888557e-07
-1.792161e-05 1.352965e-06 -1.730879e-06
-1.486991e-05 -3.262606e-06 4.225935e-07
1.629432e-05 -8.443109e-07 -1.762966e-06
1.629432e-05 8.443109e-07 -1.762966e-06
-7.954804e-06 -1.482961e-05 -1.912977e-06
3.959516e-06 -1.862806e-05 -4.736121e-22
-1.778085e-05 2.366571e-07 1.813190e-06
-1.752159e-06 -1.569344e-05 1.413407e-06
-1.563418e-05 -6.971752e-06 1.933653e-06
1.542703e-05 -1.090364e-05 -7.535804e-07
1.542703e-05 1.090364e-05 -7.535804e-07
-1.668452e-05 -3.127398e-06 -1.928918e-06
2.554990e-06 -1.496828e-05 1.744917e-07
2.554990e-06 1.496828e-05 1.744917e-07
-5.146691e-06 1.733715e-05 1.670218e-06
-1.706936e-05 5.922950e-06 -1.680118e-06
4.929007e-06 -1.839531e-05 -4.736121e-22
-1.645368e-05 -4.577396e-06 1.933403e-06
-1.329931e-05 -9.590634e-06 1.797078e-06
5.758610e-06 1.524629e-05 1.754462e-06
5.758610e-06 -1.524629e-05 1.754462e-06
-1.611962e-05 9.878119e-06 7.190866e-07
-1.170057e-05 -1.392378e-05 -1.606193e-06
-1.767629e-05 -2.613078e-06 1.778977e-06
-8.903621e-06 -1.345417e-05 -1.668653e-06
-3.638953e-06 1.497680e-05 9.251132e-07
-9.673422e-06 1.270884e-05 -1.562595e-06
5.884988e-06 -1.811213e-05 -4.736121e-22
-1.438252e-05 -1.228383e-05 6.969208e-07
8.244761e-06 -1.699551e-05 7.572752e-07
8.244761e-06 1.699551e-05 7.572752e-07
-1.682381e-05 1.325567e-06 1.919384e-06
8.015881e-06 1.313095e-05 8.712517e-07
8.015881e-06 -1.313095e-05 8.712517e-07
1.658418e-06 -1.571952e-05 1.428005e-06
1.370313e-05 -1.303089e-05 -7.084212e-07
1.370313e-05 1.303089e-05 -7.084212e-07
-1.979669e-06 1.613591e-05 -1.735036e-06
6.824838e-06 -1.777931e-05 -4.736121e-22
2.581381e-06 -1.680109e-05 1.930404e-06
-7.530860e-06 -1.451509e-05 1.778851e-06
1.483605e-06 -1.885099e-05 7.096925e-07
1.334905e-05 -1.178611e-05 -1.803674e-06
1.334905e-05 1.178611e-05 -1.803674e-06
-4.649493e-06 -1.640032e-05 -1.932612e-06
-1.294312e-05 1.240282e-05 1.753150e-06
-7.639267e-06 1.390210e-05 1.477179e-06
-1.847445e-05 3.783509e-06 8.281723e-07
1.002925e-06 1.884939e-05 7.887305e-07
7.745983e-06 -1.739776e-05 -4.736121e-22
-1.245700e-05 -1.185455e-05 -1.931773e-06
-1.508705e-05 -1.700445e-06 -1.482675e-07
1.254068e-05 8.834218e-06 -7.770440e-07
1.254068e-05 -8.834218e-06 -7.770440e-07
-6.450192e-06 1.404628e-05 1.001567e-06
-9.684665e-06 -1.619697e-05 7.987736e-07
-7.156938e-06 1.516410e-05 1.903116e-06
1.795869e-05 -5.759784e-06 -8.242777e-07
1.795869e-05 5.759784e-06 -8.242777e-07
-2.412342e-06 1.509869e-05 6.521913e-07
8.645895e-06 -1.696853e-05 -4.736121e-22
-1.514988e-05 -2.592496e-06 8.425417e-07
-5.559424e-06 -1.443132e-05 1.015704e-06
3.438037e-06 1.855667e-05 7.966909e-07
-1.111962e-05 -1.421657e-05 1.690822e-06
1.109926e-05 1.524556e-05 8.281444e-07
1.109926e-05 -1.524556e-05 8.281444e-07
3.437042e-06 -1.855705e-05 7.962697e-07
7.312839e-06 1.742546e-05 -7.382798e-07
7.312839e-06 -1.742546e-05 -7.382798e-07
-6.643390e-06 1.575853e-05 -1.933648e-06
9.522111e-06 -1.649278e-05 -4.736121e-22
[...]
POINT_DATA 2092
VECTORS 10.000GHz_fone_imag double
-1.944873e+10 1.544773e+10 7.700157e+08
-4.104244e+10 -3.960163e+10 4.429581e+09
2.514598e+10 -1.735766e+10 -1.043477e+09
-2.590830e+10 -1.860052e+10 4.586095e+08
-1.927896e+10 -3.209563e+10 2.342149e+08
1.928362e+10 -3.210047e+10 -2.334200e+08
2.730018e+10 1.971996e+10 1.709299e+09
4.603756e+10 -2.851042e+10 -1.279713e+09
-4.527027e+10 -2.614146e+10 1.790291e+09
2.957074e+10 8.395433e+09 9.895465e+08
-5.053142e+10 1.375681e+09 -4.203099e+08
-3.130725e+10 2.041389e+10 1.512239e+09
-2.140787e+10 4.477943e+10 5.943253e+07
-4.330545e+10 -1.589802e+09 -1.703104e+09
-8.202669e+09 2.765015e+10 -1.674341e+09
4.585657e+09 2.853152e+10 -2.250469e+09
-3.185007e+10 4.687847e+09 -9.087192e+08
6.299639e+10 1.224383e+09 -3.163139e+08
3.172703e+10 3.911970e+10 -8.828180e+08
-2.861676e+10 -1.677575e+10 -3.026163e+08
3.222014e+10 -1.704586e+10 5.433785e+08
4.112972e+10 5.907474e+09 2.466065e+08
-3.030788e+10 1.578638e+10 2.272960e+08
3.604343e+10 2.460520e+10 -2.778943e+07
-1.716814e+10 -4.219383e+10 2.464363e+09
1.717822e+10 -4.215285e+10 -2.460990e+09
-4.700382e+10 2.802683e+10 -3.404160e+08
6.462464e+10 -3.870080e+09 -2.256029e+09
-6.550430e+10 2.770761e+10 -2.934784e+09
-3.574774e+10 -1.602303e+09 2.038808e+09
3.927637e+10 -1.752268e+10 -7.189966e+07
-4.475334e+10 -2.012123e+10 2.854015e+08
-4.871214e+10 4.223190e+10 -1.974511e+09
-2.845674e+10 1.589602e+10 1.414648e+08
-4.124258e+10 1.791745e+10 3.326193e+08
4.415211e+10 1.029243e+10 8.356901e+08
-1.542467e+10 2.915739e+10 -8.238224e+08
-6.122787e+10 -3.286236e+08 3.574147e+09
-5.294870e+10 6.728571e+09 -1.857300e+08
-4.680948e+10 1.534713e+08 2.817938e+08
2.908994e+10 -1.932633e+10 -1.593489e+09
-3.022633e+10 -2.026288e+10 1.660775e+09
1.942414e+10 3.049833e+10 -7.249615e+08
2.658346e+10 5.005616e+09 -3.237752e+08
-3.134413e+10 1.359502e+10 -6.311857e+08
4.028901e+10 4.569224e+09 -8.856666e+08
-1.688759e+10 4.509804e+10 -3.728680e+08
-2.876851e+10 -2.468428e+08 -1.392301e+09
-1.783169e+10 3.276705e+10 3.997367e+07
-1.714071e+10 -3.545347e+10 -3.011582e+08
1.720115e+10 -3.515777e+10 4.364565e+08
3.631402e+10 -4.208910e+10 1.204250e+09
-3.639056e+10 -4.208821e+10 -1.182692e+09
-6.222916e+10 -2.469553e+10 -4.306698e+09
6.269115e+10 -2.471940e+10 3.847870e+09
-2.624626e+10 9.714802e+09 -1.289067e+08
-5.728911e+10 -2.529018e+10 -2.939912e+08
5.870413e+10 -2.582603e+10 3.700190e+08
-5.496714e+10 -1.826580e+10 5.337557e+08
5.840430e+10 -1.898730e+10 -6.780437e+08
3.408896e+10 -1.888133e+10 -5.498163e+08
-3.423778e+10 -1.894772e+10 5.540591e+08
-7.403675e+09 -3.842311e+10 9.622373e+08
8.752928e+09 -3.942178e+10 -8.464713e+08
1.342625e+10 -4.305788e+10 -1.133201e+09
-1.172457e+10 -4.263585e+10 -2.048733e+09
-2.252089e+10 7.349329e+09 -1.815682e+08
2.492181e+10 2.018059e+10 -1.265764e+09
-1.238200e+10 -5.485200e+10 -3.582147e+09
1.279565e+10 -5.463642e+10 3.024825e+09
-1.517190e+10 -2.441046e+10 -4.906745e+08
1.517638e+10 -2.440815e+10 4.931741e+08
4.961126e+10 1.960017e+10 2.433766e+09
1.898094e+10 2.885229e+10 8.306574e+08
-4.501431e+09 -4.505334e+10 2.813616e+08
5.953278e+09 -5.214861e+10 -1.239060e+09
3.260457e+10 1.222054e+10 5.927336e+08
-2.704190e+10 7.275116e+09 -2.415326e+09
3.238973e+09 5.150331e+10 8.808764e+08
1.952568e+10 -1.367344e+10 -1.094261e+09
-1.959814e+10 -1.366185e+10 1.336370e+09
3.860033e+10 3.173676e+09 -8.712135e+08
2.271612e+09 4.063039e+10 -8.019811e+07
-2.605276e+10 -5.809223e+10 -4.219957e+09
2.599434e+10 -5.788245e+10 4.316808e+09
-2.543055e+10 1.368870e+10 -1.809189e+09
8.127453e+09 -2.747243e+10 -2.779767e+08
-8.287205e+09 -2.760184e+10 2.887339e+08
-2.434610e+10 5.934217e+09 4.082273e+08
1.133493e+10 -4.217829e+10 2.060942e+09
-1.439364e+10 -4.923163e+10 -4.955858e+09
-2.749994e+10 2.470127e+09 4.439325e+08
-1.311686e+10 2.661968e+10 3.130137e+08
-2.849236e+10 1.052545e+10 2.473613e+08
-4.438181e+10 1.325938e+10 1.541561e+09
-2.168608e+10 5.555735e+10 -1.180444e+09
-3.067928e+10 -7.118690e+09 2.588783e+09
5.585153e+09 3.014913e+10 -7.120295e+08
2.833462e+10 -7.014249e+09 -1.136558e+08
-2.794787e+10 4.663644e+09 3.665453e+09
2.221182e+09 7.287915e+10 2.294183e+09
1.745614e+10 4.995167e+10 4.580791e+07
-2.273970e+10 -2.100743e+10 1.313727e+09
2.272735e+10 -2.094931e+10 -1.289709e+09
-3.006168e+10 -2.408879e+10 -2.268552e+09
3.104463e+10 -2.505033e+10 2.094071e+09
2.558016e+10 3.246132e+10 -6.327401e+08
-4.785144e+10 -1.340006e+10 -5.729630e+08
4.969514e+10 -1.394772e+10 1.244059e+09
2.494356e+10 -1.828916e+10 -2.042147e+08
-2.770675e+10 2.792490e+09 -1.951938e+09
-2.465175e+10 -1.804875e+10 -3.725715e+08
4.352272e+10 -7.324031e+09 1.175396e+08
3.868825e+10 3.482382e+10 -3.045473e+09
-6.520856e+10 -1.855321e+10 9.172236e+08
6.404260e+10 -1.766608e+10 -1.794934e+09
-5.510271e+09 3.743268e+10 2.987517e+09
2.915587e+10 -8.927237e+09 -2.212378e+09
-2.858843e+10 -7.201787e+09 3.428576e+09
2.231401e+10 2.761285e+10 1.667911e+09
-2.737673e+10 6.147129e+10 -4.788999e+09
-2.761929e+10 2.719407e+09 -1.308931e+09
-2.892398e+10 3.131846e+10 -7.205736e+08
2.662203e+10 -5.445611e+10 1.782832e+09
-2.662939e+10 -5.457660e+10 -1.765240e+09
-8.066297e+09 4.188823e+10 4.013884e+08
-7.019887e+10 1.897237e+10 2.396532e+09
9.982242e+09 -3.974270e+10 -4.514469e+08
-1.018334e+10 -4.060156e+10 3.188242e+08
-1.154278e+09 2.692153e+10 -1.047939e+09
1.137690e+10 3.117063e+10 6.168274e+08
7.247616e+09 -5.122219e+10 2.822470e+08
-2.904679e+10 1.710348e+08 7.253214e+08
-4.366560e+09 -3.975153e+10 1.197513e+09
2.401090e+10 3.498783e+10 -4.671830e+08
-3.255037e+10 3.561061e+09 2.372285e+09
-2.089661e+10 9.181376e+09 -2.404907e+09
-2.495451e+10 -2.231387e+10 1.252969e+09
2.538200e+10 -2.335489e+10 -1.171677e+09
1.072976e+10 3.285064e+10 9.852330e+08
-2.135436e+10 -2.147456e+10 9.499987e+08
2.134245e+10 -2.147882e+10 -9.426060e+08
-2.079703e+10 2.016723e+10 1.717307e+09
-3.226982e+10 -1.774932e+09 2.555975e+09
2.548627e+10 4.824491e+09 1.558778e+09
-8.852170e+09 -3.082607e+10 -7.897239e+08
8.865919e+09 -3.080976e+10 7.439816e+08
-2.489263e+10 2.794355e+10 -2.965900e+09
-2.729559e+10 9.543463e+09 -2.168340e+09
3.992593e+10 5.940788e+09 5.383320e+08
1.375183e+09 4.951077e+10 3.706974e+08
4.724028e+10 5.139708e+10 2.149188e+09
-3.265900e+10 9.600531e+09 9.233849e+07
3.455696e+10 1.961192e+10 -1.249183e+09
-2.462314e+10 -3.642870e+09 4.107657e+08
5.624205e+08 -3.849393e+10 -8.848605e+08
-1.872945e+09 -2.929896e+10 8.309632e+08
-5.460302e+10 2.060811e+10 -3.130328e+09
-3.366289e+10 4.454692e+10 -2.400539e+08
-4.092572e+10 -2.771430e+10 -8.463720e+08
4.237272e+10 -2.544933e+10 2.294874e+08
3.682883e+10 4.929337e+09 3.760294e+08
-7.680860e+09 -2.904281e+10 -8.207487e+08
7.648079e+09 -2.892980e+10 8.408513e+08
-2.381196e+10 -4.324101e+10 -3.798939e+07
-3.122996e+10 -3.949007e+09 -2.099021e+08
2.383855e+10 -4.325140e+10 3.234884e+07
3.589591e+10 -1.573953e+10 1.500065e+09
-3.511563e+10 -1.506443e+10 -1.583553e+09
-5.508863e+10 -2.937947e+10 6.925409e+09
5.527154e+10 -2.953800e+10 -6.738698e+09
5.113247e+09 4.624683e+10 -3.342537e+08
-1.415831e+10 6.850423e+10 6.040294e+08
-3.416150e+09 -5.306546e+10 2.532973e+09
4.322568e+09 -4.156422e+10 -1.442535e+09
-4.634702e+10 2.475862e+10 -7.835146e+08
-2.799062e+10 -6.172926e+09 4.142438e+08
1.213128e+08 3.368317e+10 1.084332e+09
-4.855308e+10 8.710858e+09 4.665080e+09
-2.036651e+10 4.684166e+10 6.641639e+08
-1.461672e+10 -2.059863e+10 1.182858e+09
1.462163e+10 -2.060471e+10 -1.185041e+09
-8.332768e+09 5.141334e+10 6.845794e+08
-5.330460e+10 -9.613231e+09 -7.871799e+09
4.957125e+10 -9.205909e+09 -1.341862e+09
3.738122e+10 1.451497e+10 -1.050579e+09
1.042207e+10 3.677077e+10 1.958032e+08
-3.000963e+10 -8.461028e+09 8.852291e+08
-1.134999e+10 4.463262e+10 -4.188867e+08
-3.510911e+10 4.484563e+10 2.079507e+09
4.719282e+10 -1.626214e+10 2.888521e+08
-4.638896e+10 -1.338138e+10 -1.969242e+09
1.358718e+10 2.018770e+10 1.093680e+07
-2.978491e+10 2.169659e+10 1.529577e+09
-9.630147e+09 4.163372e+10 -9.353969e+08
-4.519238e+10 3.204541e+10 3.011677e+09
5.636010e+10 9.079348e+09 -1.648412e+09
4.844673e+10 3.789752e+10 -4.684312e+08
-2.241202e+10 -7.061496e+09 -4.420875e+08
-2.177150e+10 2.292453e+10 -1.042106e+09
-2.809569e+10 -1.392591e+10 -9.712119e+08
2.459156e+10 -1.085011e+10 -1.211521e+09
3.627172e+09 4.597230e+10 -1.285187e+09
5.545459e+10 -3.334306e+10 1.983641e+08
-5.293609e+10 -3.187432e+10 -8.881490e+07
-6.068336e+10 -7.334968e+09 -1.521799e+09
-2.137495e+10 -1.758263e+10 -1.218048e+09
2.140656e+10 -1.766209e+10 1.241813e+09
4.360634e+10 4.815387e+09 8.082105e+08
-3.442890e+10 -1.289505e+10 -1.571887e+09
-4.344085e+10 -8.636752e+09 6.824661e+07
-4.959140e+10 2.770718e+10 -1.898751e+08
-2.894341e+10 -3.665810e+09 -2.447557e+09
-2.972855e+10 -2.915780e+10 -9.811140e+08
2.976629e+10 -2.914263e+10 9.943293e+08
-3.860804e+10 9.930778e+09 4.641195e+08
3.135828e+10 3.787291e+10 -1.631315e+09
6.158230e+10 3.085871e+10 -4.457645e+08
5.097395e+09 3.641188e+10 -1.803442e+09
2.524769e+10 2.247258e+08 5.710702e+08
-2.826191e+10 -1.353701e+10 1.152600e+09
-3.745769e+10 3.823340e+10 -6.736517e+08
-6.991719e+09 6.417413e+10 1.531569e+09
3.114314e+10 -4.384341e+10 -1.587814e+09
-3.112725e+10 -4.384245e+10 1.611383e+09
6.698469e+10 2.779920e+10 -3.285252e+09
-2.426616e+10 1.436876e+10 -1.544434e+08
3.883835e+10 1.920664e+10 1.581843e+09
-8.291415e+09 -3.279357e+10 1.528449e+09
8.380066e+09 -3.281302e+10 -1.405626e+09
6.137912e+10 1.009732e+10 1.329638e+09
-2.612453e+10 -1.262862e+10 1.623944e+09
-1.396683e+10 5.793821e+10 1.683554e+09
-5.688819e+10 2.567533e+10 -3.541171e+09
2.610616e+10 -3.248759e+09 -6.053824e+08
-2.322468e+10 1.778319e+10 -6.050730e+08
2.843481e+10 -1.995309e+10 3.109683e+09
-2.807027e+10 -1.963279e+10 -3.053034e+09
-2.778632e+10 -3.987977e+09 -4.030225e+08
2.317885e+10 -1.130412e+10 -1.040492e+09
-2.338195e+10 -1.166128e+10 1.202973e+09
3.323716e+10 1.583517e+10 -8.002835e+08
-2.305745e+10 -1.372237e+10 -1.533080e+09
-4.277082e+10 5.159741e+10 1.759126e+09
-3.139377e+10 5.454499e+09 -1.126030e+09
3.084570e+10 2.784701e+10 3.306111e+08
3.247238e+10 -4.275907e+09 4.338195e+08
-2.171863e+10 -2.659166e+10 -1.318231e+09
2.173200e+10 -2.659303e+10 1.298999e+09
3.989631e+09 4.532113e+10 3.594976e+09
1.620471e+09 3.398318e+10 -9.392024e+08
-3.320633e+10 2.160811e+10 -1.880314e+09
-2.991735e+10 3.179953e+10 1.216059e+09
-2.313145e+10 -1.647563e+10 1.135158e+09
1.121363e+10 -2.796692e+10 -8.111696e+08
-1.120349e+10 -2.795472e+10 8.098947e+08
2.583566e+10 3.492685e+10 1.185533e+09
2.346747e+10 2.469027e+10 -9.473125e+08
2.676577e+10 1.565987e+10 -2.371912e+09
3.261123e+10 3.930081e+10 2.681335e+09
-3.051920e+10 -1.579232e+09 -2.076615e+09
-2.568743e+10 4.514562e+10 2.127373e+08
3.794669e+10 -1.208056e+10 -5.962159e+08
-4.411813e+10 -8.406147e+09 2.880484e+08
-2.040404e+10 -1.449274e+10 -1.689906e+08
2.912983e+10 2.040030e+10 6.813053e+07
-8.655067e+09 4.648642e+10 -8.592574e+08
-2.264981e+10 3.032903e+10 -1.496021e+09
4.368674e+10 -9.049254e+09 1.186561e+09
-1.697584e+10 -3.388122e+10 8.021136e+08
1.700388e+10 -3.392052e+10 -8.053731e+08
1.176150e+10 2.930626e+10 3.303802e+09
1.990667e+10 1.851237e+10 1.057902e+08
-4.307079e+10 -6.177111e+09 5.827121e+08
3.571011e+10 -1.162270e+10 -8.467173e+08
-2.299206e+10 -1.699068e+10 5.784252e+08
-3.757510e+10 -1.428223e+10 -2.070833e+08
-1.851797e+10 -1.899594e+10 5.078655e+09
1.827807e+10 -1.853031e+10 -4.801784e+09
-1.962009e+10 4.792186e+10 -4.117078e+08
3.768942e+10 -1.289107e+10 2.114326e+09
-4.015543e+10 -1.409888e+10 -1.944903e+09
6.159862e+10 -4.680786e+09 8.393851e+08
3.310096e+10 -2.286609e+10 -2.812202e+09
-3.350806e+10 -2.323494e+10 2.867166e+09
-5.513318e+10 1.387152e+10 2.085102e+09
-2.184021e+10 -2.065696e+10 -2.140659e+09
3.466308e+10 -4.022169e+09 1.153528e+09
-4.723493e+10 -2.841793e+10 -3.989301e+09
4.739279e+10 -2.852505e+10 3.842734e+09
-2.552479e+10 4.611610e+09 6.838151e+08
-2.774636e+10 1.033442e+10 -4.010409e+08
2.144914e+10 -4.150207e+10 -4.005878e+08
-2.142871e+10 -4.149833e+10 4.000480e+08
3.795019e+10 1.361131e+10 -6.007575e+08
4.608833e+10 2.617060e+09 -2.261404e+07
-2.559823e+10 2.888851e+09 7.195873e+08
-1.737469e+10 -1.814811e+10 6.257692e+08
4.051171e+10 3.342654e+10 1.982244e+08
-4.604703e+10 -3.479487e+09 3.349852e+08
4.631078e+10 4.437195e+10 -1.436097e+09
-3.319870e+10 1.399505e+10 -9.247423e+08
5.352492e+10 -6.678750e+09 -1.302694e+09
-3.948368e+10 3.255471e+10 5.952095e+08
-2.528155e+10 2.879475e+10 8.674020e+08
-4.990051e+10 -1.190601e+10 -8.751223e+08
3.090112e+10 4.078467e+10 3.411557e+09
4.063274e+10 -6.232760e+09 -8.237560e+08
-2.333584e+10 -2.607636e+10 -1.968346e+09
5.726304e+10 2.246510e+10 5.086118e+09
-1.879048e+10 -2.409300e+10 -5.261321e+08
1.881783e+10 -2.410515e+10 5.264246e+08
2.809913e+10 5.732790e+10 7.922326e+08
-3.918039e+10 1.999719e+10 -1.120710e+08
-3.126189e+10 1.935161e+10 -1.366907e+09
-3.151179e+10 -5.284550e+10 -1.754289e+09
3.152664e+10 -5.281657e+10 1.733240e+09
-1.706671e+10 4.794458e+10 1.531151e+09
-3.129874e+10 9.140593e+09 1.474116e+09
-1.827230e+10 -2.169120e+10 -5.937639e+07
-3.811388e+10 -2.396546e+09 5.900177e+07
-3.921258e+10 1.309723e+10 1.040497e+09
3.656976e+10 -8.373307e+09 -1.873519e+09
-1.207419e+09 3.219551e+10 4.063241e+07
-2.637559e+10 2.325280e+10 -1.435817e+09
-5.362173e+10 -8.230488e+08 -5.197729e+09
-2.119895e+10 3.491004e+10 -6.379865e+08
-5.561836e+10 2.683944e+10 4.447653e+09
1.642414e+10 4.973407e+10 -1.823632e+08
6.611781e+09 2.528097e+10 3.170207e+08
-2.141480e+10 -2.950312e+10 -2.704474e+09
-3.833719e+10 -6.295518e+09 1.005639e+08
2.954949e+10 4.649876e+09 -7.529482e+08
1.016838e+10 -6.883599e+10 -3.890458e+09
-6.796916e+09 -5.365807e+10 -2.002496e+09
-1.465163e+10 -4.127036e+10 6.741393e+08
1.473590e+10 -4.150770e+10 -6.202648e+08
-9.489585e+09 2.308572e+10 1.184412e+08
-3.346003e+09 -7.656734e+10 2.820808e+09
2.860763e+09 -6.566869e+10 3.434003e+09
2.587291e+10 3.910660e+10 2.126257e+08
-1.551963e+10 -2.468349e+10 -2.883755e+08
4.789971e+10 3.508034e+09 -6.918081e+08
-1.140083e+07 6.778353e+10 -2.405367e+09
3.173899e+10 2.840435e+10 2.169192e+09
5.843348e+10 2.052768e+10 8.400001e+08
3.543473e+10 -1.946308e+09 1.398279e+08
-4.298797e+10 1.823292e+10 -5.696241e+08
-2.028892e+10 2.956660e+10 -4.751192e+08
-3.669399e+10 -2.680322e+08 -2.867051e+09
2.019392e+09 3.417796e+10 -1.267457e+09
3.223241e+10 -2.641552e+09 -1.672773e+08
-1.774698e+10 -3.104100e+10 -1.224789e+09
-5.216105e+10 -1.594478e+10 -2.424589e+09
4.937010e+10 -1.173721e+10 -3.023579e+07
-1.792941e+10 2.396372e+10 1.168140e+09
3.562421e+10 1.450376e+10 -6.775629e+08
4.814987e+10 2.205617e+09 -6.646193e+08
-2.667800e+10 -4.540490e+10 -2.197835e+09
2.666593e+10 -4.535628e+10 2.188216e+09
-9.080909e+08 2.840665e+10 -1.124365e+09
5.853141e+10 -3.803601e+09 -2.615831e+09
-5.244264e+10 -3.834163e+10 -1.787001e+09
-1.332730e+10 -2.744522e+10 -7.366129e+08
5.242612e+10 -3.808552e+10 4.035158e+08
1.606699e+10 2.284275e+10 4.419059e+08
4.874545e+10 1.135065e+10 -2.777152e+08
2.695641e+10 -1.913295e+10 2.877603e+09
-2.756787e+10 -1.969884e+10 -2.795566e+09
2.811211e+10 3.220960e+10 2.548294e+08
4.399995e+10 -2.865371e+10 4.396192e+08
-4.579621e+10 -3.282439e+10 -7.718926e+08
-1.162966e+10 3.536978e+10 3.290351e+09
-3.989846e+10 -1.158574e+10 -4.128299e+08
-1.193506e+10 -2.641132e+10 9.525321e+08
1.230916e+10 3.896004e+10 4.707765e+08
1.684797e+10 4.547948e+10 1.504587e+09
-5.655851e+10 -3.061794e+07 2.979528e+09
3.595547e+10 -9.455584e+09 -7.103469e+08
-3.782848e+10 -4.244528e+09 -2.347971e+09
-2.383620e+10 4.179142e+10 -5.804314e+06
8.274697e+09 -2.503294e+10 -1.926472e+09
-8.362024e+09 -2.513115e+10 1.856144e+09
2.761207e+09 4.668241e+10 -7.653773e+08
-3.314594e+10 -5.520121e+09 7.523237e+08
-1.027031e+10 -2.591863e+10 -1.954222e+09
-5.282006e+09 3.314751e+10 7.261339e+08
-3.474682e+10 1.827633e+10 3.275453e+08
3.283702e+10 9.431409e+08 -1.657785e+09
5.482357e+10 1.366767e+10 -1.073470e+08
6.647856e+10 -1.853940e+09 3.829402e+09
-5.255067e+10 -4.158458e+10 1.902449e+09
4.854940e+10 -3.973106e+10 -2.093239e+09
3.196395e+10 -3.668006e+08 8.934366e+08
2.768591e+10 6.785096e+09 4.135271e+08
-3.779985e+10 -7.594378e+09 6.122487e+08
-9.270780e+09 -2.971708e+10 -2.436222e+09
-2.435477e+10 2.582145e+10 1.321359e+09
-5.404749e+09 4.837205e+10 2.266049e+09
3.005643e+10 2.502326e+10 -2.799693e+09
1.692170e+10 -5.810875e+10 -6.415445e+08
-1.678291e+10 -6.051266e+10 -8.653591e+08
-6.351782e+10 -3.670333e+09 -5.291205e+09
-3.727000e+10 2.108673e+10 -6.152447e+06
-3.130250e+10 6.417129e+09 2.506728e+08
-1.807845e+09 4.327799e+10 -8.291067e+08
-5.406968e+10 1.357316e+10 2.862667e+08
-8.162312e+09 -2.790554e+10 9.353048e+08
2.569537e+10 -2.843120e+10 -4.606984e+08
-2.559219e+10 -2.826317e+10 5.533792e+08
-5.515931e+10 8.603272e+09 -3.231022e+09
3.677900e+10 -6.595298e+09 1.625896e+09
-4.680795e+10 1.712203e+10 -5.428628e+08
-1.529370e+10 -7.056555e+10 -1.566269e+09
1.450955e+10 -6.378672e+10 1.400762e+09
4.880687e+09 -3.092516e+10 -1.076159e+09
-5.061617e+09 -3.094408e+10 4.962358e+08
2.929833e+10 4.247053e+10 2.886100e+09
-6.909030e+09 -3.493055e+10 1.252139e+09
-6.126316e+10 2.517880e+10 -6.224676e+09
4.831511e+08 4.910042e+10 -1.436649e+08
-2.286178e+09 -2.730412e+10 -1.068034e+09
2.674289e+09 -2.812503e+10 -1.266416e+09
2.590175e+10 2.872079e+09 7.598279e+08
1.104291e+10 2.894995e+10 -3.509155e+09
5.504173e+10 1.718624e+09 1.340723e+09
-6.258292e+08 -5.291426e+10 3.857824e+08
3.215494e+09 -5.363187e+10 -5.163295e+07
-3.668205e+10 3.892791e+10 2.084455e+09
-4.034890e+09 -3.057574e+10 -3.746390e+09
-4.961769e+10 3.028064e+10 -2.293485e+08
-3.594083e+10 3.739542e+10 -2.754552e+08
3.422040e+10 6.760644e+10 -2.628867e+09
2.194122e+10 1.240701e+10 6.897624e+08
3.793582e+10 -2.739687e+10 1.912102e+09
-3.604624e+10 -2.699380e+10 -3.390486e+09
3.008683e+10 2.553461e+09 7.736208e+08
2.705394e+07 5.112146e+10 1.605264e+08
-2.789704e+10 -4.423118e+10 1.932734e+09
2.790679e+10 -4.419500e+10 -1.911781e+09
-4.352304e+09 -2.846654e+10 1.882767e+09
2.208131e+10 -3.002929e+10 -4.176670e+08
-2.208898e+10 -3.002085e+10 4.170636e+08
2.945752e+10 -4.897205e+10 -4.038410e+09
-2.946432e+10 -4.899364e+10 4.044534e+09
3.194940e+10 4.169977e+10 -8.613106e+08
-2.741054e+10 -1.739743e+10 -6.764537e+08
3.519209e+10 -2.164670e+10 -1.973665e+08
-4.266499e+10 -3.458814e+10 1.449270e+09
3.740151e+10 -3.560687e+10 -5.516349e+08
-2.612666e+10 -2.877795e+10 -8.453512e+08
-2.488870e+09 -3.105359e+10 3.216295e+08
2.614288e+10 -2.877460e+10 8.565412e+08
1.235471e+10 -3.551093e+10 -1.714634e+09
-1.312918e+10 -3.388719e+10 2.358112e+09
4.276921e+10 2.937315e+10 -6.181746e+08
-4.438713e+10 -3.745287e+10 -4.177223e+09
4.362308e+10 -3.780595e+10 3.106490e+09
-3.861988e+10 -3.217844e+09 1.934551e+09
-3.997699e+10 2.586665e+10 2.353849e+09
-9.010137e+09 3.097819e+10 1.542135e+09
4.860694e+10 -1.925678e+10 2.493311e+08
-1.151662e+09 -2.979353e+10 2.171191e+09
-4.826327e+10 -1.951439e+10 -7.298593e+08
2.035525e+10 -1.224992e+10 2.067286e+09
-2.042098e+10 -1.258074e+10 -2.064385e+09
3.748464e+10 -5.445368e+09 1.099803e+09
-5.304027e+10 1.038342e+10 -4.488393e+09
-3.545788e+10 1.381986e+10 2.742198e+08
9.178438e+09 4.474435e+10 7.396221e+08
2.869080e+10 1.036129e+10 -1.308240e+09
-5.141280e+09 4.031935e+10 2.207202e+09
-3.805224e+10 7.065009e+09 3.071224e+07
2.539869e+09 -3.922549e+10 -1.636003e+09
4.689259e+10 5.728793e+10 2.951185e+09
2.294455e+10 1.356449e+10 -2.661566e+08
-2.625602e+10 2.367527e+10 2.916196e+08
6.232933e+10 1.523903e+10 1.425271e+09
4.525962e+10 1.572132e+10 -1.460651e+09
-1.336047e+10 -5.446850e+10 8.187696e+07
1.132010e+10 -4.459131e+10 2.215280e+09
-3.093144e+10 2.599558e+09 8.006619e+08
-6.307523e+09 -2.651746e+10 1.623223e+09
6.397215e+09 -2.606606e+10 -1.647351e+09
-9.082730e+08 -3.803428e+10 -9.112993e+08
-2.623309e+10 1.277075e+09 2.767562e+09
3.712297e+09 -3.472701e+10 8.178909e+08
-2.974305e+09 -3.321734e+10 1.104238e+08
4.532014e+10 -3.884303e+10 4.626538e+09
-4.698334e+10 -4.094269e+10 -5.084253e+09
1.093404e+10 3.036545e+10 -9.780510e+08