# vtk DataFile Version 2.0
Electric current density generated by TTH
ASCII
DATASET UNSTRUCTURED_GRID
POINTS 2596 double
2.811156e-05 -6.885346e-21 -3.264084e-22
2.710802e-05 7.444121e-06 -3.264084e-22
-2.758661e-05 5.407301e-06 -3.264084e-22
-2.549551e-05 -1.119310e-05 -8.005272e-07
6.765415e-08 -2.556765e-05 -5.559642e-07
-1.559970e-05 -2.011342e-05 1.426182e-07
2.739232e-05 4.145856e-06 -9.589847e-07
2.739232e-05 -4.145856e-06 -9.589847e-07
-2.363218e-05 9.724787e-06 5.270351e-07
-8.044685e-06 2.493745e-05 -1.201771e-06
1.101807e-06 -2.597435e-05 -1.079696e-06
-2.566681e-05 -1.063944e-05 8.744086e-07
1.944698e-05 -1.983142e-05 -8.849115e-07
-2.773537e-05 4.583547e-06 -3.264084e-22
1.944698e-05 1.983142e-05 -8.849115e-07
-2.262450e-05 -1.611769e-05 -8.812885e-07
-2.475274e-05 -9.144002e-06 1.273956e-06
2.105926e-05 1.437866e-05 -3.739243e-07
2.105926e-05 -1.437866e-05 -3.739243e-07
-2.477140e-05 -1.272483e-05 -7.948254e-07
-2.116784e-05 1.544974e-05 1.203397e-06
-1.463932e-05 2.172999e-05 1.200937e-06
-6.446283e-07 2.554640e-05 -5.262324e-07
9.173413e-06 -2.485224e-05 -1.301247e-06
-2.785954e-05 3.755730e-06 -3.264084e-22
2.533376e-05 2.389852e-06 -1.046740e-09
2.533376e-05 -2.389852e-06 -1.046740e-09
2.744209e-05 -4.473390e-06 8.511922e-07
2.744209e-05 4.473390e-06 8.511922e-07
2.589160e-05 3.713704e-06 -1.178438e-06
2.589160e-05 -3.713704e-06 -1.178438e-06
1.124388e-05 -2.404031e-05 1.311041e-06
-9.904701e-06 2.346200e-05 2.344132e-07
2.443333e-05 -1.006552e-05 1.284928e-06
2.443333e-05 1.006552e-05 1.284928e-06
-2.795901e-05 2.924582e-06 -3.264084e-22
2.710929e-05 -6.207751e-06 8.430968e-07
2.710929e-05 6.207751e-06 8.430968e-07
-2.484983e-05 5.673084e-06 3.355750e-07
-1.793591e-05 1.964111e-05 1.320372e-06
-5.100452e-06 2.730372e-05 8.841450e-07
1.604021e-05 -2.268777e-05 8.735709e-07
-1.219671e-05 -2.350649e-05 1.299251e-06
-2.720340e-05 -5.108811e-06 9.827887e-07
1.576591e-05 2.289691e-05 8.565119e-07
-2.378862e-05 -1.139952e-05 1.271226e-06
-2.803370e-05 2.090841e-06 -3.264084e-22
7.961920e-06 -2.571194e-05 1.325543e-06
-2.667338e-05 -3.083498e-07 -1.328620e-06
1.218022e-05 -2.241431e-05 -4.072545e-07
2.497824e-06 2.649449e-05 1.322168e-06
-2.226049e-05 1.658575e-05 9.019224e-07
-1.654217e-05 -1.933826e-05 -7.276786e-08
3.085896e-06 2.758906e-05 9.006978e-07
-8.163277e-06 2.410958e-05 1.445735e-07
2.199940e-05 -1.360224e-05 9.698769e-07
2.199940e-05 1.360224e-05 9.698769e-07
-2.808352e-05 1.255247e-06 -3.264084e-22
-2.544472e-05 -2.880817e-07 -1.810473e-08
8.967681e-06 2.401928e-05 -6.899532e-07
1.400403e-06 -2.773153e-05 8.943698e-07
-7.187363e-06 -2.599586e-05 1.318723e-06
-1.162494e-05 2.275286e-05 -5.169329e-07
-4.728048e-06 2.587205e-05 -1.243845e-06
-7.537105e-06 2.672383e-05 -8.949209e-07
-1.147506e-05 2.526861e-05 -9.104101e-07
-2.008250e-07 2.777326e-05 -8.864412e-07
-2.545296e-05 -2.364318e-06 -5.444732e-07
-2.810844e-05 4.185393e-07 -3.264084e-22
2.230158e-05 -1.473329e-05 -1.331723e-06
2.230158e-05 1.473329e-05 -1.331723e-06
-2.966565e-06 2.764618e-05 -8.504897e-07
-1.027914e-05 2.585865e-05 -8.233462e-07
2.336907e-05 1.505911e-05 8.552688e-07
2.336907e-05 -1.505911e-05 8.552688e-07
-1.683165e-07 -2.691729e-05 1.325402e-06
-1.336561e-05 2.441712e-05 8.116716e-07
-9.888866e-06 2.438299e-05 -1.248190e-06
1.041810e-05 2.326021e-05 3.261055e-07
-2.810844e-05 -4.185393e-07 -3.264084e-22
-2.780433e-05 6.339779e-07 8.423737e-07
6.196563e-06 2.711228e-05 8.425897e-07
-1.385225e-05 2.308715e-05 -1.324741e-06
-2.162358e-05 -1.754024e-05 -8.021359e-07
1.278928e-05 -2.295383e-05 1.234258e-06
-1.074887e-05 2.404016e-05 -1.256129e-06
2.499886e-05 5.040752e-06 3.815112e-07
2.499886e-05 -5.040752e-06 3.815112e-07
-2.758456e-05 -3.441566e-06 8.582277e-07
-9.711862e-06 2.606092e-05 8.421775e-07
-2.808352e-05 -1.255247e-06 -3.264084e-22
-5.464616e-06 2.577122e-05 -1.259779e-06
2.560053e-05 7.000299e-06 1.311144e-06
2.560053e-05 -7.000299e-06 1.311144e-06
-1.112694e-05 -2.550887e-05 8.191889e-07
-2.566439e-05 6.062225e-06 -1.268595e-06
-1.611592e-05 2.267492e-05 8.336644e-07
-1.037245e-05 -2.417915e-05 1.247471e-06
-2.066873e-05 1.849911e-05 9.249488e-07
-1.662405e-05 -2.051163e-05 1.278371e-06
-2.493117e-05 -1.226167e-05 8.758805e-07
-2.803370e-05 -2.090841e-06 -3.264084e-22
9.368750e-07 -2.664456e-05 1.327441e-06
1.986104e-05 1.626006e-05 -7.362723e-07
1.986104e-05 -1.626006e-05 -7.362723e-07
-2.018722e-05 -1.857275e-05 -1.162105e-06
-2.437635e-05 1.346256e-05 -7.971646e-07
-2.645302e-05 -3.576132e-06 1.329934e-06
-1.854928e-05 -1.898648e-05 1.311726e-06
-1.774667e-05 2.139886e-05 8.560162e-07
-2.199169e-06 -2.651290e-05 1.321131e-06
-1.287791e-06 -2.782496e-05 7.864755e-07
2.687436e-05 8.247927e-06 -3.264084e-22
-2.795901e-05 -2.924582e-06 -3.264084e-22
2.091721e-05 -1.501456e-05 8.447093e-07
2.091721e-05 1.501456e-05 8.447093e-07
-1.559408e-05 2.301518e-05 -8.556266e-07
-1.033886e-05 2.453773e-05 1.323967e-06
-2.464786e-05 7.124499e-06 -7.190803e-07
-1.910598e-06 2.771765e-05 -8.757428e-07
-5.959189e-06 2.712883e-05 -8.846026e-07
-1.297756e-05 2.458640e-05 -8.548894e-07
-2.453332e-05 1.071373e-05 1.332638e-06
2.489695e-07 2.784204e-05 8.020813e-07
-2.785954e-05 -3.755730e-06 -3.264084e-22
1.182981e-07 -2.551694e-05 4.291203e-07
-2.523253e-05 -9.141720e-06 -1.331374e-06
-2.627687e-05 -1.661473e-06 -1.254550e-06
7.164543e-06 -2.478914e-05 -9.083092e-07
2.465114e-05 8.321791e-06 1.094020e-06
2.465114e-05 -8.321791e-06 1.094020e-06
-7.293780e-06 2.535786e-05 -1.273428e-06
-2.785242e-05 -8.296381e-07 -7.725700e-07
-1.219947e-05 -2.495400e-05 8.837102e-07
1.249646e-05 -2.479759e-05 8.927164e-07
-2.773537e-05 -4.583547e-06 -3.264084e-22
-2.153986e-05 -1.526898e-05 -1.278489e-06
2.513375e-05 -8.476557e-06 -1.308188e-06
2.513375e-05 8.476557e-06 -1.308188e-06
1.181743e-05 2.514966e-05 -8.707947e-07
2.755088e-05 7.904744e-07 -1.078147e-06
2.755088e-05 -7.904744e-07 -1.078147e-06
-2.146925e-05 1.382794e-05 4.835371e-07
-9.135703e-06 -2.624202e-05 -8.718770e-07
2.268363e-05 1.194986e-05 6.899957e-07
2.268363e-05 -1.194986e-05 6.899957e-07
-2.758661e-05 -5.407301e-06 -3.264084e-22
-7.282018e-06 -2.455306e-05 6.403558e-07
-1.903041e-05 -1.690021e-05 1.172481e-07
-6.032357e-07 -2.673990e-05 -1.332275e-06
2.567515e-05 -9.315924e-07 7.712063e-07
2.567299e-05 9.419212e-07 7.686839e-07
1.507192e-05 2.173718e-05 -1.291754e-06
1.507192e-05 -2.173718e-05 -1.291754e-06
-8.462376e-06 2.433489e-05 8.640412e-07
2.352354e-05 -1.478994e-05 -8.719954e-07
2.352354e-05 1.478994e-05 -8.719954e-07
-2.741338e-05 -6.226259e-06 -3.264084e-22
1.922868e-05 -1.906396e-05 -1.298840e-06
1.922868e-05 1.906396e-05 -1.298840e-06
2.178846e-05 -1.734248e-05 7.959191e-07
2.178846e-05 1.734248e-05 7.959191e-07
-1.349849e-05 -2.431651e-05 8.419540e-07
2.004837e-05 1.583108e-05 5.041204e-07
2.004837e-05 -1.583108e-05 5.041204e-07
8.106888e-06 -2.458425e-05 -9.896924e-07
-1.556352e-05 -2.189372e-05 -1.330079e-06
-8.469639e-06 -2.524430e-05 -1.324005e-06
-2.721585e-05 -7.039698e-06 -3.264084e-22
6.518279e-06 2.703143e-05 -8.488733e-07
-2.006702e-05 -1.619916e-05 -8.927926e-07
8.227956e-07 2.779933e-05 -8.424396e-07
5.545777e-06 -2.491700e-05 -4.560769e-07
-1.454171e-06 -2.540859e-05 1.023721e-07
2.003166e-05 -1.742641e-05 1.313004e-06
2.003166e-05 1.742641e-05 1.313004e-06
-1.786568e-05 -1.812085e-05 4.395769e-08
-6.681729e-06 -2.526073e-05 -1.163728e-06
-5.781208e-06 2.490458e-05 -5.538883e-07
-2.699418e-05 -7.846894e-06 -3.264084e-22
-4.495673e-07 2.676791e-05 -1.332644e-06
-1.991119e-05 -1.765415e-05 1.321995e-06
9.366692e-06 -2.620770e-05 8.176405e-07
-2.053129e-05 -1.883402e-05 7.773658e-07
-2.756242e-05 -4.233578e-06 -7.423317e-07
-2.780875e-05 -1.056031e-06 8.207910e-07
-7.582416e-06 2.674560e-05 8.567774e-07
1.429732e-06 2.772673e-05 8.979998e-07
-2.328123e-05 1.517475e-05 8.680359e-07
-1.499016e-06 -2.782621e-05 -7.700525e-07
-2.674858e-05 -8.647133e-06 -3.264084e-22
1.246362e-05 -2.364538e-05 -1.331734e-06
-6.161893e-06 2.585503e-05 1.317611e-06
2.307704e-05 -1.319895e-05 1.318482e-06
2.307704e-05 1.319895e-05 1.318482e-06
-2.726576e-05 -5.727574e-06 -7.780546e-07
5.774756e-06 2.721420e-05 -8.317421e-07
1.891590e-05 1.703687e-05 -1.702269e-07
1.891590e-05 -1.703687e-05 -1.702269e-07
-1.228724e-05 -2.266757e-05 -8.862346e-07
-2.516622e-05 9.445785e-06 1.328784e-06
-2.647927e-05 -9.439704e-06 -3.264084e-22
1.185208e-05 2.390120e-05 -1.328872e-06
3.977143e-06 2.753510e-05 8.308557e-07
6.794201e-06 -2.701680e-05 7.819905e-07
1.618074e-05 2.258965e-05 -8.718005e-07
1.618074e-05 -2.258965e-05 -8.718005e-07
-2.676174e-05 -1.941951e-06 1.331601e-06
2.533523e-05 1.152599e-05 8.143122e-07
2.533523e-05 -1.152599e-05 8.143122e-07
4.975215e-06 2.496468e-05 1.578261e-07
2.458195e-05 -6.592468e-06 -1.077578e-07
-2.618647e-05 -1.022391e-05 -3.264084e-22
2.458195e-05 6.592468e-06 -1.077578e-07
-1.512565e-05 2.047191e-05 1.396919e-07
-1.989485e-05 1.587701e-05 1.396915e-07
1.869462e-05 1.809952e-05 1.096023e-06
1.869462e-05 -1.809952e-05 1.096023e-06
-2.234846e-05 1.268216e-05 7.769208e-07
1.651682e-05 -2.102663e-05 -1.332038e-06
1.651682e-05 2.102663e-05 -1.332038e-06
-1.561734e-06 2.670035e-05 -1.332257e-06
-1.223963e-05 2.378122e-05 -1.332260e-06
2.661688e-05 9.044421e-06 -3.264084e-22
-2.587046e-05 -1.099904e-05 -3.264084e-22
1.572806e-05 2.018674e-05 6.031829e-07
1.572806e-05 -2.018674e-05 6.031829e-07
5.083563e-06 -2.732775e-05 -8.604381e-07
-3.176820e-06 2.658148e-05 -1.332638e-06
5.939040e-06 -2.721630e-05 7.837101e-07
-1.829130e-05 1.796434e-05 6.881464e-07
-1.727911e-05 1.893159e-05 6.778217e-07
1.307781e-05 2.309307e-05 1.310895e-06
-2.177084e-05 1.732639e-05 8.269275e-07
2.651065e-05 8.575569e-06 -7.748534e-07
-2.553151e-05 -1.176443e-05 -3.264084e-22
2.651065e-05 -8.575569e-06 -7.748534e-07
8.462484e-06 -2.399817e-05 -2.808805e-08
-5.673345e-06 -2.480598e-05 2.599712e-08
1.183841e-06 2.673960e-05 -1.332599e-06
-1.155327e-05 -2.528322e-05 -8.589364e-07
2.385568e-06 2.552711e-05 6.892855e-07
-1.959331e-05 -1.655232e-05 7.068129e-07
[...]
POINT_DATA 2596
VECTORS 10.000GHz_fone_imag double
-7.107649e-05 6.287730e-05 1.761780e-02
6.064322e-04 -1.480754e-04 1.757486e-02
5.166703e-05 -8.690628e-04 1.714786e-02
-1.022733e-02 -4.392574e-03 1.437701e-02
5.389222e-04 -9.877577e-03 -2.316600e-02
1.932064e-03 2.523084e-03 -2.519099e-02
1.348184e-02 1.899814e-03 1.267800e-02
1.348001e-02 -1.905616e-03 1.267477e-02
1.031203e-02 -5.108351e-03 -2.185517e-02
-6.089580e-03 1.952645e-02 -1.042018e-02
3.844486e-04 -1.856150e-02 -1.391314e-02
1.129008e-02 4.745141e-03 1.361975e-02
8.201547e-03 -9.311337e-03 1.360158e-02
1.158118e-03 3.836044e-04 1.741269e-02
8.206331e-03 9.306473e-03 1.360522e-02
-9.774443e-03 -7.245358e-03 1.385696e-02
1.958148e-02 7.659851e-03 -7.539109e-03
6.035494e-03 4.252727e-03 -2.403766e-02
6.055677e-03 -4.248218e-03 -2.402753e-02
-1.019890e-02 -4.793149e-03 1.399736e-02
1.645042e-02 -1.163032e-02 -1.071177e-02
1.172558e-02 -1.658209e-02 -1.099234e-02
-1.275839e-05 9.562431e-03 -2.287090e-02
7.571882e-03 -1.997982e-02 -5.825973e-03
-3.925707e-04 2.829323e-04 1.753430e-02
-4.390989e-04 -1.438328e-04 -2.521590e-02
-5.528091e-04 1.865338e-04 -2.522581e-02
-1.208971e-02 1.610724e-03 1.365870e-02
-1.208568e-02 -1.614031e-03 1.365391e-02
2.019107e-02 2.774172e-03 -1.160869e-02
2.019304e-02 -2.771646e-03 -1.160055e-02
-8.651864e-03 1.949930e-02 -4.406888e-03
1.703366e-03 -3.796435e-03 -2.487562e-02
-1.965648e-02 8.412787e-03 -6.923783e-03
-1.959885e-02 -8.400381e-03 -6.786913e-03
-9.268493e-05 8.352152e-05 1.727204e-02
-1.179076e-02 3.122524e-03 1.350632e-02
-1.178861e-02 -3.122430e-03 1.350273e-02
6.423351e-03 -1.472340e-03 -2.444858e-02
1.413373e-02 -1.512932e-02 -2.939731e-03
2.302011e-03 -1.227216e-02 1.368987e-02
-7.458555e-03 1.017235e-02 1.347318e-02
9.580775e-03 1.889323e-02 -5.840048e-03
1.379751e-02 2.642296e-03 1.238003e-02
-6.600743e-03 -9.625691e-03 1.396605e-02
1.863066e-02 9.355362e-03 -7.076046e-03
-1.474381e-04 -2.477750e-04 1.726543e-02
-6.175934e-03 1.957156e-02 1.530227e-03
-2.118406e-02 -4.125122e-04 -3.198877e-03
3.736105e-03 -6.674149e-03 -2.388574e-02
-1.439773e-03 -2.123555e-02 -3.171849e-03
1.030910e-02 -8.031618e-03 1.305305e-02
-6.327110e-04 -4.195536e-04 -2.525201e-02
-1.203063e-03 -1.247968e-02 1.338974e-02
8.263333e-04 -2.311041e-03 -2.518732e-02
-1.378278e-02 8.848164e-03 -1.756965e-02
-1.321788e-02 -9.080987e-03 -1.764041e-02
5.849611e-05 -1.584708e-04 1.747470e-02
4.638949e-04 -5.474618e-05 -2.527110e-02
4.441670e-03 1.216325e-02 -2.188547e-02
-7.898231e-04 1.214306e-02 1.370235e-02
5.038507e-03 2.009328e-02 1.377033e-03
-4.538555e-03 8.070584e-03 -2.308290e-02
-3.967283e-03 2.042628e-02 -9.032616e-03
-3.557753e-03 1.210251e-02 1.324659e-02
-5.236393e-03 1.163183e-02 1.304962e-02
1.207905e-06 1.319984e-02 1.284657e-02
-9.864134e-03 -7.590384e-04 -2.310387e-02
4.834839e-04 5.592562e-05 1.738713e-02
1.738315e-02 -1.197945e-02 -2.208073e-03
1.741707e-02 1.198416e-02 -2.239378e-03
-1.382677e-03 1.163201e-02 1.387977e-02
-4.194580e-03 1.091688e-02 1.403916e-02
-1.035540e-02 -6.952332e-03 1.360681e-02
-1.030992e-02 6.969115e-03 1.365998e-02
4.786912e-04 2.052041e-02 1.310112e-03
5.632213e-03 -9.700469e-03 1.440074e-02
-7.982942e-03 1.934929e-02 -9.027573e-03
-2.250129e-03 -5.251462e-03 -2.443764e-02
1.080661e-04 2.524967e-04 1.754465e-02
1.180811e-02 -4.810497e-04 1.391335e-02
-3.148821e-03 -1.143248e-02 1.395174e-02
-1.058284e-02 1.766427e-02 1.249291e-03
-8.231504e-03 -7.589058e-03 1.419029e-02
-9.913101e-03 1.836846e-02 -9.358196e-03
-8.601588e-03 1.944829e-02 -8.523616e-03
-7.464893e-03 -1.611042e-03 -2.379454e-02
-7.460670e-03 1.607276e-03 -2.379363e-02
1.182974e-02 1.434438e-03 1.415920e-02
4.481702e-03 -1.132119e-02 1.399366e-02
-2.180296e-04 1.161339e-04 1.750919e-02
-4.301931e-03 2.052022e-02 -7.765676e-03
-2.046817e-02 -5.570571e-03 -5.228768e-03
-2.047164e-02 5.564989e-03 -5.231083e-03
4.457042e-03 1.107675e-02 1.355858e-02
-2.042252e-02 4.748493e-03 -7.845445e-03
6.704314e-03 -9.604822e-03 1.422942e-02
8.018415e-03 1.907115e-02 -8.786784e-03
9.340825e-03 -8.797657e-03 1.320435e-02
1.262264e-02 1.644266e-02 -7.310678e-03
1.117204e-02 5.615835e-03 1.355283e-02
-1.416269e-04 -3.066096e-04 1.728254e-02
-5.936404e-04 2.145598e-02 -2.717261e-03
1.037826e-02 8.393160e-03 -2.081142e-02
1.038043e-02 -8.392391e-03 -2.081060e-02
-1.276747e-02 -1.180420e-02 8.797613e-03
-9.242658e-03 5.432093e-03 1.426081e-02
2.144451e-02 3.072975e-03 -2.294430e-03
1.491536e-02 1.506469e-02 -4.634748e-03
8.001703e-03 -9.282654e-03 1.371221e-02
1.637300e-03 2.138134e-02 -3.209194e-03
9.003175e-04 1.079656e-02 1.454880e-02
3.029727e-04 1.533668e-04 1.761438e-02
-1.114853e-04 2.295870e-04 1.737525e-02
-1.242567e-02 9.008951e-03 -1.918932e-02
-1.242833e-02 -9.003978e-03 -1.917713e-02
-7.008342e-03 9.856754e-03 1.365517e-02
8.341121e-03 -1.947837e-02 -3.578777e-03
-1.180600e-02 3.751818e-03 -2.115473e-02
-1.083311e-03 1.210026e-02 1.365785e-02
-2.855768e-03 1.220645e-02 1.311760e-02
-5.557508e-03 1.044427e-02 1.374465e-02
1.857460e-02 -8.472860e-03 -1.514170e-03
1.022905e-04 -1.107460e-02 1.420687e-02
-6.956933e-05 3.359328e-05 1.751597e-02
4.452598e-06 7.660088e-03 -2.397269e-02
-1.977765e-02 -7.158698e-03 -2.726610e-04
-2.080369e-02 -1.061024e-03 -7.810627e-03
4.371333e-03 -1.552202e-02 -1.818377e-02
-1.740501e-02 -5.385435e-03 -1.431354e-02
-1.741649e-02 5.353694e-03 -1.432299e-02
-5.673832e-03 2.010410e-02 -7.122342e-03
-1.110791e-02 -2.284258e-04 1.436582e-02
5.677514e-03 1.092314e-02 1.341275e-02
-5.937987e-03 1.120000e-02 1.316420e-02
-2.078524e-04 -1.446519e-04 1.739122e-02
-1.742459e-02 -1.228635e-02 -7.032513e-03
2.008841e-02 -6.656577e-03 -5.175417e-03
2.009697e-02 6.681149e-03 -5.174030e-03
5.333889e-03 1.088558e-02 1.356557e-02
1.611958e-02 4.192578e-04 1.023320e-02
1.605835e-02 5.822275e-05 1.009832e-02
6.962695e-03 -4.755550e-03 -2.362130e-02
-3.865285e-03 -1.147754e-02 1.358986e-02
-1.134706e-02 -5.928118e-03 -2.120658e-02
-1.145682e-02 5.645411e-03 -2.110693e-02
-2.175148e-05 -1.232840e-05 1.750315e-02
3.248070e-03 1.118225e-02 -2.178102e-02
2.000783e-03 1.207138e-03 -2.482543e-02
-4.922429e-04 -2.143452e-02 -1.321162e-03
-1.323298e-02 3.681579e-04 -2.057198e-02
-1.380901e-02 -5.077942e-04 -2.140830e-02
1.183358e-02 1.751155e-02 -6.648448e-03
1.232659e-02 -1.706665e-02 -6.984310e-03
4.529847e-03 -1.434480e-02 -1.898496e-02
1.040492e-02 -6.908368e-03 1.359282e-02
1.038940e-02 6.864489e-03 1.360860e-02
-2.179448e-04 -1.395421e-04 1.746015e-02
1.386779e-02 -1.463228e-02 3.355991e-03
1.387119e-02 1.462832e-02 3.355278e-03
-8.855321e-03 6.997060e-03 1.410807e-02
-8.860120e-03 -7.003487e-03 1.410474e-02
5.739319e-03 1.043269e-02 1.394783e-02
-7.310612e-03 -5.785968e-03 -2.315773e-02
-7.306130e-03 5.788998e-03 -2.316271e-02
5.466652e-03 -1.634911e-02 -1.679788e-02
-1.236417e-02 -1.665249e-02 5.493558e-04
-7.155341e-03 -2.022644e-02 -3.596397e-03
2.055961e-04 1.467378e-04 1.739016e-02
2.273870e-03 1.141084e-02 1.393224e-02
-1.247205e-02 -9.165509e-03 -1.848808e-02
6.332625e-04 1.162820e-02 1.434278e-02
1.262611e-03 -8.470755e-03 -2.358605e-02
3.207180e-04 1.979608e-03 -2.540639e-02
-1.608950e-02 1.398771e-02 -4.330445e-03
-1.608819e-02 -1.398539e-02 -4.332128e-03
4.680036e-04 4.449707e-04 -2.545567e-02
-4.688541e-03 -1.901680e-02 -1.226873e-02
-2.262859e-03 9.384655e-03 -2.285417e-02
1.446166e-04 1.250289e-04 1.750148e-02
-8.877567e-05 2.126924e-02 -5.400925e-04
1.595203e-02 1.425681e-02 -3.398552e-03
-4.102390e-03 1.094564e-02 1.393777e-02
7.835058e-03 7.382441e-03 1.448919e-02
-1.026246e-02 -1.969267e-03 1.457118e-02
1.105096e-02 8.888258e-04 1.430825e-02
3.262495e-03 -1.173310e-02 1.389002e-02
-1.003453e-03 -1.305830e-02 1.268236e-02
1.070892e-02 -6.709277e-03 1.329023e-02
-5.556625e-04 -1.083885e-02 1.447564e-02
-1.499896e-04 -2.019958e-04 1.741683e-02
9.942814e-03 -1.865982e-02 -1.752483e-03
5.252888e-03 -2.053062e-02 -4.489673e-03
-1.893582e-02 1.057670e-02 -4.218460e-03
-1.911589e-02 -1.072641e-02 -4.274644e-03
-1.064003e-02 -2.008898e-03 1.443074e-02
2.474794e-03 1.130499e-02 1.437913e-02
3.137591e-03 2.399427e-03 -2.488446e-02
3.139421e-03 -2.397456e-03 -2.488788e-02
-7.495855e-03 -1.373329e-02 -1.866224e-02
1.951476e-02 -6.986937e-03 9.750754e-04
1.756753e-04 -1.263105e-04 1.733765e-02
9.323813e-03 1.916337e-02 -2.434559e-03
-1.351604e-03 -1.182652e-02 1.385077e-02
-2.719626e-03 1.106808e-02 1.449766e-02
7.282732e-03 1.004174e-02 1.371596e-02
7.086304e-03 -1.003255e-02 1.378812e-02
2.103390e-02 1.466805e-03 1.340030e-04
-1.030007e-02 -4.418481e-03 1.420931e-02
-1.004874e-02 4.732579e-03 1.428495e-02
-9.880471e-04 -2.532212e-03 -2.519882e-02
2.112943e-03 -1.359860e-03 -2.470404e-02
3.734923e-04 1.549808e-04 1.751930e-02
2.117163e-03 1.355974e-03 -2.471044e-02
8.943258e-04 -1.712872e-03 -2.542198e-02
1.707071e-03 -9.548499e-04 -2.535905e-02
-1.335343e-02 -1.314783e-02 -1.430663e-02
-1.334973e-02 1.315256e-02 -1.430843e-02
1.212630e-02 -6.857321e-03 -2.003726e-02
1.311882e-02 -1.672514e-02 -1.656408e-03
1.316977e-02 1.661636e-02 -1.777822e-03
-1.280597e-03 2.132906e-02 -1.992160e-03
-9.849920e-03 1.872523e-02 -1.676052e-03
3.265776e-04 1.210365e-04 1.746231e-02
1.701745e-04 2.050822e-04 1.743819e-02
-6.756582e-03 -8.155897e-03 -2.231086e-02
-6.716313e-03 8.261439e-03 -2.242750e-02
2.373507e-03 -1.191546e-02 1.370292e-02
-2.786925e-03 2.086575e-02 -9.794023e-04
-2.333743e-03 1.098834e-02 1.446065e-02
8.722219e-03 -8.886998e-03 -2.171038e-02
9.138705e-03 -9.476207e-03 -2.204561e-02
-1.038578e-02 -1.857549e-02 -4.471504e-03
9.221099e-03 -7.363518e-03 1.394095e-02
1.050835e-02 3.503736e-03 1.436808e-02
-1.959946e-04 -1.100876e-04 1.738724e-02
1.052203e-02 -3.491855e-03 1.436941e-02
3.167349e-04 -5.240308e-05 -2.547572e-02
3.540629e-04 3.501299e-04 -2.542913e-02
1.108416e-03 2.121875e-02 -8.753983e-04
-4.996465e-03 -1.082061e-02 1.411852e-02
-8.025016e-04 -1.227739e-02 -2.152740e-02
8.876757e-03 7.833514e-03 -2.074671e-02
7.142572e-05 -1.470651e-02 -1.979249e-02
3.059783e-03 6.780390e-03 -2.393701e-02
1.123111e-02 -1.776637e-02 1.216876e-03
-6.899589e-07 3.414360e-04 1.746946e-02
-7.144034e-03 -8.295782e-03 -2.192873e-02
-7.140685e-03 8.302228e-03 -2.193479e-02
3.771134e-03 1.077968e-02 1.411540e-02
1.007806e-02 1.874720e-02 -1.081183e-03
5.338390e-03 1.004920e-02 1.402644e-02
-1.064790e-02 2.765976e-03 1.432365e-02
4.741248e-03 -8.767885e-03 1.495097e-02
1.240389e-02 1.749855e-02 -3.064642e-03
1.402148e-02 -4.397164e-03 -1.912467e-02
1.402471e-02 4.397624e-03 -1.912789e-02
-7.401268e-04 2.450396e-04 1.748748e-02
-1.098847e-02 1.739266e-02 1.147487e-03
-2.100079e-02 -6.206535e-04 1.205569e-03
-2.073870e-02 8.481769e-04 1.047510e-04
-7.962730e-03 -1.679335e-02 -1.455263e-02
2.120925e-02 -2.553041e-03 -3.942494e-03
1.251412e-03 -3.209914e-03 -2.512751e-02
1.689940e-02 1.284099e-02 -6.129895e-03
-6.199825e-03 -2.027515e-02 -3.130544e-03
1.102461e-02 -1.038761e-03 1.453300e-02
8.054154e-03 8.231880e-03 -2.179724e-02
-7.588645e-04 -3.714379e-04 1.807247e-02
6.799500e-03 9.561906e-03 1.385636e-02
-6.626310e-03 -8.504319e-03 1.438897e-02
-1.257480e-03 -9.756611e-03 1.511153e-02
2.119039e-02 3.373706e-03 -5.044530e-03
2.118848e-02 -3.374807e-03 -5.047968e-03
3.055130e-03 1.123853e-02 1.386621e-02
-9.267759e-03 8.796197e-04 -2.283209e-02
-6.708403e-03 9.805502e-03 1.390096e-02
-9.551224e-03 7.432249e-03 1.419392e-02
2.080380e-03 9.949838e-03 1.461688e-02
2.840563e-04 -8.267835e-04 1.726142e-02
-4.413496e-03 1.118893e-02 -2.158374e-02
-4.056599e-03 -8.668163e-03 -2.296333e-02
-1.413794e-04 -1.061478e-02 -2.257333e-02
-9.981205e-03 1.845372e-02 -6.536399e-03
-1.898917e-02 -8.453590e-03 -4.010858e-04
-1.908286e-02 8.995708e-03 1.908178e-04
-1.995020e-02 -5.874096e-03 5.679480e-04
-1.066507e-02 -3.135878e-03 1.435543e-02
1.720576e-02 1.268116e-02 -4.754465e-03
-1.597812e-02 -1.414735e-02 -8.674099e-04
-9.752366e-04 -1.242929e-04 1.715146e-02
7.362935e-03 -7.766684e-03 1.458753e-02
7.374000e-03 7.761771e-03 1.459334e-02
-1.791037e-03 -5.340100e-03 -2.470334e-02
-1.319916e-02 -3.791265e-03 -2.028080e-02
-2.069784e-02 3.795441e-03 1.983777e-03
1.158856e-03 -1.957816e-02 -1.105624e-02
1.059037e-03 1.167132e-02 1.389974e-02
1.707335e-02 -1.197630e-02 9.998439e-04
1.708367e-02 1.198229e-02 1.006493e-03
1.747944e-02 -1.141571e-02 4.374483e-04
4.044060e-04 -1.960017e-04 1.728359e-02
-2.017198e-02 3.034070e-03 -9.711609e-03
-2.017332e-02 -3.023341e-03 -9.710562e-03
-9.639700e-03 7.120923e-03 -2.170102e-02
-9.335115e-03 -1.928079e-02 -4.732263e-03
-1.246820e-02 -1.442031e-02 -1.301243e-02
-1.244047e-02 1.446653e-02 -1.299479e-02
-1.827506e-02 -1.145190e-02 -3.400248e-03
4.747118e-03 1.043156e-02 1.416192e-02
2.863345e-03 -1.116554e-02 1.428343e-02
-2.080537e-02 -3.647532e-03 -8.960130e-04
1.878612e-05 5.659503e-05 1.734559e-02
2.044359e-02 6.093386e-03 -4.599923e-03
7.462224e-04 1.291052e-02 -2.101294e-02
1.871745e-02 7.400884e-03 3.314294e-03
-3.239780e-03 1.957199e-02 3.484373e-03
1.735785e-02 8.482653e-03 -1.215080e-02
-7.716257e-03 4.095529e-03 -2.338826e-02
-1.521401e-03 -2.082685e-02 4.756605e-04
1.261012e-03 8.540769e-03 -2.355957e-02
7.924088e-04 -4.827689e-03 -2.461734e-02
1.769552e-02 1.152961e-02 -3.205491e-03
-3.619180e-04 -1.747283e-04 1.732485e-02
-6.371487e-03 -9.276232e-03 -2.201307e-02
-6.656921e-03 9.405524e-03 -2.182525e-02
-1.536892e-02 1.193695e-02 4.847139e-03
-1.536679e-02 -1.193583e-02 4.841062e-03
-1.990189e-02 -1.404143e-03 -1.106149e-02
-5.576837e-03 -9.133739e-03 1.503578e-02
1.764853e-02 6.869138e-03 -1.332015e-02
-2.973662e-03 -5.695621e-04 -2.504012e-02
-6.623829e-03 1.930420e-02 2.368065e-03
5.131447e-03 -7.648569e-03 -2.334323e-02
2.392801e-04 4.950269e-05 1.738732e-02
3.073502e-04 -1.882234e-04 1.674385e-02
1.097582e-02 -1.795783e-02 1.756239e-03
1.109111e-02 1.758082e-02 1.513739e-03
-1.402741e-02 1.404691e-02 3.617100e-03
-1.403746e-02 -1.404922e-02 3.611596e-03
-2.954762e-03 -2.050314e-02 1.575194e-03
-1.923166e-02 1.229283e-03 -1.331876e-02
-1.926187e-02 -4.543871e-03 -1.163999e-02
-1.160397e-02 -1.231523e-02 -1.716116e-02
3.104451e-03 2.066335e-02 6.973959e-04
4.780082e-03 6.242532e-03 -2.361030e-02
3.857642e-04 1.866943e-04 1.737679e-02
-9.860831e-03 -6.095289e-03 1.366563e-02
9.595886e-03 -4.791531e-03 -2.240482e-02
9.570518e-03 4.851173e-03 -2.251001e-02
-2.817256e-03 -2.092834e-02 -7.056068e-03
2.907850e-03 1.108205e-03 -2.531121e-02
3.227037e-03 9.853972e-03 1.483767e-02
-4.882806e-03 6.433850e-03 -2.341007e-02
-4.083559e-03 2.025038e-04 -2.478845e-02
-4.111827e-03 -2.250781e-04 -2.479551e-02
9.117078e-03 -4.245455e-03 1.573108e-02
4.590434e-04 3.292832e-04 1.753257e-02
6.193682e-03 -2.022429e-02 -5.648095e-03
8.312138e-04 -1.070697e-02 1.465915e-02
-1.966580e-03 1.171905e-02 -2.169194e-02
-1.349032e-02 9.482975e-04 -2.017355e-02
-1.370812e-02 -9.732579e-04 -2.041188e-02
-9.051003e-04 -4.347977e-03 -2.467931e-02
1.364445e-02 -1.607204e-02 -7.352182e-03
1.563692e-02 -1.413152e-02 -7.293024e-03
-1.511717e-02 -1.503543e-02 -1.138947e-03
-1.598823e-03 1.022209e-02 1.342650e-02
7.836011e-05 3.758135e-04 1.753904e-02
-1.046941e-04 -2.013766e-02 3.597701e-03
-2.745491e-03 -8.113318e-03 -2.343013e-02
-1.054615e-02 -2.880761e-03 1.467761e-02
-1.055060e-02 2.881446e-03 1.468270e-02
5.972898e-03 2.004083e-02 1.192381e-03
1.562098e-02 -1.204184e-02 -1.184039e-02
1.158564e-02 -1.625735e-02 -1.172238e-02
1.949378e-02 2.344875e-03 -1.239398e-02
1.950276e-02 -2.341126e-03 -1.238928e-02
-1.835450e-02 -1.061191e-02 -1.124908e-03
-5.695901e-05 -3.671551e-05 1.740710e-02
1.057887e-02 -4.290812e-03 1.415963e-02
-1.236534e-03 -5.340514e-03 -2.462015e-02
3.619247e-03 -8.991859e-03 1.432844e-02
1.598838e-02 -1.417290e-02 -4.119673e-03
1.598838e-02 1.417087e-02 -4.122525e-03
1.553989e-03 -1.049724e-02 1.472907e-02
1.719433e-02 -1.292421e-02 -4.003538e-03
1.720029e-02 1.292480e-02 -4.005136e-03
5.725826e-04 -1.085128e-02 1.475892e-02
6.772607e-03 -1.306606e-02 -1.932937e-02
2.697729e-04 4.734620e-05 1.749863e-02
-2.336695e-04 4.192728e-03 -2.488620e-02
-3.431388e-03 1.118648e-02 -2.185151e-02
4.295670e-03 -2.076380e-02 1.481460e-04
4.039456e-03 -3.770093e-03 -2.475638e-02
3.687387e-03 -4.119586e-03 -2.469712e-02
-1.451018e-02 1.446210e-02 1.186508e-03
-5.117025e-03 -3.586494e-03 -2.426697e-02
-1.885808e-02 1.006614e-02 -1.507157e-03
-9.451638e-03 -1.785007e-02 3.670254e-03
-2.976012e-03 1.071153e-02 -2.206348e-02
-1.273514e-04 1.913024e-04 1.753392e-02
-7.425600e-03 6.872712e-03 1.478134e-02
-7.426259e-03 -6.876254e-03 1.478384e-02
8.984809e-03 1.894026e-02 -6.153485e-03
4.190565e-03 -9.902484e-03 1.460715e-02
-6.743740e-03 8.520658e-03 1.456564e-02
-6.970928e-03 -8.732084e-03 1.434259e-02
1.748868e-02 -1.024954e-02 3.276850e-03
-7.046328e-03 6.935449e-03 1.508489e-02
-7.238927e-03 7.885332e-03 1.494253e-02
9.662878e-03 3.245859e-03 1.470866e-02
-3.048631e-04 -1.707129e-04 1.737962e-02
9.306061e-03 5.480902e-03 1.566068e-02
9.091928e-03 -6.879393e-03 1.412983e-02
9.103592e-03 6.871548e-03 1.413080e-02
-3.217888e-03 1.966853e-02 3.559633e-03
3.054156e-04 -3.839191e-04 -2.558462e-02
-1.761332e-02 -7.776172e-03 4.961249e-03
-2.748105e-03 2.015434e-02 2.847390e-03
9.065714e-03 1.116960e-02 -1.930530e-02
-8.482403e-03 -1.491837e-02 8.784760e-03
2.093139e-02 -1.338286e-03 -1.196810e-04
-2.365094e-04 -2.006388e-04 1.724340e-02
-1.819742e-02 1.113270e-02 -2.220624e-03
1.153273e-03 -1.704809e-02 9.055657e-03
-1.146723e-02 -7.006139e-03 -2.133137e-02
1.670514e-03 2.070308e-02 1.483701e-03
1.371390e-03 -1.039289e-02 1.512391e-02
-3.793014e-03 -1.961001e-02 -1.136745e-02
-1.739551e-02 1.182674e-02 -1.769959e-04
-4.942884e-03 1.095997e-02 -2.143130e-02
2.086846e-02 -3.431057e-03 -4.180283e-04
6.036264e-03 -1.034299e-02 1.398412e-02
-5.301150e-06 -8.639552e-05 1.746355e-02
1.991083e-02 8.243997e-03 -2.853186e-03
1.985762e-02 -8.203253e-03 -2.944699e-03
-1.906194e-02 4.343471e-03 -1.176725e-02
1.366403e-02 1.521589e-02 2.385127e-03
-1.110101e-02 -1.797255e-02 -1.386533e-05
7.419136e-03 1.967541e-02 -3.154528e-03
-5.143057e-03 1.983861e-02 1.584073e-03
-5.511362e-03 -1.980667e-02 1.617642e-03
8.870419e-03 -1.909919e-02 -2.462303e-03
-7.326211e-03 -1.975855e-02 2.506531e-04
-3.055463e-05 1.866357e-04 1.743288e-02
3.459324e-04 1.229068e-04 1.763185e-02
-3.378849e-03 -1.642221e-02 9.243212e-03
7.212095e-03 -1.130822e-03 -2.398408e-02
7.217252e-03 1.130613e-03 -2.398659e-02
1.999200e-02 -6.198538e-03 4.320587e-04
1.182219e-02 1.579771e-02 3.365591e-03
9.955017e-03 1.262802e-03 1.493850e-02
9.976248e-03 5.680772e-03 1.416872e-02
9.998760e-03 -5.403987e-03 1.446026e-02
-9.741564e-03 -5.319493e-03 1.456688e-02
-9.787016e-03 5.285750e-03 1.449091e-02
9.393992e-05 3.365320e-04 1.745889e-02
2.062161e-02 -3.035364e-03 8.132749e-04
2.062498e-02 3.035531e-03 8.154130e-04
-4.039538e-03 2.025730e-02 2.060945e-03
-1.067938e-02 3.017371e-03 1.433627e-02
6.306864e-03 8.678372e-03 1.456679e-02
6.189503e-03 -8.572938e-03 1.461849e-02
-4.558122e-04 -1.800078e-03 -2.524911e-02
-1.987102e-02 -8.068577e-03 -5.914897e-03
-2.848941e-03 -1.493396e-02 -1.879434e-02
-1.794977e-02 -8.974374e-03 3.079845e-03
-1.164372e-05 1.030181e-04 1.747455e-02
-4.728293e-03 -1.015853e-02 1.448574e-02
1.739332e-02 9.883959e-03 2.909358e-03
1.737285e-02 -1.001683e-02 2.766735e-03
-9.186726e-03 3.272316e-03 1.508799e-02
-4.321711e-03 1.601028e-02 -1.691949e-02
7.376813e-03 5.979233e-04 -2.378315e-02
8.549685e-03 6.596403e-03 1.459964e-02
-1.671956e-02 1.873193e-03 -1.686700e-02
-6.625032e-03 -7.646791e-03 1.504325e-02
-6.610914e-03 7.638983e-03 1.502705e-02
3.100796e-04 -1.411581e-04 1.736119e-02
3.737032e-03 -1.664082e-02 -1.626153e-02
7.046329e-03 2.017805e-02 -3.765030e-03
9.211198e-03 3.830689e-03 1.463425e-02
9.317604e-03 -4.241685e-03 1.494610e-02
-1.491520e-02 1.339555e-02 3.215034e-03
-1.313330e-02 1.506350e-02 3.336022e-03
8.109871e-03 -1.972371e-02 -1.819885e-03
1.259120e-03 -9.882843e-03 -2.269565e-02
2.813733e-03 1.998433e-02 3.024340e-03
-1.482959e-02 4.438561e-03 -1.878310e-02
5.087213e-04 2.030639e-04 1.737017e-02
-1.482646e-02 -4.456991e-03 -1.878249e-02