# vtk DataFile Version 2.0
Electric current density generated by TTH
ASCII
DATASET UNSTRUCTURED_GRID
POINTS 2035 double
-2.356497e-05 -2.976948e-06 -3.971794e-22
-1.991734e-05 -5.085317e-06 -3.885745e-07
1.599334e-05 -1.723405e-05 -8.499175e-07
-2.075286e-05 -1.100521e-05 8.836745e-07
1.145525e-05 1.708095e-05 -4.278990e-07
2.032180e-05 2.769680e-06 4.501818e-08
-2.081633e-05 -7.743366e-06 1.619671e-06
-2.053258e-05 3.349949e-07 -2.906744e-07
-2.326798e-05 3.381579e-06 8.487196e-07
1.873732e-05 8.377046e-06 2.245941e-07
1.816993e-05 -1.489753e-05 8.742000e-07
-2.341964e-05 -3.961135e-06 -3.971794e-22
1.477040e-05 -1.426922e-05 -3.007245e-07
5.442210e-06 2.153307e-05 -1.619659e-06
2.062648e-05 -1.020410e-05 1.360864e-06
-1.642383e-05 1.235615e-05 3.740305e-07
1.816896e-05 1.491556e-05 -8.572839e-07
8.045910e-06 2.143610e-05 -1.429448e-06
1.511609e-05 -1.520195e-05 -1.466320e-06
-2.045368e-05 9.481981e-06 1.567873e-06
9.107763e-06 2.161325e-05 9.374046e-07
-1.125403e-05 -2.063102e-05 -8.672002e-07
-2.323322e-05 -4.938373e-06 -3.971794e-22
-2.210790e-05 3.832317e-06 1.592292e-06
1.896867e-05 1.156860e-05 1.619250e-06
2.194110e-05 4.620711e-06 1.595153e-06
-1.241628e-05 -1.665589e-05 -8.891864e-07
-4.432702e-07 2.076951e-05 -8.886813e-07
-1.798784e-05 1.139144e-05 -1.387587e-06
2.310428e-05 4.175766e-06 9.014668e-07
-1.029750e-05 -2.111408e-05 -8.821370e-07
-2.109517e-08 -2.207241e-05 -1.620562e-06
-1.355092e-05 -1.545081e-05 -3.676777e-07
-2.300604e-05 -5.906947e-06 -3.971794e-22
1.357809e-06 2.097686e-05 -1.182261e-06
-1.222238e-05 1.849499e-05 1.621162e-06
8.378147e-06 1.882191e-05 5.421864e-07
-4.837709e-06 -2.301464e-05 -8.402437e-07
1.897790e-05 -7.798386e-06 -1.671743e-07
-2.140864e-05 5.018114e-06 1.615400e-06
1.858588e-05 1.438475e-05 8.650590e-07
1.532633e-05 1.783033e-05 -8.492979e-07
1.691750e-05 1.630717e-05 8.727844e-07
-2.237829e-05 -7.188478e-06 -8.614686e-07
-2.273850e-05 -6.865159e-06 -3.971794e-22
-2.343897e-05 1.591207e-06 -8.796835e-07
-1.262909e-05 1.726541e-05 1.443257e-06
2.230057e-05 -2.001798e-06 1.600698e-06
-1.463714e-05 -1.566916e-05 1.468216e-06
-2.047749e-05 -1.309707e-06 1.823138e-07
2.306871e-05 -4.481048e-06 8.687904e-07
-1.974885e-05 -7.039693e-06 -1.128394e-06
2.161037e-05 -9.280783e-06 -8.380013e-07
-7.881549e-06 2.213948e-05 -8.677665e-07
-1.673691e-05 1.264883e-05 -1.141591e-06
-2.243107e-05 -7.811327e-06 -3.971794e-22
1.601460e-05 -1.298064e-05 -5.756700e-07
-1.374225e-05 1.786172e-05 -1.570021e-06
-1.558658e-05 1.605833e-05 1.602507e-06
-1.867672e-05 9.360238e-06 1.045402e-06
-1.199356e-05 1.882237e-05 -1.610661e-06
-1.877259e-05 -1.418093e-05 8.249133e-07
-7.573283e-06 -1.912842e-05 -4.511450e-07
1.620221e-05 1.284932e-05 -7.225014e-07
4.019365e-06 -2.316993e-05 8.429071e-07
9.945014e-07 2.353175e-05 -7.792504e-07
-2.208429e-05 -8.743791e-06 -3.971794e-22
5.225107e-06 1.989440e-05 4.372987e-07
2.049498e-05 7.594536e-07 0.000000e+00
1.517042e-05 -1.603222e-05 1.620547e-06
3.859767e-06 2.320945e-05 8.224682e-07
-9.274721e-06 1.865261e-05 9.701195e-07
-1.381032e-05 1.738324e-05 1.620064e-06
1.878315e-05 -1.417852e-05 -8.129869e-07
2.164355e-05 5.070544e-06 -1.618588e-06
-1.040516e-05 2.110187e-05 8.232065e-07
-9.201757e-06 -1.856552e-05 -8.011798e-07
-2.169877e-05 -9.660915e-06 -3.971794e-22
-2.016320e-05 -9.343581e-06 1.618982e-06
1.074584e-05 2.092207e-05 -8.357018e-07
-2.292147e-05 -5.315515e-06 8.198575e-07
-1.490064e-05 1.564635e-05 -1.534532e-06
1.690914e-05 -1.452307e-05 -1.613772e-06
1.307301e-05 1.957158e-05 -8.088164e-07
2.202546e-05 -5.049217e-06 -1.553164e-06
-1.807592e-05 1.002175e-05 -7.005985e-07
9.530228e-06 -2.043888e-05 -1.566029e-06
-2.171106e-05 9.012028e-06 8.572177e-07
-2.127518e-05 -1.056109e-05 -3.971794e-22
-2.035908e-05 2.558044e-06 -1.807891e-07
-1.571887e-05 -1.574214e-05 1.617479e-06
-4.091523e-06 2.188634e-05 1.615991e-06
-2.067620e-05 -6.426764e-07 -7.369777e-07
2.191669e-05 -5.104728e-06 1.578206e-06
-8.140199e-06 -2.074647e-05 1.614122e-06
7.861283e-06 -2.103871e-05 -1.587923e-06
-9.293948e-06 1.940500e-05 -1.500539e-06
1.944499e-05 8.248676e-06 -1.269911e-06
-1.976313e-05 -8.335786e-06 1.471458e-06
-2.081427e-05 -1.144274e-05 -3.971794e-22
2.044764e-05 1.162035e-05 8.380893e-07
2.149163e-05 9.457828e-06 8.984139e-07
1.986198e-05 -6.951777e-06 1.203138e-06
-2.163510e-05 6.105001e-06 1.583539e-06
-2.155066e-05 -6.704686e-06 1.561090e-06
-5.386185e-06 2.072529e-05 -1.454532e-06
2.207979e-05 -8.211400e-06 7.709898e-07
-1.821976e-05 1.278131e-05 1.616770e-06
-1.378242e-05 -1.793028e-05 -1.547505e-06
-1.945441e-05 1.072322e-05 1.619465e-06
-2.031684e-05 -1.230431e-05 -3.971794e-22
1.708779e-05 1.397363e-05 -1.620613e-06
1.234310e-05 -1.864328e-05 -1.605453e-06
5.013207e-06 2.299717e-05 -8.069103e-07
8.387870e-06 1.978358e-05 1.488952e-06
1.751671e-05 1.339598e-05 -1.619696e-06
-1.547441e-05 1.770683e-05 8.433349e-07
1.128634e-05 -1.921078e-05 1.614639e-06
2.087947e-05 -1.091553e-05 -7.647949e-07
2.054107e-05 -8.616714e-06 1.615155e-06
1.959783e-05 6.740202e-06 -8.077003e-07
-1.978376e-05 -1.314430e-05 -3.971794e-22
1.624822e-05 1.517240e-05 1.618516e-06
1.875511e-05 1.424322e-05 -7.834544e-07
-1.297967e-05 -1.963906e-05 8.008558e-07
2.144747e-05 -8.384135e-07 -1.478168e-06
2.121364e-05 -7.040184e-06 1.606520e-06
2.276411e-06 -2.044897e-05 -4.587531e-07
-1.909785e-05 1.281369e-05 -1.370010e-06
-1.983188e-05 1.268277e-05 8.011762e-07
-1.329537e-06 2.342436e-05 9.257247e-07
-6.716928e-06 2.255457e-05 -8.134078e-07
-1.921598e-05 -1.396123e-05 -3.971794e-22
1.989672e-06 2.249381e-05 -1.557635e-06
1.810795e-05 1.023013e-05 9.238142e-07
-2.291671e-05 5.174388e-06 8.786018e-07
4.008387e-06 -2.319124e-05 -8.106409e-07
-2.138932e-05 -7.076288e-06 -1.571802e-06
2.042760e-05 -1.168294e-05 -8.151580e-07
-1.940464e-05 -7.008853e-06 6.184839e-07
4.216995e-06 2.104391e-05 -1.477459e-06
-9.682458e-06 -2.035193e-05 -1.569672e-06
1.548582e-05 -1.770877e-05 8.284205e-07
-1.861449e-05 -1.475366e-05 -3.971794e-22
-1.362865e-05 -1.799155e-05 1.560763e-06
-2.998087e-06 -2.335576e-05 7.889576e-07
1.853904e-05 -1.175320e-05 1.611594e-06
-1.550632e-05 1.448678e-05 1.342152e-06
6.808203e-06 1.954131e-05 7.508338e-07
3.773140e-07 -2.124364e-05 1.359691e-06
1.385402e-05 -1.906842e-05 -7.471796e-07
2.106147e-05 2.983691e-06 1.375471e-06
1.323685e-05 -1.776716e-05 1.621411e-06
-2.229947e-05 -4.847209e-06 1.467693e-06
-1.798034e-05 -1.552022e-05 -3.971794e-22
3.247166e-06 -2.227731e-05 1.575956e-06
4.657341e-06 -2.165889e-05 1.621440e-06
1.136835e-05 2.063793e-05 7.623145e-07
-8.861396e-07 -2.102674e-05 -1.204928e-06
-2.185371e-05 -2.903155e-06 1.619381e-06
-9.865815e-07 -2.353912e-05 7.662829e-07
-1.703287e-05 -1.488059e-05 1.546806e-06
2.203002e-06 -2.094953e-05 1.222327e-06
2.112341e-05 -7.863331e-06 -1.569214e-06
-3.931444e-06 2.324409e-05 7.387203e-07
-1.731465e-05 -1.625954e-05 -3.971794e-22
1.492010e-05 1.513953e-05 1.365460e-06
-1.703794e-05 -1.172626e-05 7.311827e-07
-2.246023e-05 -2.612380e-06 -1.548633e-06
-1.757983e-05 1.249633e-05 -1.521124e-06
-1.586625e-05 1.307043e-05 3.898577e-07
-1.141497e-05 -2.059454e-05 7.906065e-07
2.092773e-05 3.658678e-06 -1.358480e-06
1.703431e-05 1.618819e-05 -8.694591e-07
1.695790e-05 -1.410161e-05 1.619845e-06
2.190890e-05 8.525727e-06 8.537533e-07
-1.661859e-05 -1.697034e-05 -3.971794e-22
-2.239972e-05 7.289870e-06 7.731307e-07
9.951092e-06 2.129543e-05 8.595087e-07
-1.841671e-05 -1.288799e-05 -1.583897e-06
-2.253266e-05 1.606485e-06 -1.555233e-06
-2.088601e-05 -1.091894e-05 -7.508356e-07
2.341340e-05 2.110556e-06 -8.553382e-07
1.403314e-05 1.752830e-05 1.589098e-06
-1.330175e-05 1.937758e-05 -8.626525e-07
-1.688661e-05 -1.641222e-05 7.874787e-07
1.782182e-05 -1.182748e-05 -1.442279e-06
-1.589337e-05 -1.765137e-05 -3.971794e-22
-1.851195e-05 -1.124346e-05 1.551468e-06
4.768063e-06 2.082404e-05 1.428364e-06
-1.277186e-05 -1.755318e-05 -1.565542e-06
2.034005e-05 -9.554386e-06 -1.585212e-06
-5.011258e-06 2.300046e-05 -8.020047e-07
2.144490e-05 7.208637e-07 1.475067e-06
-2.154437e-05 5.452477e-06 -1.618941e-06
-1.511971e-05 1.678447e-05 1.555085e-06
-2.350664e-05 -1.384058e-06 -7.890363e-07
-1.988760e-05 -1.071325e-05 1.555306e-06
-1.514026e-05 -1.830143e-05 -3.971794e-22
2.137964e-05 8.063663e-07 -1.445058e-06
1.661798e-05 -1.546121e-05 1.519065e-06
1.622402e-05 -1.704309e-05 8.185123e-07
1.426798e-05 -1.864939e-05 8.973126e-07
5.332625e-06 -2.038534e-05 1.227740e-06
6.245428e-06 -2.061401e-05 -1.509952e-06
1.806382e-05 -1.093981e-05 1.266759e-06
5.938410e-06 -2.279203e-05 -7.789097e-07
-2.342942e-05 -2.351947e-06 7.893596e-07
2.130787e-05 -2.437315e-06 1.470368e-06
-1.436060e-05 -1.891939e-05 -3.971794e-22
-1.225928e-05 -1.924904e-05 -1.467141e-06
1.600895e-05 1.386613e-05 -1.313103e-06
-7.709498e-06 2.126268e-05 -1.546893e-06
2.003780e-05 9.905185e-06 -1.606387e-06
2.276191e-05 5.853619e-06 8.646018e-07
-2.093623e-05 -4.505493e-06 -1.455411e-06
2.184473e-05 5.407706e-06 1.578016e-06
2.134545e-05 9.920220e-06 -8.055459e-07
-2.294976e-05 5.382818e-06 -7.419361e-07
-1.139394e-05 -1.973081e-05 -1.484011e-06
-1.355574e-05 -1.950415e-05 -3.971794e-22
2.158714e-05 -4.023613e-06 1.612488e-06
-2.022152e-05 -3.473176e-06 -1.665694e-07
-1.876176e-05 1.427013e-05 -7.430034e-07
-9.641508e-06 -2.052487e-05 1.526938e-06
-2.340618e-06 -2.048527e-05 -5.858067e-07
9.588358e-06 -2.153580e-05 7.394132e-07
-1.275183e-05 1.678502e-05 -1.234799e-06
2.095499e-05 -5.450512e-06 1.549433e-06
-1.890089e-05 -8.101541e-06 -4.186210e-07
-2.327345e-05 -3.575366e-06 7.906033e-07
-1.272710e-05 -2.005470e-05 -3.971794e-22
-1.560904e-05 1.378130e-05 -9.579762e-07
1.135184e-05 1.839494e-05 -1.537668e-06
-1.752183e-05 -1.577673e-05 -7.313997e-07
2.248268e-05 6.868569e-06 8.551226e-07
1.880598e-05 -9.295698e-06 -1.140575e-06
3.708234e-06 -2.031350e-05 6.594757e-07
2.137832e-05 -7.923623e-07 1.444120e-06
1.568117e-05 1.751115e-05 8.588358e-07
1.758324e-05 1.163458e-05 -1.238575e-06
1.374723e-05 1.912134e-05 7.839002e-07
-1.187613e-05 -2.057006e-05 -3.971794e-22
[...]
POINT_DATA 2035
VECTORS 10.000GHz_fone_imag double
-3.077515e+09 2.060815e+10 9.588201e+08
-6.407917e+09 4.180832e+10 1.050951e+08
-2.350925e+10 -2.155392e+10 -1.844600e+09
-1.380324e+10 2.245141e+10 -1.535177e+09
2.567004e+10 -1.956910e+10 -1.277615e+09
5.668299e+09 -3.709219e+10 -5.482041e+09
-1.256948e+10 2.406902e+10 -1.759880e+09
5.782970e+08 4.398526e+10 -1.146338e+09
5.001417e+09 2.090105e+10 -9.943040e+08
1.845148e+10 -4.084441e+10 -1.687750e+09
-1.598581e+10 -1.707533e+10 -3.909317e+08
-5.362834e+09 2.022494e+10 -2.718831e+09
-2.473254e+10 -2.518462e+10 4.193854e+09
2.773412e+10 -4.484269e+09 -1.319658e+09
-1.614160e+10 -2.983157e+10 7.093039e+08
2.133257e+10 3.595123e+10 -4.414540e+08
1.352325e+10 -1.556319e+10 2.180586e+09
2.612073e+10 -1.137916e+10 2.119466e+09
-1.935965e+10 -2.245179e+10 -3.701423e+09
9.751018e+09 2.102241e+10 -2.781020e+07
1.793118e+10 -6.314045e+09 6.909046e+08
-1.821257e+10 9.493970e+09 -1.155333e+09
-2.141099e+09 1.954528e+10 2.517962e+08
6.198207e+09 2.472873e+10 1.326898e+08
1.434475e+10 -2.492152e+10 -1.483391e+09
4.400978e+09 -2.733459e+10 -3.197553e+09
-2.971832e+10 2.748231e+10 4.632926e+07
4.276113e+10 4.064976e+08 3.922789e+07
1.709438e+10 2.587049e+10 1.173597e+09
4.835220e+09 -2.468440e+10 -1.402581e+09
-1.996627e+10 1.065943e+10 -1.218064e+09
-3.251251e+10 -1.018017e+09 -2.169907e+09
-2.652875e+10 2.304567e+10 2.966321e+08
-6.394551e+09 1.836628e+10 9.334077e+08
3.524569e+10 -5.691036e+09 -1.369583e+09
2.435690e+10 1.606052e+10 -2.066900e+09
3.425993e+10 -1.785980e+10 3.849285e+09
-1.652779e+10 3.083419e+09 -1.609746e+09
-1.411283e+10 -3.857354e+10 1.558058e+08
8.328569e+09 2.732211e+10 1.985639e+09
1.734165e+10 -1.693738e+10 4.167529e+09
1.652071e+10 -1.024517e+10 1.697048e+09
1.859812e+10 -2.028027e+10 4.087262e+08
-5.976762e+09 1.795187e+10 5.784872e+08
-4.588624e+09 1.801213e+10 1.474621e+08
1.915960e+09 2.217868e+10 -8.776271e+08
2.321062e+10 1.754156e+10 1.391432e+09
-1.428291e+09 -2.228896e+10 -7.696473e+08
-2.827737e+10 2.203661e+10 -2.265788e+09
-3.263469e+09 5.011257e+10 2.132231e+09
-3.678598e+09 -1.957386e+10 -1.261980e+06
-1.181328e+10 2.903132e+10 -7.867805e+08
-1.138851e+10 -2.063645e+10 -1.261829e+09
1.982413e+10 1.007068e+10 2.075826e+09
2.048894e+10 2.954187e+10 -2.424631e+09
-4.871202e+09 2.090188e+10 1.378066e+09
-2.186814e+10 -2.834072e+10 -1.316614e+08
1.909823e+10 1.306173e+10 -1.327791e+09
2.383499e+10 2.268511e+10 4.422152e+08
1.158510e+10 2.875739e+10 4.472194e+08
2.344271e+10 1.475321e+10 2.177904e+09
-1.719114e+10 2.193827e+10 -1.359942e+09
-2.833795e+10 1.197060e+10 2.333502e+09
2.180099e+10 -2.395876e+10 1.819341e+09
-2.279044e+10 -6.813786e+09 -4.305035e+08
2.020203e+10 -1.271469e+09 -5.241785e+08
-1.022151e+10 2.605214e+10 -1.368104e+08
3.452016e+10 -1.045772e+10 9.758714e+08
-1.760114e+09 -3.702041e+10 -3.119447e+09
-2.249745e+10 -2.402457e+10 -4.181123e+08
2.824373e+10 -5.676851e+09 -9.586575e+07
2.745349e+10 1.745694e+10 -2.095062e+09
2.214080e+10 1.826717e+10 2.115243e+09
-1.230322e+10 -1.402464e+10 5.471014e+08
7.670987e+09 -3.804393e+10 -2.798117e+08
1.779584e+10 8.407965e+09 -5.060552e+08
-2.555727e+10 1.635957e+10 -1.115669e+09
-9.463444e+09 2.137605e+10 -9.101613e+06
-1.158828e+10 2.199703e+10 -2.854951e+09
2.033966e+10 -9.388735e+09 4.714295e+08
-6.803091e+09 2.917467e+10 -1.710509e+08
2.391272e+10 1.810070e+10 -2.624873e+09
-2.363670e+10 -2.770458e+10 -1.189496e+09
1.829862e+10 -1.197691e+10 -2.922544e+09
-8.201256e+09 -3.818723e+10 5.552730e+08
1.845127e+10 2.850788e+10 3.007172e+09
-2.325761e+10 -1.091157e+10 -9.582170e+08
7.303742e+09 1.834350e+10 -6.081312e+08
-1.473985e+10 2.912469e+10 9.984306e+08
3.381920e+09 3.591177e+10 -2.067119e+09
-1.910316e+10 1.917978e+10 1.942377e+08
2.378610e+10 2.753142e+09 7.821852e+08
-1.805560e+09 3.602419e+10 -3.916617e+08
-9.027941e+09 -3.314006e+10 -1.742285e+08
-2.129634e+10 9.542118e+09 -5.237383e+08
-2.776598e+10 -1.192568e+10 -1.178153e+08
2.498989e+10 1.239563e+10 9.848150e+08
1.620893e+10 -2.924268e+10 1.123277e+08
-1.378510e+10 3.017992e+10 -9.259559e+08
-1.148987e+10 2.082511e+10 2.504363e+09
1.028982e+10 -1.648047e+10 -5.227162e+08
1.062652e+10 -2.623008e+10 6.214137e+08
-1.382978e+10 -4.316705e+10 1.847188e+09
8.139611e+09 2.791434e+10 -5.843169e+08
-6.917298e+09 2.225519e+10 -3.887956e+08
2.816305e+10 8.550653e+09 8.698161e+08
-8.972699e+09 -2.444087e+10 1.115524e+09
2.244275e+10 3.383428e+10 7.246154e+08
-2.996358e+10 2.356352e+10 -8.047724e+08
1.763065e+10 2.456842e+10 2.488586e+08
-1.310808e+10 1.730474e+10 -4.652641e+08
1.728798e+10 -2.031971e+10 5.940767e+08
-1.946290e+10 -1.297747e+10 1.234987e+09
2.151699e+10 -4.709156e+09 -1.730780e+09
2.876431e+10 -1.521757e+10 1.561155e+09
1.443054e+10 -2.015606e+10 -2.324131e+08
1.642984e+10 1.429728e+10 1.600343e+09
-2.922851e+10 -1.823771e+10 -6.260979e+08
-1.520782e+10 -2.914402e+10 5.828947e+07
-9.740335e+09 -2.308570e+10 -2.177813e+09
8.463842e+09 -2.729802e+10 -2.113149e+08
-1.006845e+10 1.886237e+10 -8.470302e+08
2.060197e+10 -2.059926e+10 -2.291118e+07
1.278293e+10 -1.631181e+10 -5.302685e+08
-2.801390e+10 1.698655e+10 -2.410334e+09
6.354577e+08 -3.104333e+10 1.701497e+09
-7.649313e+09 -1.687598e+10 5.677758e+08
-3.215854e+10 -2.349410e+09 3.587155e+09
1.849030e+10 2.930794e+10 1.345357e+09
1.434697e+10 2.272347e+10 4.176985e+08
2.132304e+10 1.227323e+09 3.836003e+08
1.812421e+10 3.016162e+09 7.813038e+07
-1.689457e+10 2.300448e+10 -2.367456e+09
2.294476e+10 -1.780117e+09 -8.083280e+08
1.641860e+10 -2.677908e+10 -2.424117e+09
3.186224e+09 2.135857e+10 2.221893e+07
-2.246279e+10 -6.076121e+09 1.549695e+09
-6.222695e+09 2.129349e+10 2.530534e+07
-1.299252e+10 -2.204801e+10 1.420955e+09
-1.556722e+10 3.356632e+10 -7.603832e+08
3.043990e+10 -4.263346e+09 1.361642e+09
-2.252824e+10 1.054969e+10 -1.025128e+09
-1.903301e+10 -1.750844e+10 8.926300e+08
-1.573825e+10 1.548931e+10 8.856821e+08
-2.493544e+10 1.747260e+10 1.763435e+09
-2.173302e+10 3.016145e+09 4.637336e+08
-1.911932e+10 -3.076466e+10 -6.625639e+07
2.580918e+10 2.999698e+10 -2.487165e+08
4.819976e+10 -1.600297e+10 4.628712e+08
-3.602994e+10 -1.937515e+09 -1.601949e+08
-1.491716e+10 -1.152784e+10 2.976804e+08
8.623909e+09 -4.058716e+10 1.881826e+09
-2.111238e+10 -1.687217e+10 -2.592084e+09
-5.283337e+09 2.825102e+10 8.064617e+07
-1.233197e+10 1.720132e+10 3.923500e+08
-3.037604e+10 -3.839172e+09 1.925849e+09
-2.981280e+10 -6.352766e+09 -5.417399e+08
2.029938e+10 -1.008344e+10 -8.112045e+08
-4.183585e+10 1.082076e+09 -7.958483e+08
-5.903590e+09 3.134064e+10 -6.096304e+08
-2.129822e+10 3.268216e+07 -2.670360e+09
-1.381612e+10 1.547930e+10 -8.494316e+08
-3.751427e+10 -1.258343e+09 -1.553807e+09
-1.348733e+10 -2.392324e+10 -1.444197e+09
2.008253e+10 2.876937e+09 1.036408e+09
-1.748314e+10 1.872237e+10 1.472783e+09
2.256079e+10 -2.192994e+10 8.034869e+08
-2.277290e+10 2.605235e+10 1.016445e+09
-3.740943e+09 3.145468e+10 -3.958650e+08
1.762387e+10 2.142289e+10 3.215703e+09
2.237830e+10 2.357293e+10 9.124684e+08
-2.704717e+10 1.617322e+10 2.060890e+09
6.085617e+09 -3.628928e+10 2.280436e+09
1.372168e+10 -1.444146e+10 8.330271e+08
-1.812067e+10 -2.315698e+10 1.447198e+09
5.623081e+09 -2.083870e+10 -4.662657e+06
-1.656665e+10 1.352507e+10 -1.048892e+09
1.004925e+10 2.100096e+10 -7.781547e+08
1.779521e+10 -9.001889e+09 1.845338e+08
-1.550078e+10 2.097901e+10 2.114925e+09
1.609852e+09 3.837102e+10 2.133287e+08
-1.020384e+10 1.888573e+10 9.055578e+08
4.271152e+09 -2.942400e+10 3.801131e+08
2.140954e+10 -1.716604e+10 -3.689576e+08
2.284207e+10 1.589232e+10 1.713574e+09
-1.723810e+10 1.363880e+10 -1.138110e+08
-2.083671e+10 -2.607804e+10 -2.115582e+09
-1.369001e+10 1.267051e+10 -2.234010e+08
-2.104415e+10 3.519485e+10 -1.141410e+08
3.043606e+10 -6.398832e+09 7.792196e+07
-2.079377e+10 1.715606e+10 -2.305678e+09
-1.086862e+10 -2.739754e+10 -3.337738e+09
1.907877e+10 3.613450e+09 -1.220855e+09
1.627748e+09 -2.638355e+10 1.262735e+09
1.077924e+10 3.204923e+10 -2.910941e+09
1.819535e+10 1.746034e+10 -2.993130e+09
7.830262e+08 2.418372e+10 1.563164e+09
-1.219326e+10 2.254752e+10 -1.138402e+08
-1.501853e+10 1.482390e+10 8.013173e+08
-2.585178e+09 -3.335473e+10 -2.301640e+09
-1.753613e+10 -1.930207e+10 -8.967629e+08
-1.372106e+10 -1.217367e+10 5.910997e+08
-2.065316e+10 -1.336220e+10 -2.061155e+09
-3.330521e+10 -1.067531e+10 2.972099e+08
-3.551216e+10 -1.454636e+10 7.491139e+07
-2.185966e+10 -3.616632e+10 -7.889301e+08
-1.830234e+10 -5.829527e+09 -1.383925e+08
-3.459483e+09 2.819860e+10 -6.028016e+08
-2.055912e+09 -3.422597e+10 -1.609640e+09
-1.851995e+10 1.404186e+10 4.225537e+08
-2.287805e+10 1.127104e+10 2.969734e+08
2.276640e+10 -2.637630e+10 3.327519e+08
2.596001e+10 7.382410e+09 -3.208918e+09
1.247190e+10 -2.245024e+10 1.389339e+08
7.174967e+09 -2.328242e+10 3.995355e+08
-7.014681e+09 3.443507e+10 -3.569368e+08
1.210446e+10 -3.443929e+10 -1.972354e+09
1.074025e+10 -2.019886e+10 -7.235539e+08
1.569849e+09 2.364329e+10 6.981881e+08
-2.676720e+10 1.480075e+10 1.730400e+09
-2.685478e+10 1.743561e+10 -6.345616e+08
-5.869776e+09 -2.575302e+10 1.480113e+09
-7.599562e+09 3.164438e+10 8.062408e+08
1.507824e+10 1.978414e+10 8.825551e+08
-2.055017e+10 9.161656e+09 4.420695e+08
-4.728680e+10 7.031742e+09 2.615207e+06
-1.911182e+10 -1.060235e+10 1.612930e+09
3.439105e+10 2.618489e+10 1.387417e+09
-9.799801e+09 -3.709122e+10 -6.559419e+08
-1.338365e+10 3.449184e+10 3.704658e+08
-4.331099e+09 2.004783e+10 1.301300e+09
-2.530103e+10 1.587004e+10 -1.882916e+09
2.760319e+10 3.370602e+10 1.652342e+09
2.306559e+10 -1.645557e+10 2.678619e+08
-1.649886e+10 1.941949e+10 -3.541855e+08
5.894461e+09 -1.654770e+10 1.256423e+08
-1.905206e+10 -2.960584e+10 3.405159e+08
-3.579371e+10 -6.893203e+09 2.385434e+09
-4.087255e+09 -3.065443e+10 1.902839e+09
1.332727e+10 -1.409827e+10 -5.976363e+08
2.128917e+10 -3.459131e+10 1.685185e+09
2.928685e+10 -1.858406e+10 -3.178395e+09
-1.725462e+10 1.047204e+10 -1.165237e+09
2.356563e+10 1.318894e+10 -7.013605e+08
1.373800e+10 -2.019462e+10 -8.350112e+08
-3.263626e+10 4.272248e+09 4.843210e+09
-2.108783e+10 2.621168e+10 1.334560e+09
4.844463e+08 2.983890e+10 -3.747967e+08
-1.683380e+10 -4.329359e+10 1.984298e+09
1.820245e+10 1.437660e+10 8.089933e+08
-4.278165e+09 -2.558906e+10 -1.267826e+08
-1.064063e+10 4.850548e+10 5.216750e+08
1.297699e+10 -3.171676e+10 4.766244e+08
-2.144055e+10 9.734536e+09 2.755196e+09
-2.767569e+10 4.381881e+10 7.581243e+08
1.335585e+10 -1.994086e+10 -1.089178e+09
-1.449988e+10 3.099573e+10 1.464039e+09
3.001561e+10 4.220236e+09 1.838970e+09
3.260438e+08 2.828976e+10 6.251239e+08
-2.150383e+10 -1.761051e+10 1.145404e+09
3.034359e+10 4.597936e+09 1.222621e+08
1.747108e+10 -2.957104e+10 4.346443e+09
3.146340e+10 3.878601e+09 4.059121e+08
8.950730e+09 -2.904591e+10 3.585382e+08
-1.979168e+10 1.015690e+10 -5.416502e+08
-2.049743e+10 1.821327e+10 1.194616e+09
-2.664144e+10 -1.663255e+10 -2.113616e+08
2.653406e+10 8.124932e+09 4.756812e+08
-1.959546e+10 -3.346596e+10 1.051336e+09
8.993638e+09 2.273605e+10 1.150291e+09
-1.597208e+09 -3.554168e+10 2.092862e+09
3.414119e+10 3.720888e+09 1.257432e+09
2.329206e+10 2.896799e+09 1.103902e+09
3.722244e+09 2.662913e+10 7.556211e+08
3.034943e+10 1.997789e+10 -6.869950e+08
-1.798711e+10 5.412090e+09 -6.800118e+08
3.074442e+10 1.068145e+10 1.627253e+09
-2.771301e+10 -4.718259e+09 3.841721e+08
2.452870e+10 -1.496232e+10 2.573625e+09
3.517738e+10 -1.471832e+10 1.909259e+08
3.908517e+10 -2.965688e+10 -2.068296e+09
7.932185e+09 2.616052e+10 -2.439765e+08
-2.110060e+10 2.188460e+08 -1.094683e+09
-1.863038e+09 2.984092e+10 2.691119e+09
1.956186e+10 -1.844044e+10 5.623431e+08
1.882562e+10 2.614673e+10 -1.486185e+09
-1.764131e+10 6.880704e+09 1.641470e+09
-2.993171e+10 -4.468855e+08 3.432760e+08
3.628627e+10 -1.986033e+10 5.637154e+08
1.336046e+10 4.941402e+10 -7.848576e+07
-7.962691e+09 2.034240e+10 -1.732342e+09
1.434564e+10 1.265139e+10 5.274231e+07
8.393970e+09 1.722369e+10 -1.430339e+09
-2.891288e+10 -1.669716e+10 1.153434e+09
-1.940277e+10 -2.375400e+10 3.361143e+09
-3.223772e+10 3.297860e+10 5.606847e+08
2.709805e+10 -8.890114e+09 -4.637711e+06
-2.207242e+10 9.037140e+09 -3.051593e+08
-2.091901e+10 -2.911664e+10 -4.059205e+09
1.497153e+10 3.468280e+10 -3.721746e+08
-2.931309e+10 1.719988e+10 1.941080e+08
-1.525093e+10 2.262196e+10 6.155849e+08
2.799505e+10 -2.722987e+10 -6.749988e+08
-2.878340e+10 -4.454026e+09 -2.744075e+09
3.049970e+09 -2.436384e+10 -9.982422e+08
1.158014e+10 -2.504316e+10 -8.492596e+08
9.152285e+09 3.461333e+10 -3.530364e+09
9.430945e+09 -1.794577e+10 -5.809935e+08
-2.214782e+10 3.123047e+09 1.227296e+09
3.289279e+08 3.478304e+10 -5.123674e+08
3.081162e+10 -6.167313e+09 9.045346e+08
-1.478330e+10 -4.416646e+10 3.509895e+08
8.052959e+09 -3.079096e+10 -2.091843e+08
2.754980e+10 1.402139e+10 -3.660064e+08
1.750934e+10 -1.266513e+10 5.997212e+08
3.008410e+10 -8.838244e+09 -2.125962e+09
3.644824e+10 2.641597e+10 1.543537e+09
1.840590e+10 9.881996e+09 5.216797e+08
-2.747126e+10 4.402021e+09 -3.191102e+09
-1.724968e+10 5.460242e+09 -2.011831e+09
7.466626e+09 2.292845e+10 -1.389482e+09
-1.906562e+10 -5.177405e+08 -1.626951e+09
3.297712e+10 2.505581e+10 -3.149202e+08
-2.139171e+10 -1.667671e+10 2.385245e+09
-1.552764e+10 -2.199851e+10 5.153043e+08
-2.928500e+10 -2.764332e+10 7.027405e+08
2.385820e+10 2.614744e+10 1.561333e+09
3.647094e+09 -2.159254e+10 1.647320e+09
-3.201330e+10 7.610451e+09 6.561954e+08
5.945071e+09 2.251999e+10 -1.889952e+09
-1.984320e+10 1.775414e+09 2.525269e+09
-2.403127e+09 -2.672449e+10 3.014990e+08
-1.136047e+10 -1.145988e+10 6.781116e+08
2.578086e+10 -1.275012e+10 9.807722e+08
8.457525e+09 -1.724309e+10 6.515492e+07
1.170070e+10 2.735865e+10 -3.063725e+09
2.449739e+10 -4.269687e+09 -1.031014e+09
-1.584196e+10 -2.664563e+10 -5.274575e+08
-2.631511e+10 -2.242728e+10 6.637339e+08
-2.816816e+10 -1.548061e+10 1.184901e+09
1.074754e+10 -2.019531e+10 3.192878e+09
-1.988905e+10 4.334151e+09 2.629454e+08
-2.127386e+10 -1.900798e+10 4.845864e+08
5.375108e+08 2.751129e+10 -1.604368e+09
-4.116397e+09 2.684336e+10 1.252165e+08
2.223070e+10 3.722519e+09 9.160418e+07
3.466022e+09 -3.151047e+10 -8.076341e+07
1.842566e+10 -1.880954e+10 -1.620413e+08
2.038871e+10 -2.068444e+10 2.167420e+09
-2.726883e+10 5.605556e+09 3.391627e+08
2.213692e+10 -1.333555e+09 -3.967742e+09
1.839710e+10 -3.879459e+10 -3.552418e+08
-2.091834e+10 2.274841e+09 1.109105e+08
4.324270e+10 3.960158e+08 1.283998e+09
2.208202e+10 8.397902e+09 2.953087e+09
6.009799e+09 -3.205579e+10 -1.366792e+09
-3.484797e+10 1.840142e+09 -1.355476e+08
-6.073545e+09 3.863157e+10 9.015426e+07
-1.692670e+10 2.182632e+10 -3.752362e+08
1.603698e+10 -2.097867e+10 -8.934252e+08
4.942897e+09 3.570230e+10 -3.807818e+08
-1.467890e+10 1.922846e+10 -1.453564e+09
2.270441e+10 -5.797554e+09 -1.049455e+09
-2.263894e+10 1.804587e+09 -3.912751e+08
-1.841817e+10 -2.968037e+10 -2.377182e+09
7.533707e+09 -2.370795e+10 3.169602e+09
1.630559e+10 5.032459e+10 1.228273e+09
1.487038e+10 -1.167937e+10 2.353776e+09
3.702570e+10 1.502643e+10 3.774216e+08
-1.817834e+10 -2.732154e+10 -4.235094e+08
3.677116e+10 3.776257e+09 -9.245448e+07
1.695574e+10 -1.986219e+10 1.372744e+09
-1.222595e+10 -2.994718e+10 2.483205e+07
1.243286e+10 3.429223e+10 5.933928e+08
-1.665427e+10 -9.538140e+08 1.696061e+08
-1.312868e+10 -2.653025e+10 -8.869266e+08
1.673029e+10 -3.202326e+10 -1.606936e+08
1.280312e+10 -1.989323e+10 1.143425e+07
3.024447e+09 -2.027127e+10 2.029319e+08
2.521393e+10 -1.987195e+10 1.828894e+09
-2.348580e+10 9.178813e+08 2.139543e+09
-2.102608e+10 -4.490812e+10 1.187607e+08
-2.725078e+10 -6.420668e+09 -3.698996e+08
-4.406492e+09 2.641119e+10 -2.060262e+08
2.280033e+10 8.895815e+08 1.488427e+09
-2.503552e+10 2.747013e+09 -1.047682e+09
3.141476e+10 -1.018505e+10 -5.446014e+08
-1.534043e+10 1.554741e+10 1.762391e+09
3.118378e+10 1.113542e+10 2.226468e+09
1.787865e+10 8.610951e+09 1.351558e+08
-2.883010e+09 -2.872957e+10 9.940944e+08
-6.447176e+09 2.162876e+10 9.232623e+08
-9.529898e+09 -2.193891e+10 2.400415e+09
-2.649016e+09 -2.049148e+10 2.140098e+09
-2.572928e+10 1.379512e+09 2.726726e+08
1.226534e+10 -3.238483e+10 -3.635154e+08
-3.241727e+10 -9.552694e+08 7.521816e+08
7.160428e+09 3.104024e+10 -2.824546e+09
-5.272756e+10 -1.526803e+09 2.173735e+08
-2.146209e+10 2.287874e+09 -1.217961e+09
-5.337785e+09 3.352511e+10 -1.161500e+08
-3.219860e+10 -3.593112e+09 -7.205228e+08
-1.753108e+10 -2.087816e+10 7.328977e+08
-2.543834e+10 1.129460e+10 3.472392e+08
-2.376687e+10 -2.036787e+10 2.093205e+09
-1.614104e+10 -1.752106e+10 1.857112e+09
2.929769e+10 -2.136599e+09 -4.404467e+08
-2.563088e+10 -2.866205e+09 -3.599639e+08
3.047761e+10 4.438635e+10 -3.002359e+09
3.951773e+09 -4.327999e+10 1.535623e+09
2.935368e+10 2.202844e+10 -1.788225e+09
1.776744e+10 1.837564e+10 -3.236696e+08
-3.818155e+10 1.956912e+09 -1.383162e+09
1.981372e+10 1.467632e+10 -2.427913e+09
-1.767368e+10 -2.127798e+09 2.766708e+08
-1.668896e+10 7.088934e+09 4.904863e+08
-1.698832e+10 3.638891e+10 -5.625722e+08
3.983574e+09 1.885596e+10 9.797645e+08
-3.045102e+10 -4.482403e+09 -4.476245e+08
1.704912e+10 -9.515088e+09 4.470838e+08
-1.749499e+10 -3.696469e+10 -1.289623e+09
-2.540968e+10 -2.936935e+10 -9.925447e+07
1.618138e+09 2.459854e+10 7.388554e+08
-2.407409e+10 7.891400e+09 5.544735e+08
2.247332e+10 1.847999e+10 -9.393052e+08
1.456888e+10 -2.234470e+10 2.336578e+08
2.407517e+10 -2.064820e+10 -1.292621e+09
3.092982e+10 8.202451e+09 3.776347e+08
-2.335756e+10 4.264652e+10 -2.087439e+09
-2.040766e+10 -4.890690e+09 1.814613e+09
2.157387e+10 3.440799e+09 2.121755e+08
6.467387e+09 2.855066e+10 5.505087e+08
-1.163180e+10 -2.341086e+10 7.952438e+08
-2.448359e+09 -2.809142e+10 -8.357919e+08
-1.756230e+10 -3.085222e+10 6.192646e+08
-2.030091e+09 3.206121e+10 -5.855737e+08
1.957428e+10 1.942698e+10 6.700236e+08
1.695399e+10 2.375661e+10 1.155001e+09
1.949872e+10 2.614780e+10 1.853556e+08
-1.668742e+10 2.613937e+10 -1.188790e+09
-2.023914e+10 -4.757393e+09 -2.173040e+09
-3.054277e+10 1.864098e+10 -8.906195e+08
8.993549e+09 3.136183e+10 1.891281e+09
-2.411644e+10 7.708844e+09 -2.674878e+09
-2.464806e+10 -5.666703e+09 6.567430e+07
-2.920528e+10 -1.040402e+10 -3.483912e+07
-4.680973e+09 3.247961e+10 8.395349e+03
2.253133e+10 2.571194e+10 -1.551784e+09
-1.827703e+10 -1.699485e+10 7.937211e+08
1.467958e+10 2.459033e+10 -5.013914e+08
-1.852636e+10 -9.133099e+09 1.159145e+08
-1.691805e+10 -4.881574e+09 -2.428443e+08
4.806472e+10 -1.417642e+10 -1.991385e+09
-2.234510e+10 -2.940255e+10 1.032278e+08
-2.744127e+10 -1.486099e+10 2.625029e+08
2.187752e+10 2.489894e+10 -3.946582e+08
3.417768e+10 -1.688330e+10 5.195951e+08
2.674769e+10 6.217014e+09 -1.467109e+09
1.754410e+10 9.549945e+09 7.567105e+07
3.639927e+09 2.989880e+10 -1.832447e+09
1.646441e+10 2.431739e+10 -2.074382e+09
-4.059129e+10 -1.212015e+10 1.878794e+08
-2.200114e+10 -6.049060e+09 2.419544e+09
1.982229e+10 -1.333190e+09 -1.482329e+09
-2.755291e+10 -3.562984e+10 3.547444e+07
-3.227156e+10 9.034375e+09 -7.493787e+08
3.074073e+10 -1.144680e+10 1.078580e+09
-1.193355e+10 -2.637164e+10 1.864845e+09
-2.470062e+10 -1.582371e+10 -5.825541e+08
3.465825e+10 -5.058646e+09 1.614755e+09
3.358476e+10 2.827357e+10 4.688973e+08
3.444396e+10 1.023986e+10 -7.361251e+07
2.146973e+10 -3.785423e+09 -2.002521e+09
-2.560543e+10 -9.785381e+09 -9.285308e+08
-2.401150e+10 -1.888872e+10 5.314416e+07
-2.867954e+10 -6.010562e+09 2.598900e+09
1.515408e+10 -1.808672e+10 -1.412944e+09
-2.132988e+10 7.933524e+09 -2.119762e+08
-2.317086e+10 -2.642507e+10 4.119175e+09
2.640690e+09 2.411423e+10 2.578152e+09
-2.547579e+10 2.122554e+10 7.587778e+08
2.527337e+10 9.692696e+09 -1.289924e+09
1.299927e+10 -1.774945e+10 2.140090e+09
1.471770e+10 2.040590e+10 -6.399208e+08
-1.591989e+10 -8.001677e+09 -7.957916e+08
2.353374e+10 -1.980038e+10 3.409849e+09
1.031744e+10 -2.029572e+10 3.777501e+08
2.083371e+10 3.226177e+10 3.119030e+08
2.341589e+10 -1.006036e+10 -2.472478e+09
4.460616e+09 4.527534e+10 1.734602e+09
3.318275e+10 -2.216699e+10 -1.485317e+09
3.129129e+10 4.865814e+10 -2.894555e+09