# vtk DataFile Version 2.0
Electric current density generated by TTH
ASCII
DATASET UNSTRUCTURED_GRID
POINTS 1824 double
2.375226e-05 -5.817626e-21 -3.971794e-22
2.208429e-05 8.743791e-06 -3.971794e-22
-1.272710e-05 -2.005470e-05 -3.971794e-22
1.896867e-05 1.156860e-05 1.619250e-06
2.194110e-05 4.620711e-06 1.595153e-06
-1.241628e-05 -1.665589e-05 -8.891864e-07
-4.432702e-07 2.076951e-05 -8.886813e-07
-1.798784e-05 1.139144e-05 -1.387587e-06
2.310428e-05 4.175766e-06 9.014668e-07
-1.029750e-05 -2.111408e-05 -8.821370e-07
-2.109517e-08 -2.207241e-05 -1.620562e-06
-1.355092e-05 -1.545081e-05 -3.676777e-07
1.357809e-06 2.097686e-05 -1.182261e-06
-1.187613e-05 -2.057006e-05 -3.971794e-22
-1.222238e-05 1.849499e-05 1.621162e-06
8.378147e-06 1.882191e-05 5.421864e-07
-4.837709e-06 -2.301464e-05 -8.402437e-07
1.897790e-05 -7.798386e-06 -1.671743e-07
-2.140864e-05 5.018114e-06 1.615400e-06
1.858588e-05 1.438475e-05 8.650590e-07
1.532633e-05 1.783033e-05 -8.492979e-07
1.691750e-05 1.630717e-05 8.727844e-07
-2.237829e-05 -7.188478e-06 -8.614686e-07
-2.343897e-05 1.591207e-06 -8.796835e-07
-1.100433e-05 -2.104934e-05 -3.971794e-22
-1.262909e-05 1.726541e-05 1.443257e-06
2.230057e-05 -2.001798e-06 1.600698e-06
-1.463714e-05 -1.566916e-05 1.468216e-06
-2.047749e-05 -1.309707e-06 1.823138e-07
2.306871e-05 -4.481048e-06 8.687904e-07
-1.974885e-05 -7.039693e-06 -1.128394e-06
2.161037e-05 -9.280783e-06 -8.380013e-07
-7.881549e-06 2.213948e-05 -8.677665e-07
-1.673691e-05 1.264883e-05 -1.141591e-06
1.601460e-05 -1.298064e-05 -5.756700e-07
-1.011322e-05 -2.149169e-05 -3.971794e-22
-1.374225e-05 1.786172e-05 -1.570021e-06
-1.558658e-05 1.605833e-05 1.602507e-06
-1.867672e-05 9.360238e-06 1.045402e-06
-1.199356e-05 1.882237e-05 -1.610661e-06
-1.877259e-05 -1.418093e-05 8.249133e-07
-7.573283e-06 -1.912842e-05 -4.511450e-07
1.620221e-05 1.284932e-05 -7.225014e-07
4.019365e-06 -2.316993e-05 8.429071e-07
9.945014e-07 2.353175e-05 -7.792504e-07
5.225107e-06 1.989440e-05 4.372987e-07
-9.204371e-06 -2.189633e-05 -3.971794e-22
2.049498e-05 7.594536e-07 0.000000e+00
1.517042e-05 -1.603222e-05 1.620547e-06
3.859767e-06 2.320945e-05 8.224682e-07
-9.274721e-06 1.865261e-05 9.701195e-07
-1.381032e-05 1.738324e-05 1.620064e-06
1.878315e-05 -1.417852e-05 -8.129869e-07
2.164355e-05 5.070544e-06 -1.618588e-06
-1.040516e-05 2.110187e-05 8.232065e-07
-9.201757e-06 -1.856552e-05 -8.011798e-07
-2.016320e-05 -9.343581e-06 1.618982e-06
-8.279374e-06 -2.226257e-05 -3.971794e-22
1.074584e-05 2.092207e-05 -8.357018e-07
-2.292147e-05 -5.315515e-06 8.198575e-07
-1.490064e-05 1.564635e-05 -1.534532e-06
1.690914e-05 -1.452307e-05 -1.613772e-06
1.307301e-05 1.957158e-05 -8.088164e-07
2.202546e-05 -5.049217e-06 -1.553164e-06
-1.807592e-05 1.002175e-05 -7.005985e-07
9.530228e-06 -2.043888e-05 -1.566029e-06
-2.171106e-05 9.012028e-06 8.572177e-07
-2.035908e-05 2.558044e-06 -1.807891e-07
-7.339852e-06 -2.258974e-05 -3.971794e-22
-1.571887e-05 -1.574214e-05 1.617479e-06
-4.091523e-06 2.188634e-05 1.615991e-06
-2.067620e-05 -6.426764e-07 -7.369777e-07
2.191669e-05 -5.104728e-06 1.578206e-06
-8.140199e-06 -2.074647e-05 1.614122e-06
7.861283e-06 -2.103871e-05 -1.587923e-06
-9.293948e-06 1.940500e-05 -1.500539e-06
1.944499e-05 8.248676e-06 -1.269911e-06
-1.976313e-05 -8.335786e-06 1.471458e-06
2.044764e-05 1.162035e-05 8.380893e-07
-6.387454e-06 -2.287729e-05 -3.971794e-22
2.149163e-05 9.457828e-06 8.984139e-07
1.986198e-05 -6.951777e-06 1.203138e-06
-2.163510e-05 6.105001e-06 1.583539e-06
-2.155066e-05 -6.704686e-06 1.561090e-06
-5.386185e-06 2.072529e-05 -1.454532e-06
2.207979e-05 -8.211400e-06 7.709898e-07
-1.821976e-05 1.278131e-05 1.616770e-06
-1.378242e-05 -1.793028e-05 -1.547505e-06
-1.945441e-05 1.072322e-05 1.619465e-06
1.708779e-05 1.397363e-05 -1.620613e-06
-5.423850e-06 -2.312470e-05 -3.971794e-22
1.234310e-05 -1.864328e-05 -1.605453e-06
5.013207e-06 2.299717e-05 -8.069103e-07
8.387870e-06 1.978358e-05 1.488952e-06
1.751671e-05 1.339598e-05 -1.619696e-06
-1.547441e-05 1.770683e-05 8.433349e-07
1.128634e-05 -1.921078e-05 1.614639e-06
2.087947e-05 -1.091553e-05 -7.647949e-07
2.054107e-05 -8.616714e-06 1.615155e-06
1.959783e-05 6.740202e-06 -8.077003e-07
1.624822e-05 1.517240e-05 1.618516e-06
-4.450730e-06 -2.333154e-05 -3.971794e-22
1.875511e-05 1.424322e-05 -7.834544e-07
-1.297967e-05 -1.963906e-05 8.008558e-07
2.144747e-05 -8.384135e-07 -1.478168e-06
2.121364e-05 -7.040184e-06 1.606520e-06
2.276411e-06 -2.044897e-05 -4.587531e-07
-1.909785e-05 1.281369e-05 -1.370010e-06
-1.983188e-05 1.268277e-05 8.011762e-07
-1.329537e-06 2.342436e-05 9.257247e-07
-6.716928e-06 2.255457e-05 -8.134078e-07
1.989672e-06 2.249381e-05 -1.557635e-06
2.169877e-05 9.660915e-06 -3.971794e-22
-3.469802e-06 -2.349745e-05 -3.971794e-22
1.810795e-05 1.023013e-05 9.238142e-07
-2.291671e-05 5.174388e-06 8.786018e-07
4.008387e-06 -2.319124e-05 -8.106409e-07
-2.138932e-05 -7.076288e-06 -1.571802e-06
2.042760e-05 -1.168294e-05 -8.151580e-07
-1.940464e-05 -7.008853e-06 6.184839e-07
4.216995e-06 2.104391e-05 -1.477459e-06
-9.682458e-06 -2.035193e-05 -1.569672e-06
1.548582e-05 -1.770877e-05 8.284205e-07
-1.362865e-05 -1.799155e-05 1.560763e-06
-2.482787e-06 -2.362214e-05 -3.971794e-22
-2.998087e-06 -2.335576e-05 7.889576e-07
1.853904e-05 -1.175320e-05 1.611594e-06
-1.550632e-05 1.448678e-05 1.342152e-06
6.808203e-06 1.954131e-05 7.508338e-07
3.773140e-07 -2.124364e-05 1.359691e-06
1.385402e-05 -1.906842e-05 -7.471796e-07
2.106147e-05 2.983691e-06 1.375471e-06
1.323685e-05 -1.776716e-05 1.621411e-06
-2.229947e-05 -4.847209e-06 1.467693e-06
3.247166e-06 -2.227731e-05 1.575956e-06
-1.491417e-06 -2.370539e-05 -3.971794e-22
4.657341e-06 -2.165889e-05 1.621440e-06
1.136835e-05 2.063793e-05 7.623145e-07
-8.861396e-07 -2.102674e-05 -1.204928e-06
-2.185371e-05 -2.903155e-06 1.619381e-06
-9.865815e-07 -2.353912e-05 7.662829e-07
-1.703287e-05 -1.488059e-05 1.546806e-06
2.203002e-06 -2.094953e-05 1.222327e-06
2.112341e-05 -7.863331e-06 -1.569214e-06
-3.931444e-06 2.324409e-05 7.387203e-07
1.492010e-05 1.513953e-05 1.365460e-06
-4.974298e-07 -2.374705e-05 -3.971794e-22
-1.703794e-05 -1.172626e-05 7.311827e-07
-2.246023e-05 -2.612380e-06 -1.548633e-06
-1.757983e-05 1.249633e-05 -1.521124e-06
-1.586625e-05 1.307043e-05 3.898577e-07
-1.141497e-05 -2.059454e-05 7.906065e-07
2.092773e-05 3.658678e-06 -1.358480e-06
1.703431e-05 1.618819e-05 -8.694591e-07
1.695790e-05 -1.410161e-05 1.619845e-06
2.190890e-05 8.525727e-06 8.537533e-07
-2.239972e-05 7.289870e-06 7.731307e-07
4.974298e-07 -2.374705e-05 -3.971794e-22
9.951092e-06 2.129543e-05 8.595087e-07
-1.841671e-05 -1.288799e-05 -1.583897e-06
-2.253266e-05 1.606485e-06 -1.555233e-06
-2.088601e-05 -1.091894e-05 -7.508356e-07
2.341340e-05 2.110556e-06 -8.553382e-07
1.403314e-05 1.752830e-05 1.589098e-06
-1.330175e-05 1.937758e-05 -8.626525e-07
-1.688661e-05 -1.641222e-05 7.874787e-07
1.782182e-05 -1.182748e-05 -1.442279e-06
-1.851195e-05 -1.124346e-05 1.551468e-06
1.491417e-06 -2.370539e-05 -3.971794e-22
4.768063e-06 2.082404e-05 1.428364e-06
-1.277186e-05 -1.755318e-05 -1.565542e-06
2.034005e-05 -9.554386e-06 -1.585212e-06
-5.011258e-06 2.300046e-05 -8.020047e-07
2.144490e-05 7.208637e-07 1.475067e-06
-2.154437e-05 5.452477e-06 -1.618941e-06
-1.511971e-05 1.678447e-05 1.555085e-06
-2.350664e-05 -1.384058e-06 -7.890363e-07
-1.988760e-05 -1.071325e-05 1.555306e-06
2.137964e-05 8.063663e-07 -1.445058e-06
2.482787e-06 -2.362214e-05 -3.971794e-22
1.661798e-05 -1.546121e-05 1.519065e-06
1.622402e-05 -1.704309e-05 8.185123e-07
1.426798e-05 -1.864939e-05 8.973126e-07
5.332625e-06 -2.038534e-05 1.227740e-06
6.245428e-06 -2.061401e-05 -1.509952e-06
1.806382e-05 -1.093981e-05 1.266759e-06
5.938410e-06 -2.279203e-05 -7.789097e-07
-2.342942e-05 -2.351947e-06 7.893596e-07
2.130787e-05 -2.437315e-06 1.470368e-06
-1.225928e-05 -1.924904e-05 -1.467141e-06
3.469802e-06 -2.349745e-05 -3.971794e-22
1.600895e-05 1.386613e-05 -1.313103e-06
-7.709498e-06 2.126268e-05 -1.546893e-06
2.003780e-05 9.905185e-06 -1.606387e-06
2.276191e-05 5.853619e-06 8.646018e-07
-2.093623e-05 -4.505493e-06 -1.455411e-06
2.184473e-05 5.407706e-06 1.578016e-06
2.134545e-05 9.920220e-06 -8.055459e-07
-2.294976e-05 5.382818e-06 -7.419361e-07
-1.139394e-05 -1.973081e-05 -1.484011e-06
2.158714e-05 -4.023613e-06 1.612488e-06
4.450730e-06 -2.333154e-05 -3.971794e-22
-2.022152e-05 -3.473176e-06 -1.665694e-07
-1.876176e-05 1.427013e-05 -7.430034e-07
-9.641508e-06 -2.052487e-05 1.526938e-06
-2.340618e-06 -2.048527e-05 -5.858067e-07
9.588358e-06 -2.153580e-05 7.394132e-07
-1.275183e-05 1.678502e-05 -1.234799e-06
2.095499e-05 -5.450512e-06 1.549433e-06
-1.890089e-05 -8.101541e-06 -4.186210e-07
-2.327345e-05 -3.575366e-06 7.906033e-07
-1.560904e-05 1.378130e-05 -9.579762e-07
5.423850e-06 -2.312470e-05 -3.971794e-22
1.135184e-05 1.839494e-05 -1.537668e-06
-1.752183e-05 -1.577673e-05 -7.313997e-07
2.248268e-05 6.868569e-06 8.551226e-07
1.880598e-05 -9.295698e-06 -1.140575e-06
3.708234e-06 -2.031350e-05 6.594757e-07
2.137832e-05 -7.923623e-07 1.444120e-06
1.568117e-05 1.751115e-05 8.588358e-07
1.758324e-05 1.163458e-05 -1.238575e-06
1.374723e-05 1.912134e-05 7.839002e-07
-1.045179e-05 1.825237e-05 -1.193676e-06
2.127518e-05 1.056109e-05 -3.971794e-22
6.387454e-06 -2.287729e-05 -3.971794e-22
1.873741e-05 1.277538e-05 -1.526369e-06
-4.045972e-06 -2.058044e-05 1.136935e-06
-1.611758e-05 -1.488720e-05 1.610473e-06
-2.354929e-05 3.767551e-07 -7.800791e-07
1.946028e-05 -7.726753e-06 -1.098857e-06
-1.480944e-05 1.827487e-05 8.327223e-07
2.048717e-05 -5.516152e-06 -1.339575e-06
-2.026131e-05 -4.371316e-06 -8.128796e-07
2.162788e-05 6.474520e-06 -1.559201e-06
-1.757440e-05 -1.079597e-05 -6.034918e-07
7.339852e-06 -2.258974e-05 -3.971794e-22
1.965429e-05 1.290633e-05 -8.476589e-07
-2.124676e-05 -1.015253e-05 7.882385e-07
-3.497561e-06 2.039421e-05 -7.481502e-07
-2.354281e-05 7.438033e-07 7.759542e-07
1.256546e-05 -1.621083e-05 -6.930714e-08
-1.973793e-06 2.048149e-05 -4.624159e-07
1.696826e-05 1.163636e-05 4.574394e-07
[...]
POINT_DATA 1824
VECTORS 10.000GHz_fone_imag double
6.427722e-04 -3.659811e-04 1.917373e-02
-4.103059e-04 -8.678303e-05 1.850018e-02
-4.449549e-04 1.903370e-05 1.919122e-02
-1.998406e-02 -1.291711e-02 1.270118e-03
-2.212132e-02 -4.091239e-03 1.228475e-03
-1.087038e-02 -1.360122e-02 -2.380655e-02
2.898589e-04 1.652095e-02 -2.506367e-02
-1.739321e-02 1.188870e-02 -1.521923e-02
-1.109210e-02 -3.519128e-03 1.529794e-02
-5.382189e-03 -1.011743e-02 1.577015e-02
2.988493e-04 -2.487337e-02 -2.079108e-03
-5.947845e-03 -6.543958e-03 -2.774064e-02
1.711180e-03 2.036571e-02 -2.004778e-02
-1.303172e-03 -1.377120e-03 1.751766e-02
1.258897e-02 -2.049942e-02 -1.526992e-03
-3.087075e-03 -8.913154e-03 -2.976033e-02
-1.800415e-03 -7.558740e-03 1.590927e-02
3.240637e-03 -3.724234e-04 -2.922193e-02
2.357297e-02 -6.077646e-03 -2.996347e-03
-8.828016e-03 -5.786085e-03 1.628392e-02
6.456368e-03 7.769949e-03 1.588324e-02
-7.658158e-03 -7.525095e-03 1.672866e-02
-1.072029e-02 -2.801043e-03 1.565794e-02
-9.563949e-03 1.222923e-03 1.495079e-02
4.938609e-04 -7.876449e-04 1.819035e-02
1.396074e-02 -1.670720e-02 -1.220033e-02
-2.093877e-02 1.555044e-03 3.847454e-03
1.596256e-02 1.837473e-02 -1.044005e-02
3.686764e-03 5.876124e-04 -3.236020e-02
-1.027703e-02 2.025160e-03 1.552657e-02
-1.841423e-02 -7.684045e-03 -2.052470e-02
9.596710e-03 -4.883786e-03 1.565219e-02
-4.286433e-03 9.469665e-03 1.557981e-02
-1.643457e-02 1.040102e-02 -2.020311e-02
8.183119e-03 -6.013014e-03 -2.872734e-02
6.895086e-06 -9.069477e-05 1.877430e-02
-1.259247e-02 1.681738e-02 3.656129e-03
1.656183e-02 -1.675185e-02 2.926249e-03
1.744912e-02 -7.672859e-03 -2.131093e-02
-1.273828e-02 1.953003e-02 2.210715e-03
7.819759e-03 5.972441e-03 1.684473e-02
-3.756073e-03 -7.846258e-03 -2.912162e-02
1.013767e-02 7.222911e-03 -2.758496e-02
-2.741946e-03 9.230242e-03 1.573748e-02
7.087544e-04 9.681706e-03 1.629400e-02
-1.977575e-03 -7.203196e-03 -3.051364e-02
-4.834041e-05 -1.002146e-04 1.856415e-02
-8.401263e-04 1.175757e-03 -3.109375e-02
-1.701724e-02 1.786154e-02 -1.256889e-03
-1.978637e-03 -1.042268e-02 1.675492e-02
6.426610e-03 -1.467155e-02 -2.456237e-02
1.505549e-02 -1.850705e-02 -3.408773e-04
7.855523e-03 -6.707125e-03 1.443076e-02
2.385958e-02 5.376776e-03 1.295879e-03
4.693213e-03 -9.442713e-03 1.600429e-02
-7.090260e-03 -1.274760e-02 -2.457790e-02
1.957655e-02 9.532369e-03 1.791743e-03
3.972648e-04 1.111888e-04 1.842179e-02
4.260989e-03 9.407166e-03 1.643972e-02
9.571113e-03 1.931290e-03 1.685004e-02
-1.637530e-02 1.817534e-02 -9.837712e-03
1.844621e-02 -1.570776e-02 2.332609e-03
5.974508e-03 7.437634e-03 1.593955e-02
2.264020e-02 -4.822344e-03 5.652062e-03
-1.057801e-02 6.638029e-03 -2.728232e-02
9.282041e-03 -2.057574e-02 4.355397e-03
9.386460e-03 -4.129859e-03 1.588132e-02
-3.540727e-03 6.968452e-04 -3.056085e-02
-8.407655e-04 -4.614826e-04 1.786879e-02
1.642244e-02 1.634197e-02 1.484140e-03
4.645169e-03 -2.312317e-02 9.219745e-04
-1.441673e-02 -1.202414e-03 -2.688169e-02
-2.158727e-02 5.330551e-03 5.391943e-03
8.804640e-03 2.128189e-02 2.198527e-03
8.368530e-03 -2.062891e-02 4.264459e-03
-1.031418e-02 2.129249e-02 -1.181779e-02
2.012648e-02 9.057708e-03 -1.699361e-02
2.265323e-02 8.876147e-03 -1.099478e-02
-8.674715e-03 -5.379304e-03 1.591572e-02
4.607739e-04 -3.000063e-05 1.841759e-02
-1.104162e-02 -4.838557e-03 1.601067e-02
-2.117065e-02 6.742922e-03 -1.959636e-02
1.954098e-02 -5.463137e-03 4.863261e-03
2.089619e-02 6.359860e-03 5.133949e-03
-6.380378e-03 2.285466e-02 -1.311932e-02
-9.719019e-03 3.644164e-03 1.671919e-02
1.998492e-02 -1.386389e-02 2.711199e-04
-1.402566e-02 -1.765546e-02 5.285936e-03
2.097695e-02 -1.169372e-02 -4.258290e-04
1.827300e-02 1.599111e-02 -2.304916e-03
-6.699182e-04 -7.857382e-04 1.751626e-02
1.270812e-02 -1.911249e-02 2.387018e-03
3.135331e-03 9.785360e-03 1.617292e-02
-9.096248e-03 -2.252260e-02 -1.218654e-02
1.923298e-02 1.500093e-02 -3.122068e-03
7.594256e-03 -7.730262e-03 1.604178e-02
-1.240557e-02 2.049449e-02 7.395445e-04
8.064941e-03 -4.195467e-03 1.745011e-02
-1.949086e-02 7.786891e-03 2.256808e-03
1.170459e-02 4.629511e-03 -2.489128e-02
-1.758967e-02 -1.663758e-02 -4.011494e-04
7.043057e-04 -5.067873e-04 1.764793e-02
8.117691e-03 6.096294e-03 1.641529e-02
5.741264e-03 9.219634e-03 1.683590e-02
2.341230e-02 1.422892e-04 -1.189489e-02
-1.959027e-02 6.759178e-03 1.915546e-03
-1.770396e-04 -8.020269e-03 -2.847143e-02
-1.580961e-02 1.003944e-02 1.102005e-02
7.974778e-03 -5.875573e-03 1.655679e-02
4.656843e-04 -1.190624e-02 1.544084e-02
-2.507585e-03 1.027762e-02 1.459642e-02
2.297873e-03 1.958312e-02 5.972598e-03
-1.728186e-04 -3.769882e-04 1.915076e-02
-1.131739e-05 -1.572455e-04 1.834282e-02
-1.441479e-02 -6.786124e-03 -2.523945e-02
1.085832e-02 -2.376024e-03 1.603953e-02
2.633193e-03 -9.846602e-03 1.580871e-02
-2.090271e-02 -6.483012e-03 4.591144e-03
8.929239e-03 -4.999993e-03 1.671805e-02
1.025499e-02 4.443825e-03 -2.867757e-02
4.019788e-03 2.359135e-02 -1.073655e-02
-9.931861e-03 -2.031557e-02 3.741113e-03
-6.843995e-03 7.647035e-03 1.594387e-02
1.234320e-02 1.792321e-02 3.797410e-03
1.313530e-04 2.602074e-04 1.843223e-02
1.401566e-03 9.698994e-03 1.634505e-02
-2.113578e-02 1.304393e-02 -2.862243e-03
1.651552e-02 -1.565837e-02 -1.763187e-02
-4.861761e-03 -1.410962e-02 -2.746273e-02
-1.352921e-03 2.354506e-02 -1.526119e-02
5.450160e-03 -7.013510e-03 1.644922e-02
-2.271792e-02 -3.711027e-03 -1.571738e-02
-1.417329e-02 1.959197e-02 -1.248416e-03
1.978507e-02 3.493153e-03 8.272425e-03
-2.745146e-03 2.203415e-02 4.818926e-03
6.688186e-05 2.336267e-04 1.841964e-02
-5.273658e-03 2.401611e-02 -1.603312e-04
-4.630622e-03 -9.312104e-03 1.614609e-02
-9.656650e-04 -1.971277e-02 -1.992741e-02
2.418506e-02 4.084874e-03 -3.147165e-03
-4.131469e-04 9.083769e-03 1.595945e-02
1.404682e-02 1.271255e-02 7.103310e-03
-1.573974e-03 2.073448e-02 -2.066749e-02
2.013938e-02 -8.496697e-03 4.889029e-03
1.380398e-03 -8.686110e-03 1.671384e-02
-1.510769e-02 -1.637830e-02 -1.659915e-02
3.590648e-04 5.812851e-04 1.737418e-02
1.073941e-02 7.941402e-03 -2.653969e-02
-2.202615e-02 -2.901108e-03 5.957692e-03
-1.720012e-02 1.326298e-02 -1.205680e-02
5.262292e-03 -3.328842e-03 -2.777703e-02
4.900186e-03 8.200128e-03 1.761971e-02
2.265107e-02 4.296729e-03 -1.653233e-02
7.152775e-03 7.161322e-03 1.414814e-02
-1.864552e-02 1.554425e-02 -2.728587e-03
-1.015894e-02 -3.312899e-03 1.587462e-02
9.638588e-03 -3.542963e-03 1.558813e-02
-5.044617e-04 5.312383e-04 1.850625e-02
-4.096857e-03 -8.902457e-03 1.507838e-02
-1.784546e-02 -1.303249e-02 4.235043e-03
-2.191227e-02 1.765421e-03 6.504978e-03
-7.755523e-03 -4.831388e-03 1.539191e-02
1.151393e-02 1.206475e-03 1.588868e-02
-1.423091e-02 -1.778367e-02 3.435819e-03
-5.738837e-03 8.448383e-03 1.635183e-02
6.301633e-03 7.627469e-03 1.561774e-02
1.894885e-02 -1.351357e-02 -1.314618e-02
2.114919e-02 1.299810e-02 -9.878641e-03
-6.972329e-05 2.282063e-04 1.925718e-02
-5.100795e-03 -2.283601e-02 -1.327804e-02
-1.325899e-02 -1.910844e-02 -7.856317e-03
2.088921e-02 -9.077760e-03 3.625109e-03
-1.920806e-03 9.548381e-03 1.643814e-02
-2.179299e-02 -1.555991e-03 -1.239743e-02
-2.260414e-02 6.614790e-03 1.780993e-03
1.520124e-02 -1.578747e-02 5.297183e-03
-9.381411e-03 -1.338644e-03 1.654635e-02
1.877947e-02 9.486917e-03 5.668333e-03
2.391434e-02 2.733241e-04 -1.291049e-02
3.635616e-05 5.128621e-04 1.890555e-02
-1.552803e-02 1.366479e-02 7.450369e-03
-6.250810e-03 7.407947e-03 1.481781e-02
-6.881471e-03 8.022685e-03 1.619877e-02
-5.305120e-03 2.007715e-02 -1.950791e-02
7.534312e-03 -2.397379e-02 -1.007557e-02
-1.918247e-02 1.187434e-02 -1.789404e-02
2.132583e-03 -8.169204e-03 1.562937e-02
9.499029e-03 1.239518e-03 1.671478e-02
-2.408027e-02 1.734936e-03 -1.165758e-02
-9.126305e-03 -1.693148e-02 8.092993e-03
-7.147759e-05 -1.728228e-04 1.892486e-02
1.705077e-02 1.463605e-02 -1.787867e-02
-6.242573e-03 2.056448e-02 5.775657e-03
2.069395e-02 1.028954e-02 1.978669e-03
-9.355931e-03 -2.845557e-03 1.589891e-02
-2.131315e-02 -4.806600e-03 -1.294646e-02
-2.192503e-02 -6.633187e-03 5.059413e-03
9.394613e-03 5.291611e-03 1.596752e-02
-8.766220e-03 1.931852e-03 1.683375e-02
-9.770614e-03 -1.742417e-02 8.547661e-03
-2.399372e-02 4.770162e-03 -3.922862e-03
6.352209e-04 6.705010e-05 1.784418e-02
-4.167490e-03 -8.574355e-04 -3.001227e-02
-7.136062e-03 4.103180e-03 1.690542e-02
8.254189e-03 1.930808e-02 5.288188e-03
-1.312006e-03 -1.240142e-02 -2.895293e-02
-3.226267e-03 8.261409e-03 1.645256e-02
-1.364592e-02 1.727972e-02 -1.886156e-02
-2.430335e-02 6.697255e-03 -8.070997e-03
-8.232338e-03 -1.951168e-03 -2.888369e-02
9.013147e-03 1.174368e-03 1.572746e-02
-1.207300e-02 1.066491e-02 -2.557199e-02
-9.150015e-04 -2.756399e-04 1.741782e-02
1.235420e-02 2.035214e-02 -9.601317e-03
-6.570124e-03 -5.771617e-03 1.693923e-02
-8.140318e-03 -2.585666e-03 1.522626e-02
1.789989e-02 -9.671551e-03 -1.853067e-02
-2.428515e-03 1.181916e-02 -2.797593e-02
-2.333947e-02 1.457366e-03 -1.284648e-02
-7.044803e-03 -7.445891e-03 1.635425e-02
1.793524e-02 1.170687e-02 -2.007795e-02
-5.088304e-03 -7.932681e-03 1.745342e-02
-9.424129e-03 1.611595e-02 -1.997449e-02
-4.153084e-04 6.468968e-05 1.872828e-02
1.540959e-04 -1.242419e-03 1.722763e-02
1.785439e-02 1.123296e-02 6.530833e-03
2.741711e-03 1.925072e-02 -2.128120e-02
1.849148e-02 1.627381e-02 -1.979933e-03
-1.036490e-02 1.538268e-04 1.665943e-02
1.788875e-02 -6.966200e-03 -2.253828e-02
6.521896e-03 -8.302393e-03 1.651164e-02
1.897811e-02 -5.407083e-03 -1.638633e-02
-1.484424e-02 -3.381610e-03 -2.603202e-02
2.157164e-02 6.553624e-03 5.275711e-03
-9.446396e-03 -5.829434e-03 -2.997926e-02
1.054257e-03 5.473676e-04 1.801851e-02
9.019685e-03 5.246653e-03 1.651309e-02
9.392090e-03 4.393903e-03 1.724935e-02
-1.479232e-03 1.324593e-02 -2.702804e-02
9.940186e-03 -5.752758e-04 1.714148e-02
2.941121e-04 -7.860897e-04 -2.906076e-02
-1.327906e-03 7.859433e-03 -2.927766e-02
-5.252564e-03 -5.373972e-03 -2.884906e-02
2.358417e-03 -1.622012e-02 -2.421814e-02
8.614461e-03 2.607125e-03 1.761696e-02
-1.570096e-02 -1.659853e-02 3.521638e-03
-3.457479e-04 7.599376e-04 1.858810e-02
3.923273e-03 -5.807753e-03 -2.952327e-02
3.172237e-03 -1.020095e-02 1.677267e-02
2.223727e-04 -5.540537e-04 -3.132413e-02
9.348144e-03 -4.645198e-03 1.651387e-02
-2.829412e-04 -1.647140e-03 -3.104641e-02
-4.199253e-05 4.912842e-05 -3.081165e-02
-3.809551e-03 2.241460e-02 3.717566e-03
2.406709e-02 -2.846122e-03 -7.301453e-03
-1.327594e-02 1.950657e-02 -1.390398e-02
-3.871962e-03 1.390381e-02 -2.614435e-02
-5.556386e-04 1.724057e-04 1.730171e-02
2.864210e-03 -1.928353e-02 7.036397e-03
1.189610e-02 1.944708e-02 -1.269037e-02
1.039309e-02 2.306244e-02 -7.542920e-03
-1.081996e-02 -1.419916e-02 -2.450091e-02
-1.625101e-02 6.216941e-03 -2.095677e-02
-9.097402e-04 1.146769e-02 1.468909e-02
-2.324294e-02 -1.334203e-03 2.167399e-03
-1.551996e-02 -1.681073e-02 3.408728e-03
-7.107895e-03 5.145691e-03 1.715528e-02
1.532237e-04 2.253680e-02 3.871999e-03
6.564034e-04 -1.308974e-04 1.831127e-02
-1.177533e-02 -2.051696e-02 -1.598218e-02
1.741779e-02 -4.503269e-03 -2.560046e-02
-8.667814e-03 -1.526250e-03 1.656632e-02
-6.701913e-03 7.051655e-03 1.556883e-02
-9.139484e-03 3.874376e-03 1.615553e-02
-4.970852e-03 8.536284e-03 1.744556e-02
-1.737432e-02 1.369500e-02 -1.592671e-02
1.700099e-02 1.580821e-02 -1.847911e-02
6.031327e-03 2.064063e-02 -1.409801e-02
-8.263226e-03 6.694428e-03 -2.854338e-02
-5.916481e-04 2.281646e-04 1.827896e-02
-2.180815e-02 8.252815e-03 4.773576e-03
9.329398e-03 1.649432e-02 1.020576e-02
1.562998e-02 1.175607e-02 -1.766697e-02
1.788135e-02 1.744774e-02 -1.961264e-04
-2.813378e-03 2.137323e-02 5.952805e-03
1.887316e-02 2.424405e-03 7.052336e-03
1.991381e-02 1.090554e-02 -1.484302e-02
1.621148e-02 -6.135225e-03 -2.404001e-02
-1.814145e-02 -8.901487e-03 3.824955e-03
2.113487e-02 -1.532596e-03 6.321001e-03
1.061050e-04 -1.564283e-03 1.826558e-02
-4.086554e-03 -2.068838e-02 7.128078e-03
8.976439e-03 -2.784236e-03 -3.020462e-02
-2.063406e-02 -6.432766e-03 7.085711e-03
-6.444762e-03 1.258554e-02 -2.614581e-02
-5.912332e-03 -7.438795e-03 1.627462e-02
-2.474713e-03 -8.262256e-03 1.748560e-02
-4.240871e-03 5.840293e-03 -3.071352e-02
9.796235e-03 -1.731939e-02 6.485892e-03
-4.028600e-03 -2.118003e-02 6.266362e-03
-6.520839e-03 3.703572e-03 1.677554e-02
1.030889e-03 4.665515e-04 1.795237e-02
-6.308845e-04 1.788250e-02 6.623053e-03
-1.395545e-02 1.735438e-02 -1.867336e-02
1.433903e-02 -1.906175e-02 1.370998e-03
-1.752084e-02 1.075294e-02 6.522862e-03
-8.207615e-03 8.752733e-03 -2.753020e-02
1.724812e-02 -1.725862e-02 -1.147636e-02
1.039281e-02 9.896993e-04 1.587663e-02
-5.007919e-03 -1.990327e-02 -1.781086e-02
-2.174929e-02 4.435855e-03 4.182190e-03
2.254463e-02 -1.824925e-04 2.491456e-03
-2.376872e-04 -8.729879e-06 1.829936e-02
6.320146e-03 -5.910062e-03 1.515503e-02
8.375124e-03 1.540076e-02 -2.185185e-02
7.791833e-03 3.649760e-03 1.666587e-02
-2.245639e-02 1.024943e-02 -7.636656e-03
-2.230735e-03 -1.974499e-02 -1.799211e-02
1.714005e-02 -1.053907e-02 8.865313e-03
1.508616e-02 -1.851570e-02 2.157720e-03
8.770567e-04 -2.409915e-03 -3.039933e-02
8.632493e-03 5.276053e-03 1.661492e-02
-1.425775e-02 1.615568e-02 6.502575e-03
8.689786e-05 -7.695859e-04 1.768757e-02
2.185896e-02 -1.045969e-03 -1.483369e-02
-8.585939e-03 -1.254850e-03 1.709285e-02
-7.114068e-04 9.094873e-03 1.704939e-02
1.011320e-02 1.726092e-03 1.649268e-02
-1.421054e-02 -1.436945e-02 8.158224e-03
1.125724e-03 7.739009e-04 -2.884304e-02
1.867771e-03 9.194905e-03 1.698841e-02
-6.786059e-04 -2.091817e-02 4.474538e-03
-1.962971e-02 -8.883738e-03 -1.991858e-02
1.613838e-04 -1.383461e-02 -2.677741e-02
1.358845e-04 -8.007197e-05 1.857720e-02
1.037650e-03 -9.990686e-05 1.667279e-02
-5.866293e-03 1.721735e-02 9.397698e-03
1.953864e-02 4.975623e-03 -1.848006e-02
-5.884198e-04 -2.104500e-02 8.365611e-03
9.030074e-03 1.900627e-03 -2.955812e-02
-1.395412e-02 -1.243114e-02 -1.951695e-02
-1.868107e-02 -1.508988e-02 -8.562790e-03
1.149350e-02 -1.194863e-03 -2.815620e-02
-9.394321e-03 -5.357950e-03 1.616716e-02
1.729071e-03 8.948378e-03 1.639025e-02
1.392488e-02 -6.526060e-03 -2.430256e-02
-7.499466e-04 1.751234e-03 1.688729e-02
-2.014509e-02 -6.685118e-03 6.160955e-03
-2.135939e-02 7.186139e-03 -1.962725e-02
3.323710e-03 5.710147e-03 1.582088e-02
9.429606e-03 -2.265188e-02 -1.146293e-02
-1.769583e-02 1.239524e-02 6.893306e-03
-4.406868e-04 -6.051064e-03 -3.034617e-02
-6.065330e-03 -5.588860e-03 1.722075e-02
-8.215437e-03 3.442806e-03 1.767613e-02
1.549610e-04 -3.867441e-04 -3.063897e-02
-7.238578e-03 3.555189e-03 1.717111e-02
-7.763256e-04 -4.222858e-04 1.878765e-02
-4.750310e-03 -2.166140e-03 -3.084472e-02
1.829314e-02 1.047813e-02 6.582157e-03
9.025740e-03 2.214634e-03 1.512527e-02
1.502883e-02 1.736955e-02 -1.601903e-02
8.085014e-04 -8.501041e-03 1.628650e-02
7.181217e-03 -3.725063e-03 -3.053078e-02
-5.330845e-03 2.017884e-02 7.589127e-03
-1.907539e-02 -4.497394e-03 9.056566e-03
-5.020421e-04 -1.040042e-02 1.671030e-02
-6.863372e-03 -2.274735e-02 -9.154064e-03
9.416949e-05 -5.099816e-04 1.845642e-02
7.375822e-03 5.579569e-03 1.670554e-02
4.545625e-03 -1.148943e-02 -2.586640e-02
-4.120144e-03 7.416986e-03 1.697152e-02
-1.073861e-02 1.114488e-03 1.648837e-02
-1.007197e-02 -3.273930e-03 1.612906e-02
-1.884455e-02 7.136976e-03 5.598883e-03
9.063766e-03 -1.809735e-03 1.670138e-02
1.655334e-03 2.056223e-02 6.703824e-03
1.153204e-03 5.025417e-05 -3.080646e-02
-1.949238e-02 3.129007e-03 -2.086690e-02
7.437572e-04 -6.115721e-04 1.835114e-02
-2.244556e-04 1.223122e-02 -2.955366e-02
-6.936657e-04 -8.394996e-03 1.690436e-02
-2.027497e-02 -4.535344e-03 7.627035e-03
2.960575e-03 -1.988598e-02 -1.822351e-02
1.701128e-02 -1.497226e-02 4.351022e-03
9.554211e-03 2.277956e-02 -4.286667e-03
1.341562e-02 -1.918598e-02 -1.386348e-02
-8.049856e-03 6.028525e-03 1.601420e-02
1.071397e-03 2.237404e-02 -1.244269e-02
-8.423392e-03 4.973892e-03 -3.034464e-02
2.303128e-04 -1.046638e-03 1.837302e-02
2.328313e-02 2.738809e-03 -1.680583e-02
-1.032055e-02 1.137977e-02 -2.589246e-02
5.725442e-03 -5.276639e-03 1.724435e-02
4.532454e-04 1.547580e-03 -3.134841e-02
-5.779056e-03 7.574316e-03 1.668631e-02
-1.718526e-03 7.444678e-03 1.604779e-02
3.562400e-03 8.898026e-03 1.634249e-02
2.278313e-02 1.089218e-02 -4.339685e-03
-7.245343e-03 1.050298e-03 1.517596e-02
-9.094129e-03 -1.713520e-02 6.522498e-03
8.853554e-04 2.523861e-04 1.903482e-02
-1.346411e-02 7.081708e-03 -2.637666e-02
1.857317e-02 -1.545018e-02 -1.312989e-02
8.298430e-03 -3.676844e-04 1.724656e-02
-6.902816e-03 -2.050787e-02 5.727932e-03
8.464904e-03 -1.030222e-02 -2.545554e-02
1.884397e-02 9.638049e-03 6.278774e-03
1.397944e-02 1.666763e-02 -1.877738e-02
6.341470e-03 -2.048756e-02 7.420415e-03
-1.836748e-02 -9.272114e-03 -2.131079e-02
-4.303139e-03 1.863440e-02 9.397744e-03
-6.072265e-05 4.484329e-04 1.889089e-02
-1.926986e-02 4.446352e-03 7.710300e-03
-1.549920e-02 7.694388e-03 1.091667e-02
9.221792e-03 -6.894179e-04 1.735104e-02
2.009977e-02 -1.052584e-02 3.803167e-03
-2.039149e-02 -1.935016e-03 -1.849615e-02
1.576687e-02 -1.870345e-02 -6.295895e-03
1.617897e-02 -1.067849e-02 9.446325e-03
6.627049e-03 -4.624526e-03 1.702606e-02
-1.994493e-02 -1.451593e-02 -6.496576e-03
1.238493e-02 1.965277e-02 -1.342282e-02
-4.890166e-04 3.021747e-04 1.931286e-02
2.164666e-02 -5.597305e-03 -1.728856e-02
7.546876e-03 2.205049e-02 -7.541344e-03
-2.663289e-03 8.988715e-03 1.677008e-02
-2.448643e-03 5.045723e-03 -2.888663e-02
2.079348e-02 2.292576e-03 8.287550e-03
7.214324e-03 -6.826857e-03 -2.717305e-02
-1.353788e-02 1.521404e-02 7.344141e-03
1.914525e-02 -1.165089e-02 -1.035902e-02
3.736844e-03 -7.534397e-03 1.674737e-02
4.182767e-03 1.403884e-02 -2.646254e-02
-1.830082e-04 -6.366822e-05 1.750497e-02
1.963053e-02 -1.482416e-02 -7.821986e-03
-7.512684e-03 1.254826e-02 -2.575497e-02
1.563233e-02 -1.328194e-02 8.288024e-03
-5.089430e-03 -9.053072e-03 -2.912418e-02
5.229439e-03 -2.350970e-02 -1.038013e-02
4.599945e-03 -8.144363e-03 1.640055e-02
-2.434077e-02 5.701326e-04 -8.671946e-03
1.770683e-02 -1.298878e-02 -9.674971e-03
6.355350e-03 -2.096913e-02 -1.896969e-02
2.865793e-03 1.893224e-02 7.012838e-03
-6.842720e-04 -2.616368e-04 1.773360e-02
-2.711976e-04 1.267984e-04 1.690053e-02
9.413075e-03 -7.166755e-03 -2.873639e-02
6.254272e-03 1.819103e-02 -2.209776e-02
-4.362814e-03 -2.140197e-02 -1.505913e-02
1.847460e-02 -9.956579e-03 -1.582976e-02
-1.046559e-02 1.597708e-02 -2.143417e-02
2.929038e-03 1.686524e-02 -2.403222e-02
-7.183098e-03 8.715086e-03 -2.933743e-02
-6.813566e-03 2.087639e-02 -1.790238e-02
-1.491564e-03 -9.668553e-03 1.618647e-02
1.295842e-02 -1.650467e-02 7.302822e-03
8.491841e-05 -9.595943e-04 1.838815e-02
3.682611e-04 -5.871278e-03 -2.817857e-02
-1.604102e-02 -1.311110e-02 7.584266e-03
-7.946764e-03 -2.000319e-02 5.648224e-03
-1.075303e-02 7.127782e-03 -2.663352e-02
-1.952593e-02 2.509019e-03 8.505347e-03
5.832757e-03 7.169335e-03 1.711548e-02
8.125629e-03 -2.158030e-02 2.938438e-03
-7.320956e-03 -4.116448e-03 1.629033e-02
-1.661286e-02 1.372875e-02 4.626166e-03
-1.374913e-02 -1.950776e-02 -7.658170e-03
7.661282e-04 -2.606724e-04 1.938673e-02
-1.906203e-02 -9.877258e-03 5.282635e-03
-1.977864e-02 1.389315e-02 2.208875e-03
6.791603e-03 1.659854e-02 1.091979e-02
-2.076420e-02 2.110425e-03 -2.042846e-02
-1.078259e-02 -1.587495e-02 1.070221e-02
-7.146309e-03 4.151647e-03 -3.129664e-02
5.284315e-03 -5.385842e-03 1.752758e-02
2.034301e-02 1.190192e-02 2.802366e-03
1.236997e-02 -8.894031e-04 -2.790969e-02
1.791353e-02 4.763945e-03 -1.999615e-02
4.543652e-04 1.438283e-04 1.900737e-02
8.204727e-03 3.087721e-03 1.569453e-02
-6.008240e-03 -6.285591e-03 -2.728253e-02
1.271935e-02 1.741333e-02 -1.870651e-02
1.812595e-02 -3.529707e-03 -2.253159e-02
1.775077e-03 -1.909604e-02 -2.124908e-02
-1.664515e-02 -9.300568e-05 9.291337e-03
-2.193094e-02 1.307880e-02 -5.472526e-03
-9.025656e-03 1.720921e-02 8.969851e-03
-1.232455e-02 1.673932e-03 -2.767144e-02
-1.777971e-03 2.340279e-02 -1.283388e-02
1.977685e-04 6.077702e-04 1.874364e-02
1.033509e-02 -1.556881e-02 -2.211861e-02
1.918331e-03 7.345800e-03 1.766054e-02