# vtk DataFile Version 2.0
Electric current density generated by TTH
ASCII
DATASET UNSTRUCTURED_GRID
POINTS 5777 double
3.630704e-05 -8.892659e-21 -1.933588e-22
3.603304e-05 4.452059e-06 -1.933588e-22
7.871729e-06 3.544343e-05 -1.933588e-22
-1.798994e-05 -3.086032e-05 -7.627639e-07
-2.555362e-05 2.496016e-05 -7.627639e-07
-1.658982e-05 -3.163503e-05 -7.627639e-07
-1.499602e-05 -3.241291e-05 -7.646692e-07
-2.928403e-05 -2.045588e-05 -7.627639e-07
-1.349391e-05 -3.307433e-05 -7.627639e-07
-3.325556e-05 -1.304090e-05 -7.627639e-07
-2.085395e-05 -2.900190e-05 -7.627639e-07
-3.017076e-05 -1.912387e-05 -7.627639e-07
-3.558640e-05 -3.099295e-06 -7.627639e-07
7.386885e-06 3.554764e-05 -1.933588e-22
-3.434865e-05 -9.806495e-06 -7.627639e-07
-2.352745e-05 -2.687854e-05 -7.627639e-07
-3.185867e-05 -1.615618e-05 -7.627639e-07
-3.417198e-05 1.040543e-05 -7.627639e-07
-3.541189e-05 -4.689912e-06 -7.627639e-07
-2.230010e-05 -2.790525e-05 -7.627639e-07
-3.108020e-05 -1.759676e-05 -7.641347e-07
-3.385498e-05 -1.137178e-05 -7.646692e-07
-3.460370e-05 8.864609e-06 -7.627639e-07
-3.585069e-06 -3.554074e-05 -7.627639e-07
6.900662e-06 3.564522e-05 -1.933588e-22
2.388552e-05 -2.540621e-05 4.530761e-07
1.213809e-05 3.255052e-05 1.365059e-07
-1.604926e-05 -3.083585e-05 -2.302246e-07
-3.240220e-05 -1.259072e-05 -2.302246e-07
-1.892071e-05 -2.916358e-05 -2.339231e-07
-3.105304e-05 -1.562741e-05 -2.339231e-07
-2.161850e-05 -2.722406e-05 -2.339923e-07
-2.941930e-05 -1.852062e-05 -2.339923e-07
-6.063269e-06 -3.419475e-05 3.456456e-09
-1.214320e-05 -3.253593e-05 3.456454e-09
6.413152e-06 3.573615e-05 -1.933588e-22
-2.659083e-05 2.233769e-05 3.456454e-09
3.467206e-05 2.031975e-06 -7.328522e-08
3.476166e-05 1.060619e-06 -2.756768e-07
2.504461e-05 -2.434202e-05 5.217753e-07
2.494786e-05 2.563887e-05 -7.467981e-07
-3.484338e-05 5.975797e-08 -4.107794e-07
-2.517896e-05 -2.408494e-05 -4.107794e-07
-4.161665e-07 -3.484095e-05 -4.107785e-07
1.839190e-05 3.008381e-05 7.463868e-07
-2.393632e-05 2.665694e-05 7.264866e-07
5.924445e-06 3.582041e-05 -1.933588e-22
2.810099e-06 3.462336e-05 -1.193399e-07
2.564378e-05 2.497884e-05 -7.377071e-07
6.207081e-06 -3.428536e-05 -4.095745e-07
3.449904e-05 -4.840305e-06 3.999366e-07
-1.587081e-05 3.095417e-05 2.958492e-07
3.555718e-05 4.075544e-06 -7.409626e-07
3.014911e-05 1.931899e-05 7.342051e-07
-1.065969e-05 3.369675e-05 -7.698113e-07
-2.088213e-05 2.775577e-05 -9.549397e-08
2.145480e-05 2.791143e-05 7.247073e-07
5.434633e-06 3.589799e-05 -1.933588e-22
2.155039e-05 -2.778506e-05 7.052773e-07
3.340830e-05 1.017225e-05 -5.188770e-07
-1.279969e-05 3.301004e-05 7.813389e-07
3.497500e-05 -7.615888e-06 -7.392559e-07
2.034524e-05 2.820542e-05 2.747678e-07
6.131763e-06 3.464529e-05 -7.153744e-07
-2.796294e-06 3.507252e-05 -7.154184e-07
2.579114e-05 -2.342423e-05 -4.063339e-07
-3.393240e-06 -3.462832e-05 -3.160817e-07
-2.482105e-05 2.438340e-05 -3.160817e-07
4.943807e-06 3.596887e-05 -1.933588e-22
-3.447981e-05 -4.666624e-06 -3.160817e-07
-3.296435e-05 -1.113493e-05 -3.160817e-07
-3.373027e-05 8.538365e-06 -3.160817e-07
-1.466346e-05 -3.155341e-05 -3.160817e-07
-1.689287e-05 -3.037381e-05 2.056574e-07
-3.203492e-05 -1.347969e-05 2.056574e-07
-1.971667e-05 -2.862104e-05 2.042354e-07
-3.060055e-05 -1.647780e-05 2.042354e-07
-2.888765e-05 -1.932393e-05 2.042089e-07
-2.235903e-05 -2.660797e-05 2.042089e-07
4.452059e-06 3.603304e-05 -1.933588e-22
1.223113e-05 3.354901e-05 7.658775e-07
1.622613e-05 -3.072262e-05 1.589392e-07
9.804978e-06 3.444834e-05 7.306475e-07
2.668484e-05 2.222686e-05 3.991932e-08
-1.761209e-05 -3.001945e-05 -3.387236e-07
-3.176110e-05 -1.423326e-05 -3.387236e-07
-2.039762e-05 -2.820112e-05 -3.391222e-07
-3.025740e-05 -1.720048e-05 -3.391222e-07
-2.847710e-05 -2.001053e-05 -3.391296e-07
-2.299677e-05 -2.612500e-05 -3.391296e-07
3.959480e-06 3.609049e-05 -1.933588e-22
2.520242e-05 2.389743e-05 6.821952e-08
3.409205e-05 1.060590e-05 -7.672007e-07
3.461535e-05 2.959798e-06 1.454599e-07
2.033939e-05 -2.819806e-05 2.480122e-07
2.684842e-05 2.367184e-05 -7.395648e-07
-3.355662e-05 -9.456903e-06 -4.423811e-07
-3.474236e-05 -2.906613e-06 -4.423811e-07
-3.331701e-05 1.026920e-05 -4.423811e-07
3.557403e-05 -4.040724e-06 -7.361328e-07
3.294036e-05 1.101712e-05 9.526048e-08
3.466163e-06 3.614120e-05 -1.933588e-22
2.382556e-05 2.526656e-05 1.695563e-08
3.410452e-05 6.606201e-06 -1.271754e-07
3.293879e-05 -1.102076e-05 9.243058e-08
2.488369e-05 2.463543e-05 6.094111e-07
3.470335e-05 8.960849e-06 -7.198983e-07
3.343744e-05 -1.019410e-05 -5.557132e-07
3.417389e-05 -1.065682e-05 -7.383604e-07
3.596787e-05 9.943375e-07 6.386762e-07
3.562692e-05 1.910166e-06 7.729595e-07
3.417262e-05 -1.067411e-05 7.368589e-07
3.596887e-05 4.943807e-06 -1.933588e-22
2.972198e-06 3.618517e-05 -1.933588e-22
3.265254e-05 1.467245e-05 -7.381134e-07
3.265254e-05 -1.467245e-05 -7.381134e-07
3.441989e-05 4.714991e-06 1.437147e-07
1.844754e-05 -3.067284e-05 -7.398691e-07
3.374159e-05 -8.293619e-06 -1.666095e-07
1.639539e-06 3.570246e-05 7.574430e-07
-8.750115e-06 3.408176e-05 7.169340e-07
3.061422e-05 -1.641192e-05 -1.102861e-07
3.061422e-05 1.641192e-05 -1.102861e-07
1.845881e-05 3.067201e-05 -7.379510e-07
2.477680e-06 3.622240e-05 -1.933588e-22
1.072124e-05 -3.304127e-05 -1.190026e-07
-1.869890e-05 3.047744e-05 7.524446e-07
1.253292e-05 3.349294e-05 -7.509754e-07
3.143432e-05 -1.476946e-05 6.893784e-08
3.143432e-05 1.476946e-05 6.893784e-08
3.351230e-05 -1.268940e-05 7.231454e-07
3.351230e-05 1.268940e-05 7.231454e-07
3.415540e-05 -6.398927e-06 1.830081e-07
-7.248165e-06 3.401433e-05 2.761687e-07
-3.268936e-05 -1.207117e-05 4.164455e-07
1.982699e-06 3.625286e-05 -1.933588e-22
-1.555987e-05 -3.117996e-05 4.162528e-07
-3.139267e-05 -1.511745e-05 4.101343e-07
-1.845083e-05 -2.955680e-05 4.101343e-07
-2.980577e-05 -1.804578e-05 4.100568e-07
-2.118863e-05 -2.766001e-05 4.100568e-07
1.148395e-05 3.396991e-05 7.120162e-07
3.414846e-05 1.068525e-05 7.441457e-07
1.894824e-05 2.917987e-05 -3.116374e-07
1.365219e-05 3.310964e-05 -7.317542e-07
1.142019e-05 -3.390855e-05 7.445473e-07
1.487348e-06 3.627656e-05 -1.933588e-22
5.163197e-07 3.472595e-05 -5.092008e-08
1.895778e-05 -2.917596e-05 -3.160491e-07
1.259873e-05 -3.251831e-05 4.566326e-07
1.722137e-05 -3.137432e-05 -7.409594e-07
1.649046e-05 -3.181795e-05 -7.217783e-07
3.375714e-05 1.193113e-05 -7.358228e-07
3.375714e-05 -1.193113e-05 -7.358228e-07
3.283413e-05 1.162432e-05 -3.897994e-07
1.210172e-06 3.479999e-05 3.715191e-07
1.720418e-05 3.137374e-05 -7.441270e-07
9.917194e-07 3.629349e-05 -1.933588e-22
3.283352e-05 -1.162503e-05 -3.892152e-07
2.135595e-05 2.880825e-05 -7.109710e-07
-1.328470e-06 3.470488e-05 5.836979e-08
4.599322e-06 3.442516e-05 6.762959e-08
-3.508334e-05 7.281478e-06 -7.245668e-07
-2.481826e-05 -2.584405e-05 -7.245668e-07
-3.558846e-05 3.891472e-06 -7.369779e-07
-3.487266e-05 -8.235114e-06 -7.242124e-07
-3.375923e-05 1.200731e-05 -7.245668e-07
-3.083341e-05 1.819295e-05 -7.369779e-07
4.959059e-07 3.630365e-05 -1.933588e-22
-2.293747e-05 2.743857e-05 -7.502833e-07
-3.580128e-05 -1.459117e-06 -7.245668e-07
-3.242942e-05 1.516625e-05 -7.369779e-07
-2.839647e-05 -2.185180e-05 -7.245668e-07
-2.893814e-05 2.106785e-05 -7.391627e-07
-1.009542e-05 -3.436319e-05 -7.310975e-07
-8.673153e-06 -3.472806e-05 -7.392066e-07
-1.947979e-06 -3.577801e-05 -7.245668e-07
4.887587e-06 -3.546540e-05 -7.369750e-07
3.458256e-06 -3.564811e-05 -7.310942e-07
1.834673e-20 3.630704e-05 -1.933588e-22
3.002346e-05 -1.937933e-05 7.590156e-07
2.238192e-05 2.655861e-05 -7.765771e-08
2.239062e-05 -2.655128e-05 -7.777785e-08
-1.864955e-05 2.953521e-05 -5.277009e-07
-2.647648e-06 -3.463351e-05 1.005243e-07
-3.384700e-05 7.801950e-06 1.005243e-07
1.390287e-05 -3.196501e-05 4.331699e-07
3.476308e-05 -1.999639e-06 -3.706209e-07
1.015207e-05 -3.435799e-05 -7.265133e-07
1.118714e-05 3.407935e-05 -7.071352e-07
-4.959059e-07 3.630365e-05 -1.933588e-22
-2.349831e-05 -2.557507e-05 6.919313e-08
-2.798515e-05 -2.056906e-05 6.919313e-08
2.236552e-05 -2.800991e-05 -7.189380e-07
1.290985e-05 -3.336426e-05 7.463620e-07
1.564447e-05 -3.222076e-05 7.300677e-07
1.427634e-05 -3.286741e-05 7.232351e-07
2.482117e-05 -2.511905e-05 7.626623e-07
3.135510e-05 1.726218e-05 -7.399198e-07
3.135510e-05 -1.726218e-05 -7.399198e-07
-2.399619e-05 -2.654499e-05 7.433412e-07
-9.917194e-07 3.629349e-05 -1.933588e-22
-2.900359e-05 -2.095819e-05 7.433412e-07
3.143447e-05 1.718971e-05 7.260583e-07
3.108610e-05 1.788819e-05 7.086572e-07
3.143447e-05 -1.718971e-05 7.260583e-07
3.108610e-05 -1.788819e-05 7.086572e-07
-5.806021e-06 -3.536451e-05 7.215227e-07
-1.295889e-05 -3.341296e-05 7.215227e-07
-2.714406e-05 2.339997e-05 7.215227e-07
-3.464074e-05 -9.220790e-06 7.174588e-07
-3.403431e-05 1.109288e-05 7.385510e-07
-1.487348e-06 3.627656e-05 -1.933588e-22
-3.576184e-05 -2.468751e-06 7.174588e-07
-2.191600e-05 2.835273e-05 -7.225742e-07
-1.511413e-05 3.129283e-05 1.912718e-07
-3.481912e-05 8.298613e-06 7.393313e-07
-3.540052e-05 -5.295410e-06 7.393313e-07
-2.518195e-05 2.543830e-05 7.393313e-07
-2.993205e-06 -3.566902e-05 7.393312e-07
3.384785e-05 8.066664e-06 3.197749e-07
1.049268e-05 3.315650e-05 2.737960e-07
3.573887e-05 -1.921433e-06 7.407800e-07
3.589799e-05 5.434633e-06 -1.933588e-22
-1.982699e-06 3.625286e-05 -1.933588e-22
1.620840e-05 3.073089e-05 1.541453e-07
1.067433e-05 -3.427949e-05 6.889763e-07
-3.161045e-05 -1.692308e-05 -7.135114e-07
-3.424563e-05 -1.062200e-05 -7.136513e-07
-2.300045e-05 -2.750618e-05 -7.135113e-07
-3.453414e-05 9.666718e-06 -7.105670e-07
-3.308172e-05 -1.382788e-05 -7.135123e-07
-1.427825e-05 -3.287183e-05 -7.211057e-07
-2.027419e-05 -2.958105e-05 -7.103673e-07
-2.985045e-05 -1.986357e-05 -7.135113e-07
-2.477680e-06 3.622240e-05 -1.933588e-22
-2.619235e-05 2.446195e-05 -7.211057e-07
-3.564670e-05 -3.919794e-06 -7.105670e-07
-1.735315e-05 -3.137641e-05 -7.135123e-07
-4.394654e-06 -3.556843e-05 -7.211057e-07
7.716201e-06 -3.388720e-05 2.026832e-07
2.900675e-05 -1.922101e-05 -3.227035e-07
2.899957e-05 1.923496e-05 -3.265102e-07
[...]
POINT_DATA 5777
VECTORS 10.000GHz_fone_imag double
-1.457755e-04 1.872120e-04 1.943025e-02
2.813822e-04 9.665176e-06 1.952404e-02
2.309720e-05 -2.113967e-04 1.929428e-02
-1.010678e-02 -1.740870e-02 4.817552e-03
-1.451193e-02 1.398437e-02 4.696087e-03
-9.378294e-03 -1.789960e-02 4.534924e-03
-8.417639e-03 -1.839078e-02 4.616343e-03
-1.667145e-02 -1.127157e-02 4.830660e-03
-7.624597e-03 -1.878108e-02 4.735283e-03
-1.874303e-02 -7.358727e-03 4.680978e-03
-1.183262e-02 -1.639444e-02 4.530820e-03
-1.706537e-02 -1.085773e-02 4.508043e-03
-2.001452e-02 -1.770413e-03 4.960124e-03
-2.937439e-05 5.337496e-06 1.939208e-02
-1.929255e-02 -5.541505e-03 4.948777e-03
-1.315485e-02 -1.522663e-02 5.009126e-03
-1.793779e-02 -9.181889e-03 4.831158e-03
-1.929964e-02 5.870449e-03 5.024190e-03
-1.993776e-02 -2.484526e-03 4.678933e-03
-1.248770e-02 -1.578097e-02 4.845080e-03
-1.741111e-02 -1.004534e-02 4.917415e-03
-1.918619e-02 -6.388755e-03 4.721584e-03
-1.945779e-02 4.840761e-03 4.919164e-03
-2.108726e-03 -2.015554e-02 4.779875e-03
-1.848852e-05 -1.470920e-04 1.919686e-02
-8.553243e-03 9.367651e-03 -1.871912e-02
-1.541533e-03 -4.479463e-03 -2.221463e-02
-2.814201e-03 -6.074013e-03 -2.215098e-02
-6.407063e-03 -2.148013e-03 -2.218978e-02
-3.578325e-03 -6.132280e-03 -2.210999e-02
-6.600853e-03 -2.678216e-03 -2.200499e-02
-4.033402e-03 -5.334171e-03 -2.211450e-02
-5.903110e-03 -3.487346e-03 -2.205523e-02
-1.605689e-04 -1.074382e-04 -2.329507e-02
-3.067505e-04 -4.437959e-04 -2.307671e-02
1.057429e-04 -1.514565e-04 1.922101e-02
-2.426162e-04 8.397083e-05 -2.327798e-02
1.978558e-03 -1.374695e-04 -2.299570e-02
7.796429e-03 3.639455e-04 -2.161348e-02
-1.054917e-02 1.014046e-02 -1.729600e-02
1.352206e-02 1.408459e-02 6.203909e-03
-1.152703e-02 2.363588e-04 -1.946660e-02
-8.354781e-03 -7.863837e-03 -1.991715e-02
-3.018306e-05 -1.136545e-02 -1.997850e-02
-1.074464e-02 -1.710272e-02 -7.925684e-03
1.248946e-02 -1.418341e-02 7.705167e-03
-3.630120e-04 -2.263399e-05 1.935969e-02
2.768278e-04 3.770049e-03 -2.252522e-02
1.392862e-02 1.355233e-02 6.795971e-03
1.962396e-03 -1.150692e-02 -1.936260e-02
-1.132696e-02 1.555600e-03 -1.980735e-02
3.720062e-03 -7.290076e-03 -2.161204e-02
1.932165e-02 1.683811e-03 6.700576e-03
-1.609831e-02 -1.027051e-02 7.283486e-03
-6.464596e-03 1.988704e-02 -5.200616e-03
-1.772697e-03 2.506577e-03 -2.287447e-02
-1.208148e-02 -1.582409e-02 -8.843777e-03
2.672612e-05 -2.584576e-04 1.919602e-02
-1.173612e-02 1.555201e-02 -1.084955e-02
1.388634e-02 4.270325e-03 -1.685708e-02
7.612393e-03 -1.976500e-02 -3.642345e-03
1.887362e-02 -4.194704e-03 6.784090e-03
-4.602858e-03 -6.638379e-03 -2.160187e-02
3.566194e-03 1.932639e-02 -9.575001e-03
-1.586023e-03 1.952176e-02 -9.651229e-03
8.720386e-03 -7.900221e-03 -1.958764e-02
-8.519489e-04 -8.915784e-03 -2.117231e-02
-6.418190e-03 6.364643e-03 -2.111012e-02
3.553821e-04 3.838069e-04 1.915051e-02
-9.258182e-03 -1.302499e-03 -2.102771e-02
-8.487204e-03 -3.011553e-03 -2.118360e-02
-8.622895e-03 1.934056e-03 -2.135068e-02
-3.802326e-03 -8.146247e-03 -2.091992e-02
2.812899e-03 5.109794e-03 -2.229870e-02
5.526809e-03 2.215704e-03 -2.228147e-02
3.184545e-03 5.100356e-03 -2.219022e-02
5.336393e-03 2.911901e-03 -2.227583e-02
4.863436e-03 3.206322e-03 -2.229804e-02
3.453985e-03 4.671802e-03 -2.234480e-02
-1.641997e-04 2.816322e-05 1.937516e-02
-6.957239e-03 -1.909526e-02 4.199410e-03
-1.897861e-03 4.180261e-03 -2.266920e-02
-5.155841e-03 -1.831973e-02 7.302523e-03
-8.397596e-04 -7.398572e-04 -2.332361e-02
-4.752866e-03 -8.108399e-03 -2.086565e-02
-8.610428e-03 -3.922470e-03 -2.075781e-02
-5.645630e-03 -7.693317e-03 -2.073709e-02
-8.136118e-03 -4.670723e-03 -2.089759e-02
-7.960906e-03 -5.606207e-03 -2.064916e-02
-6.462467e-03 -7.255441e-03 -2.083304e-02
1.667296e-05 3.017782e-04 1.941800e-02
-1.165290e-03 -1.265956e-03 -2.319744e-02
1.940521e-02 6.039505e-03 3.777944e-03
-4.117624e-03 -3.892347e-04 -2.253499e-02
-3.998795e-03 5.517687e-03 -2.202458e-02
1.454250e-02 1.275549e-02 6.950402e-03
-1.229009e-02 -3.614110e-03 -1.886275e-02
-1.273275e-02 -1.099751e-03 -1.899698e-02
-1.215826e-02 3.657414e-03 -1.920618e-02
1.905847e-02 -2.248868e-03 7.132920e-03
-2.628962e-03 -7.762352e-04 -2.302823e-02
-7.213312e-05 6.279000e-05 1.932791e-02
-3.456555e-04 -2.841068e-04 -2.311830e-02
3.619738e-03 7.632884e-04 -2.293300e-02
-2.542407e-03 7.321717e-04 -2.303726e-02
-1.235710e-02 -1.154993e-02 -1.438202e-02
1.824925e-02 4.659346e-03 7.942617e-03
1.478343e-02 -4.531088e-03 -1.607816e-02
1.832650e-02 -5.764346e-03 6.702297e-03
-1.625272e-02 -3.744036e-04 1.133839e-02
-2.030756e-02 -1.020851e-03 4.001721e-03
-1.857817e-02 5.912018e-03 6.920847e-03
-2.302555e-04 2.129502e-04 1.945493e-02
-8.286206e-05 -1.282386e-04 1.936972e-02
1.786793e-02 7.887078e-03 6.827564e-03
1.786472e-02 -7.896818e-03 6.826741e-03
-3.695080e-03 -6.531685e-04 -2.263238e-02
9.969854e-03 -1.640114e-02 6.709496e-03
5.005868e-03 -1.103821e-03 -2.255239e-02
-6.983497e-04 -1.969334e-02 5.507279e-03
4.886432e-03 -1.917643e-02 -9.551727e-03
2.550746e-03 -1.389702e-03 -2.302208e-02
2.558751e-03 1.419549e-03 -2.299775e-02
1.005838e-02 1.641078e-02 6.700645e-03
-1.733549e-04 -2.222876e-04 1.921812e-02
8.390675e-04 -3.035046e-03 -2.279820e-02
1.031401e-02 -1.683484e-02 5.825750e-03
6.843808e-03 1.882711e-02 5.985778e-03
-1.646603e-03 5.078334e-04 -2.295946e-02
-1.647938e-03 -5.034459e-04 -2.295953e-02
-1.774455e-02 6.748472e-03 7.706384e-03
-1.774122e-02 -6.693333e-03 7.848785e-03
-5.422696e-03 6.649584e-04 -2.235162e-02
1.873552e-03 -8.020067e-03 -2.145924e-02
1.099789e-02 4.058481e-03 -1.977626e-02
1.038665e-04 -6.329777e-04 1.931462e-02
5.290217e-03 1.080883e-02 -1.968819e-02
1.069414e-02 5.017361e-03 -1.979255e-02
6.102981e-03 1.000085e-02 -1.979001e-02
1.003896e-02 5.980276e-03 -1.973765e-02
7.017877e-03 9.388000e-03 -1.971673e-02
-5.933168e-03 -1.771396e-02 8.313927e-03
-1.883609e-02 -5.959788e-03 6.326414e-03
5.064593e-03 7.425326e-03 -2.091286e-02
7.488566e-03 1.778866e-02 7.223147e-03
-6.437345e-03 1.851669e-02 6.049586e-03
-2.284667e-05 -2.585918e-04 1.937485e-02
-1.876944e-04 1.160904e-03 -2.326041e-02
5.032127e-03 -7.579063e-03 -2.078831e-02
-4.583910e-03 1.214953e-02 -1.875239e-02
9.328077e-03 -1.672055e-02 6.788236e-03
8.476255e-03 -1.672978e-02 7.631879e-03
1.817498e-02 6.708636e-03 6.588062e-03
1.817208e-02 -6.860042e-03 6.557222e-03
1.046461e-02 3.575441e-03 -1.981960e-02
-2.623173e-04 -1.056294e-02 -2.041720e-02
9.382801e-03 1.721131e-02 6.418119e-03
1.484403e-04 -2.389202e-04 1.921509e-02
1.066658e-02 -3.248726e-03 -1.969863e-02
1.116272e-02 1.483097e-02 8.646268e-03
-2.439192e-05 -1.577173e-03 -2.310249e-02
-2.164053e-04 -1.564164e-03 -2.319010e-02
-1.816014e-02 3.478955e-03 7.917586e-03
-1.288898e-02 -1.337756e-02 7.880572e-03
-1.913819e-02 2.179609e-03 6.847823e-03
-1.820808e-02 -4.459856e-03 7.719996e-03
-1.751804e-02 6.267392e-03 7.990806e-03
-1.669049e-02 9.902307e-03 6.662851e-03
5.852428e-05 4.994073e-05 1.928592e-02
-1.301142e-02 1.529698e-02 5.798922e-03
-1.867289e-02 -8.703595e-04 7.905295e-03
-1.760745e-02 8.189080e-03 6.523367e-03
-1.446321e-02 -1.148235e-02 7.994475e-03
-1.567377e-02 1.130369e-02 6.684014e-03
-5.312746e-03 -1.810398e-02 7.543939e-03
-4.717815e-03 -1.879914e-02 6.555289e-03
-1.014720e-03 -1.856022e-02 7.839692e-03
2.583165e-03 -1.908077e-02 6.965217e-03
1.795359e-03 -1.867635e-02 7.570785e-03
3.360117e-05 4.870188e-05 1.929143e-02
-1.688524e-02 1.069247e-02 5.226729e-03
1.272975e-03 1.582549e-03 -2.292654e-02
1.057631e-03 -1.656823e-03 -2.285419e-02
-7.975962e-03 1.235289e-02 -1.719169e-02
2.987807e-05 2.926234e-03 -2.306870e-02
3.075278e-03 -8.621113e-04 -2.298734e-02
-5.014237e-03 1.121611e-02 -1.917212e-02
9.835492e-03 -7.658955e-04 -2.074349e-02
5.323961e-03 -1.789518e-02 7.832204e-03
5.808733e-03 1.776885e-02 8.268778e-03
1.722518e-05 3.998997e-04 1.931111e-02
1.436357e-03 1.350348e-03 -2.309689e-02
1.635967e-03 1.531393e-03 -2.304165e-02
1.170897e-02 -1.475621e-02 7.707182e-03
-6.870024e-03 1.833127e-02 6.157502e-03
-8.324856e-03 1.713004e-02 7.328133e-03
-7.518038e-03 1.731588e-02 7.421660e-03
-1.459878e-02 1.468748e-02 -6.352380e-03
1.700794e-02 9.509762e-03 6.791109e-03
1.702754e-02 -9.571282e-03 6.861863e-03
1.324150e-02 1.458524e-02 6.545226e-03
-8.641355e-05 3.477361e-05 1.935181e-02
1.593708e-02 1.144064e-02 6.307099e-03
-1.694821e-02 -9.193978e-03 7.272616e-03
-1.603185e-02 -9.201662e-03 8.553466e-03
-1.691289e-02 9.184728e-03 7.250702e-03
-1.589366e-02 9.280942e-03 8.539583e-03
3.081561e-03 1.861588e-02 7.926977e-03
6.805612e-03 1.756377e-02 7.974926e-03
1.425189e-02 -1.228046e-02 8.028749e-03
1.826525e-02 5.077247e-03 7.691782e-03
1.835718e-02 -5.953862e-03 6.822269e-03
-2.886347e-04 -2.457012e-04 1.937684e-02
1.884701e-02 1.226320e-03 7.760926e-03
-1.147225e-02 1.499479e-02 7.615191e-03
2.611917e-03 -4.879505e-03 -2.212679e-02
1.894132e-02 -4.602912e-03 6.711316e-03
1.935341e-02 2.748251e-03 6.491135e-03
1.364196e-02 -1.386126e-02 6.631738e-03
1.519922e-03 1.938885e-02 6.825530e-03
-8.865797e-03 -2.392522e-03 -2.090336e-02
-2.341910e-03 -7.098656e-03 -2.170506e-02
-1.926255e-02 1.097308e-03 6.688772e-03
-2.282544e-04 -2.471081e-05 1.937941e-02
1.709988e-04 -2.264789e-04 1.924950e-02
-2.287414e-03 -3.798807e-03 -2.253296e-02
-5.237242e-03 1.711134e-02 9.295029e-03
-1.630827e-02 -8.753684e-03 8.092116e-03
-1.754897e-02 -5.481475e-03 8.268156e-03
-1.188160e-02 -1.411524e-02 8.147221e-03
-1.769629e-02 5.079795e-03 8.285489e-03
-1.701015e-02 -7.084854e-03 8.210244e-03
-7.482877e-03 -1.708414e-02 7.850500e-03
-1.019884e-02 -1.523350e-02 8.583652e-03
-1.539740e-02 -1.027610e-02 8.050176e-03
-1.358310e-05 -1.100137e-04 1.934282e-02
-1.367160e-02 1.282817e-02 7.855205e-03
-1.808258e-02 -1.927979e-03 8.452217e-03
-8.995163e-03 -1.616860e-02 8.160714e-03
-2.469992e-03 -1.821093e-02 8.267455e-03
-1.385134e-03 5.497192e-03 -2.247954e-02
7.893202e-03 -5.351401e-03 -2.099078e-02
7.895930e-03 5.345117e-03 -2.088730e-02
4.689796e-03 -1.961762e-02 5.145872e-03
-3.854170e-03 -1.958814e-02 5.433882e-03
-6.558392e-03 -1.890795e-02 5.530552e-03
-7.121921e-05 -3.027168e-04 1.922216e-02
-1.552031e-02 1.254926e-02 5.402205e-03
-1.343282e-02 1.483213e-02 5.402837e-03
-1.962730e-02 -3.754722e-03 5.510664e-03
1.177167e-02 -1.497218e-02 7.955393e-03
8.098800e-03 1.610102e-02 9.270663e-03
-1.391491e-02 1.135942e-02 8.847610e-03
-3.581907e-03 2.040140e-02 -5.646231e-03
1.113764e-02 -1.435229e-02 -1.268284e-02
1.460735e-02 8.407801e-03 1.100220e-02
1.018624e-02 1.377188e-02 1.059699e-02
6.252676e-05 -2.287889e-04 1.917587e-02
-3.178288e-03 -1.765445e-02 9.054673e-03
1.568534e-03 -1.783665e-02 8.952247e-03
8.760959e-03 1.469412e-02 1.059818e-02
1.560037e-02 7.130590e-03 1.059630e-02
3.354874e-03 -1.765397e-02 8.902816e-03
2.055702e-02 -1.987107e-03 -6.036376e-03
1.854417e-02 -9.161467e-03 -6.129093e-03
1.661368e-02 -1.237907e-02 -6.098476e-03
2.071438e-02 3.952468e-05 -6.283487e-03
1.766462e-02 -1.080305e-02 -6.087818e-03
6.352188e-05 -2.298816e-05 1.931520e-02
4.770971e-03 2.021613e-02 -6.138951e-03
7.261284e-03 -1.626431e-02 9.609340e-03
1.680293e-02 8.498471e-03 7.590720e-03
1.680440e-02 -8.507319e-03 7.592368e-03
1.142052e-02 -1.366479e-02 9.009878e-03
6.241391e-03 -1.031521e-02 -1.930891e-02
2.852184e-03 -4.947289e-03 -2.224281e-02
-9.145297e-03 7.620763e-03 -1.942383e-02
5.879116e-04 -1.858108e-02 8.139286e-03
1.680531e-02 -6.248657e-03 9.292026e-03
7.923475e-06 -2.222865e-04 1.917287e-02
5.258515e-03 1.707719e-02 9.206848e-03
-1.514939e-03 1.779698e-02 9.268672e-03
9.248946e-03 -1.470449e-02 1.029383e-02
-2.214031e-03 5.914965e-03 -2.220688e-02
1.964460e-03 -1.396274e-02 -1.805449e-02
-3.578996e-03 -1.375934e-02 -1.768170e-02
-1.405146e-02 1.720642e-03 -1.789487e-02
-1.289014e-02 5.925602e-03 -1.766424e-02
-1.224680e-02 7.160103e-03 -1.772264e-02
-1.150253e-02 8.141892e-03 -1.786318e-02
-1.017395e-04 3.936036e-05 1.954331e-02
1.632305e-02 -4.181370e-03 -1.435408e-02
1.387433e-02 -1.292578e-02 7.771937e-03
1.266133e-02 -1.237293e-02 9.519993e-03
5.024421e-03 1.654866e-02 -1.406254e-02
-1.445907e-03 -1.718915e-02 1.044605e-02
-9.092084e-03 1.853190e-02 3.365782e-03
-1.482643e-02 9.958333e-03 9.130900e-03
2.185296e-03 -6.635743e-03 -2.197355e-02
-4.597946e-03 1.264309e-02 -1.843624e-02
-1.369097e-02 1.174072e-02 8.710395e-03
1.157574e-04 -1.861378e-04 1.944211e-02
-1.481657e-02 5.816042e-03 -1.560431e-02
-1.224506e-02 -1.025881e-02 -1.559962e-02
-1.340806e-02 8.635512e-03 -1.555909e-02
-1.417465e-02 7.185495e-03 -1.563324e-02
-1.584221e-02 1.143381e-03 -1.561993e-02
-1.574511e-02 2.596155e-03 -1.560937e-02
1.090337e-03 -1.593806e-02 -1.543622e-02
1.436050e-02 -1.063795e-02 9.619428e-03
2.005916e-02 -3.185657e-03 -7.985086e-03
1.624470e-02 5.526373e-03 1.050523e-02
-1.048569e-04 2.819256e-05 1.955223e-02
7.107828e-03 1.516319e-02 1.122542e-02
-1.083773e-03 1.359628e-03 -2.288223e-02
-1.751593e-02 3.793635e-03 -1.323653e-02
7.189508e-03 -7.850297e-03 -2.017502e-02
1.037401e-02 1.915839e-03 -2.017050e-02
-3.325030e-03 1.723167e-02 -1.379176e-02
1.158894e-04 -1.797583e-02 9.100595e-03
-1.658556e-02 -1.236984e-02 -5.742954e-03
3.540537e-03 9.821605e-03 -2.035838e-02
7.892744e-03 -6.482137e-03 -2.048292e-02
-1.134770e-04 -2.853278e-04 1.929292e-02
1.877713e-03 1.006555e-02 -2.047082e-02
-1.766572e-02 3.407769e-03 9.260668e-03
9.591313e-03 1.991073e-03 -2.067951e-02
5.916586e-03 1.284252e-02 -1.750321e-02
1.171019e-02 -1.647037e-02 -8.082636e-03
1.310803e-02 -1.106866e-02 -1.438029e-02
6.028155e-03 1.598586e-02 -1.447189e-02
3.009688e-03 1.685396e-02 -1.435830e-02
1.430215e-02 1.006784e-02 9.965586e-03
-6.512886e-03 1.112188e-02 -1.878684e-02
-4.368050e-04 -6.506415e-05 1.937761e-02
1.728918e-05 -6.480954e-04 1.931488e-02
9.661119e-04 -1.722575e-02 9.988121e-03
8.654656e-03 -1.563915e-02 9.266188e-03
1.731609e-02 4.283212e-03 9.717833e-03
1.748822e-02 -4.545863e-03 9.057903e-03
-3.666236e-03 1.412050e-02 -1.748912e-02
-1.700987e-02 9.016345e-03 -1.111652e-02
-1.702655e-02 -9.000205e-03 -1.112620e-02
1.074440e-02 1.626879e-02 -9.950161e-03
-1.789260e-02 -3.493904e-03 -1.256038e-02
-1.523645e-03 -1.655091e-02 -1.499575e-02
4.293670e-04 -4.002834e-04 1.923790e-02
1.757954e-02 -2.343006e-03 9.441577e-03
-8.413288e-03 -1.917472e-02 -5.204010e-03
1.420108e-02 1.066843e-02 9.820976e-03
7.308820e-03 1.629115e-02 9.520385e-03
1.359727e-02 1.047080e-02 1.015505e-02
-9.916896e-03 1.472021e-02 9.864079e-03
6.468915e-03 -1.625101e-02 9.898857e-03
-6.426453e-03 -1.349824e-02 -1.649646e-02
1.206085e-02 1.223589e-02 1.020833e-02
1.092079e-02 -1.619398e-02 -9.788009e-03
2.011300e-05 2.075660e-04 1.933327e-02
1.613000e-02 6.400426e-03 9.946738e-03
1.624447e-02 -6.444226e-03 9.864535e-03
9.229462e-03 -1.310723e-02 1.208754e-02
1.676227e-02 -3.499323e-03 1.026200e-02
1.713981e-02 3.387394e-03 1.001320e-02
-7.343141e-03 1.633738e-02 9.309334e-03
-2.674193e-03 1.901355e-02 -1.122818e-02
1.384622e-02 1.307695e-02 -1.181237e-02
-3.165714e-06 1.894381e-02 -1.178139e-02
9.118259e-04 1.693862e-02 1.061786e-02
-7.958666e-05 7.106176e-05 1.927688e-02
-7.548104e-03 1.527509e-02 -1.432758e-02
8.198740e-03 -1.575345e-02 9.423432e-03
2.030540e-02 3.225830e-03 -6.524416e-03
1.645222e-03 2.329970e-03 -2.282866e-02
-1.665190e-02 -6.916844e-03 8.990626e-03
-1.666559e-02 6.937474e-03 8.991183e-03
1.436458e-02 6.392554e-03 -1.572981e-02
1.435951e-02 -6.392950e-03 -1.572734e-02
1.704937e-02 2.406997e-03 1.065085e-02
-1.017777e-02 1.415555e-02 9.748715e-03
-3.572959e-05 -2.264561e-04 1.933816e-02
-1.197840e-02 -8.193113e-03 -1.727869e-02
4.889784e-03 -8.401426e-03 -2.092413e-02
-1.776584e-02 -2.726610e-03 9.548909e-03
1.218266e-02 -5.972449e-03 -1.796611e-02
1.217962e-02 5.975258e-03 -1.795977e-02
2.691472e-03 -2.054097e-02 -6.131044e-03
-4.657257e-03 -2.019484e-02 -6.364166e-03
-9.842185e-03 1.400544e-02 1.026391e-02
1.770711e-03 5.964382e-03 -2.211324e-02
5.166183e-03 9.127082e-03 -2.048332e-02
2.015373e-04 -4.389856e-04 1.941786e-02
-3.036346e-03 2.628931e-03 -2.245516e-02
1.794953e-02 1.154921e-03 -1.344635e-02
-1.406853e-02 -8.324486e-03 -1.550034e-02
-1.416064e-02 8.411863e-03 -1.541479e-02
1.199089e-02 -1.264006e-02 1.015769e-02
5.486749e-03 1.450177e-02 -1.644426e-02
-9.962072e-03 -1.481975e-02 9.412491e-03
1.694211e-02 1.054740e-03 1.091763e-02
1.723536e-02 -1.237049e-03 1.035101e-02
1.637749e-02 4.165801e-03 -1.444262e-02
3.099706e-04 6.577256e-05 1.920714e-02
1.043288e-02 1.131520e-02 -1.629288e-02
-1.450759e-02 -1.529080e-02 -1.392527e-03
1.015283e-02 -1.164744e-02 -1.650414e-02
-5.064073e-03 1.473579e-02 1.190527e-02
-1.881269e-03 4.193867e-03 -2.244390e-02
-1.324780e-02 1.496822e-02 -9.051403e-03
-1.136186e-02 1.322137e-02 1.010391e-02
3.851268e-03 -1.632115e-02 1.037334e-02
-9.379797e-03 1.330602e-02 -1.534921e-02
1.681436e-03 -1.834464e-02 -1.209548e-02
-2.071117e-04 2.617238e-04 1.931040e-02
-5.324363e-03 -1.762670e-02 -1.214948e-02
6.289639e-03 1.464962e-02 -1.614955e-02
-2.105262e-03 6.592189e-03 -2.188431e-02
1.230165e-02 9.886449e-03 -1.567549e-02
1.700479e-02 3.360386e-03 9.766441e-03
-1.760942e-02 4.355282e-03 9.334708e-03
7.973536e-03 1.450510e-02 1.105248e-02
4.904460e-03 -1.517072e-02 1.171328e-02
-1.143689e-02 3.716224e-04 -1.953005e-02
-4.024301e-03 -1.511175e-02 1.196462e-02
-1.477831e-04 -8.228887e-05 1.928598e-02
-6.784276e-03 1.267201e-02 -1.710974e-02
1.202407e-02 1.111543e-02 -1.520795e-02
-1.056589e-02 1.394721e-02 -1.335736e-02
-1.648825e-02 -2.621305e-03 -1.475183e-02
6.104308e-03 -1.737671e-02 -1.219544e-02
1.243849e-02 1.294665e-02 -1.296800e-02
7.161842e-03 6.570950e-04 -2.162507e-02
6.731465e-03 1.984056e-03 -2.156479e-02
6.831741e-03 -2.178928e-03 -2.135702e-02
7.526682e-03 -1.085597e-02 -1.829151e-02
2.287717e-04 -6.840692e-04 1.933510e-02
-8.779503e-03 -1.538256e-02 -1.324739e-02
-5.132992e-03 1.668176e-02 9.984279e-03
1.286407e-02 1.251296e-02 -1.289176e-02
2.325274e-03 1.538873e-02 1.227698e-02
5.769907e-03 1.446284e-02 1.228432e-02
1.564669e-02 1.442038e-03 1.206369e-02
1.492697e-02 -4.456888e-03 1.197616e-02
1.502740e-02 4.379114e-03 1.225718e-02
1.169813e-02 -1.025808e-02 1.240014e-02
-1.867273e-02 1.989449e-03 -1.182081e-02
1.967684e-04 -6.629386e-05 1.933838e-02
2.947087e-04 2.381631e-06 1.921316e-02
1.527736e-02 9.691594e-03 9.176912e-03
1.130935e-02 1.420705e-02 9.229086e-03
1.618963e-02 7.920774e-03 9.208962e-03
9.637973e-03 1.527936e-02 9.245487e-03
-3.918054e-03 1.579896e-02 1.139322e-02
-6.403862e-03 4.391983e-03 -2.169743e-02
1.677963e-02 6.444849e-03 9.344696e-03
8.269625e-03 1.603882e-02 9.279060e-03
5.399525e-03 -5.454515e-03 -2.161289e-02
1.112878e-02 1.359883e-02 9.717972e-03
-1.342797e-04 1.256416e-04 1.936102e-02
1.741878e-02 -2.072313e-03 -1.381538e-02
8.016182e-03 -1.416673e-02 1.098170e-02
-1.640592e-02 -1.702391e-03 -1.497123e-02
1.541252e-02 4.973461e-03 1.163105e-02
-2.464910e-03 -1.764386e-02 9.567762e-03
1.461844e-02 6.685314e-03 1.161899e-02
1.461686e-02 -6.690315e-03 1.161939e-02
-1.657955e-02 -1.391614e-03 1.063647e-02
-1.662566e-02 2.872122e-03 -1.457850e-02
-1.283804e-02 -1.070852e-02 1.119909e-02
4.798589e-05 2.228317e-04 1.925011e-02
-2.208987e-03 -1.503821e-02 -1.649895e-02
8.864187e-04 -1.526971e-02 -1.649049e-02
9.306927e-03 1.195609e-02 -1.669635e-02
1.724227e-03 -1.545535e-02 1.181636e-02
-1.061492e-03 -1.560444e-02 1.190490e-02
-4.083976e-03 -1.505663e-02 1.194106e-02
-1.542173e-02 2.070965e-03 1.200250e-02
-1.531920e-02 3.429384e-03 1.183357e-02
-1.061873e-02 -1.152770e-02 1.183789e-02
-1.422284e-02 6.346749e-03 1.207445e-02
-9.173735e-05 4.426087e-06 1.927108e-02
-1.371367e-02 7.667164e-03 1.195677e-02
-1.271740e-02 -9.328874e-03 1.190971e-02
-1.281298e-02 8.843659e-03 1.198583e-02
-1.475066e-02 4.899617e-03 1.198700e-02
-1.547552e-02 -9.657827e-04 1.212265e-02
-1.501552e-02 -3.926663e-03 1.210379e-02
-1.449631e-02 3.403824e-03 -1.689637e-02
1.225374e-03 2.123739e-02 -1.276670e-03
6.214836e-04 2.120682e-02 -1.044497e-03
-9.411787e-03 -1.468257e-02 1.006002e-02
-3.110741e-04 -4.120352e-05 1.923927e-02
1.485725e-02 -9.281931e-03 9.939878e-03
1.475938e-02 9.450115e-03 9.885074e-03