# vtk DataFile Version 2.0
Electric current density generated by TTH
ASCII
DATASET UNSTRUCTURED_GRID
POINTS 14180 double
-5.000000e-05 5.000000e-05 -2.000000e-07
1.000000e-04 1.000000e-04 -2.000000e-07
3.130047e-05 5.000000e-05 -2.000000e-07
-7.171238e-07 -9.990000e-05 -2.000000e-07
6.393975e-05 -5.712550e-05 2.000000e-07
-2.579827e-05 -5.129529e-05 2.000000e-07
-3.771898e-07 5.984675e-05 2.000000e-07
-9.298030e-05 6.037839e-05 2.000000e-07
-5.128152e-05 -2.446894e-05 2.000000e-07
-1.014238e-05 9.723592e-05 2.000000e-07
3.835678e-05 9.780375e-05 2.000000e-07
6.766788e-05 -9.846543e-05 2.000000e-07
-8.381066e-05 -9.792848e-05 2.000000e-07
-8.427861e-06 -5.233857e-05 2.000000e-07
-7.367711e-07 -9.990000e-05 -2.000000e-07
5.423695e-05 2.600372e-05 2.000000e-07
3.786640e-05 -5.356068e-05 2.000000e-07
8.864645e-05 -9.883352e-05 2.000000e-07
7.560076e-05 5.076191e-05 2.000000e-07
-5.383660e-05 -1.672134e-05 2.000000e-07
-5.358712e-05 -4.132082e-05 2.000000e-07
-7.618941e-05 9.085255e-05 2.000000e-07
3.187863e-05 5.995335e-05 2.000000e-07
6.344545e-05 3.648140e-05 2.000000e-07
-4.695534e-05 -5.324434e-05 2.000000e-07
-7.564544e-07 -9.990000e-05 -2.000000e-07
5.138561e-05 3.603803e-05 2.000000e-07
-5.551914e-05 3.200166e-05 2.000000e-07
2.944628e-05 -5.127181e-05 2.000000e-07
4.553120e-05 -5.105271e-05 2.000000e-07
7.873441e-05 -6.187476e-05 2.000000e-07
4.759321e-06 7.721984e-05 2.000000e-07
9.872548e-05 -9.061828e-05 2.000000e-07
-2.131196e-05 -9.857055e-05 2.000000e-07
6.815259e-05 -3.174786e-05 2.000000e-07
7.896362e-06 5.140950e-05 2.000000e-07
-7.761739e-07 -9.990000e-05 -2.000000e-07
-4.684598e-05 5.783163e-05 2.000000e-07
9.881854e-05 -8.846582e-05 2.000000e-07
9.249012e-05 -7.167845e-05 2.000000e-07
9.184174e-05 8.754048e-05 2.000000e-07
-1.268310e-05 -5.290486e-05 2.000000e-07
-5.907603e-05 -3.578708e-05 2.000000e-07
6.662950e-05 8.108965e-05 2.000000e-07
-1.457010e-05 9.802260e-05 2.000000e-07
-2.325409e-06 -5.015589e-05 2.000000e-07
4.479814e-05 5.347820e-05 2.000000e-07
-7.959297e-07 -9.990000e-05 -2.000000e-07
-1.765886e-05 7.341517e-05 2.000000e-07
-5.144168e-05 -3.040194e-05 2.000000e-07
-5.336149e-05 5.465925e-05 2.000000e-07
-3.659687e-05 -9.829266e-05 2.000000e-07
1.765172e-05 -5.311756e-05 2.000000e-07
-6.850762e-05 2.236026e-05 2.000000e-07
-7.092618e-05 1.770310e-05 2.000000e-07
5.254646e-06 -5.050386e-05 2.000000e-07
3.222902e-05 5.650800e-05 2.000000e-07
-6.606333e-05 -5.270494e-05 2.000000e-07
-8.157219e-07 -9.990000e-05 -2.000000e-07
-6.141417e-05 1.791170e-05 2.000000e-07
9.090069e-05 2.473442e-06 2.000000e-07
6.440037e-05 -6.046166e-05 2.000000e-07
3.501496e-05 7.293064e-05 2.000000e-07
-5.126327e-05 3.447677e-05 2.000000e-07
8.096394e-07 -6.506834e-05 2.000000e-07
2.088001e-06 -6.902830e-05 2.000000e-07
4.039561e-05 6.078725e-05 2.000000e-07
-5.980055e-05 7.031243e-05 2.000000e-07
-4.577935e-05 -5.112960e-05 2.000000e-07
-8.355504e-07 -9.990000e-05 -2.000000e-07
-2.286887e-05 -5.412153e-05 2.000000e-07
-6.071601e-06 9.790659e-05 2.000000e-07
-7.217898e-05 6.040974e-05 2.000000e-07
-2.218006e-05 -5.815120e-05 2.000000e-07
5.123319e-05 4.448825e-05 2.000000e-07
2.527890e-05 5.615653e-05 2.000000e-07
7.912708e-05 -9.877291e-05 2.000000e-07
-5.657605e-05 1.500543e-05 2.000000e-07
3.266359e-05 5.353551e-05 2.000000e-07
-5.426340e-05 -8.851760e-06 2.000000e-07
-8.554154e-07 -9.990000e-05 -2.000000e-07
9.421835e-05 9.113279e-05 2.000000e-07
5.165813e-05 5.815888e-05 2.000000e-07
-9.888909e-05 -9.729501e-05 2.000000e-07
7.477796e-05 5.542315e-05 2.000000e-07
-9.289846e-05 6.722537e-05 2.000000e-07
-1.635499e-06 -5.022203e-05 2.000000e-07
4.897527e-07 -5.058170e-05 2.000000e-07
5.692898e-05 -6.022862e-05 2.000000e-07
-5.279182e-05 4.275557e-05 2.000000e-07
3.573503e-05 -5.430770e-05 2.000000e-07
-8.753169e-07 -9.990000e-05 -2.000000e-07
5.629480e-05 -3.163868e-05 2.000000e-07
-5.131122e-05 -3.979029e-05 2.000000e-07
5.741409e-07 -5.184475e-05 2.000000e-07
5.403587e-05 3.734713e-05 2.000000e-07
-9.824951e-05 -4.799411e-05 2.000000e-07
-8.062192e-05 2.716820e-05 2.000000e-07
4.950415e-05 -9.831585e-05 2.000000e-07
-5.374560e-05 -9.825994e-05 2.000000e-07
9.667463e-05 2.098496e-05 2.000000e-07
6.657813e-05 1.240036e-07 2.000000e-07
-8.952550e-07 -9.990000e-05 -2.000000e-07
-8.984179e-05 5.621754e-05 2.000000e-07
7.478908e-05 -9.840955e-05 2.000000e-07
-5.368513e-05 -2.848993e-05 2.000000e-07
-5.181715e-06 5.576645e-05 2.000000e-07
-5.146794e-05 -1.717392e-06 2.000000e-07
5.916012e-05 -3.945006e-05 2.000000e-07
1.612237e-05 5.865297e-05 2.000000e-07
-7.218359e-05 -5.123479e-05 2.000000e-07
9.048438e-06 -8.122676e-05 2.000000e-07
5.703506e-05 -5.430805e-05 2.000000e-07
3.255468e-05 5.000000e-05 -2.000000e-07
-9.152297e-07 -9.990000e-05 -2.000000e-07
-7.347914e-05 -9.271673e-05 2.000000e-07
1.023499e-05 -5.230571e-05 2.000000e-07
-6.327147e-05 -9.862818e-05 2.000000e-07
9.447291e-05 -7.287093e-07 2.000000e-07
3.710348e-05 5.138114e-05 2.000000e-07
-4.870364e-05 -9.749561e-05 2.000000e-07
-9.831265e-05 4.717908e-05 2.000000e-07
5.269013e-05 -4.310635e-05 2.000000e-07
5.162523e-05 3.124343e-05 2.000000e-07
-5.385630e-05 2.312545e-05 2.000000e-07
-9.352412e-07 -9.990000e-05 -2.000000e-07
-6.081128e-06 -5.037659e-05 2.000000e-07
-6.880075e-05 1.033655e-05 2.000000e-07
-7.284886e-05 6.409234e-06 2.000000e-07
-1.554040e-05 -9.831900e-05 2.000000e-07
-6.430591e-05 -8.963117e-05 2.000000e-07
1.864583e-05 -9.866673e-05 2.000000e-07
-5.657357e-05 -3.214315e-05 2.000000e-07
7.518654e-05 9.494321e-05 2.000000e-07
7.359574e-05 9.285260e-05 2.000000e-07
-1.810904e-05 -5.110881e-05 2.000000e-07
-9.552895e-07 -9.990000e-05 -2.000000e-07
6.010937e-05 9.822219e-05 2.000000e-07
-9.683825e-05 -9.009050e-05 2.000000e-07
5.532912e-05 1.737448e-05 2.000000e-07
-6.601859e-05 -9.848159e-05 2.000000e-07
-9.969302e-07 5.154672e-05 2.000000e-07
-9.865672e-05 7.881985e-05 2.000000e-07
4.379239e-05 5.125414e-05 2.000000e-07
-2.387657e-05 -9.853016e-05 2.000000e-07
-5.388501e-05 -3.488574e-05 2.000000e-07
3.839523e-05 6.284505e-05 2.000000e-07
-9.753746e-07 -9.990000e-05 -2.000000e-07
-9.865596e-05 8.157065e-05 2.000000e-07
-9.371778e-05 -9.882230e-05 2.000000e-07
-5.279661e-06 -5.042642e-05 2.000000e-07
5.648923e-05 7.042870e-05 2.000000e-07
-1.545315e-06 -5.100181e-05 2.000000e-07
8.985233e-05 3.068811e-05 2.000000e-07
-9.794590e-05 -4.422133e-05 2.000000e-07
9.760304e-05 -6.168592e-05 2.000000e-07
6.388797e-05 7.161996e-06 2.000000e-07
2.474725e-05 7.275134e-05 2.000000e-07
-9.954967e-07 -9.990000e-05 -2.000000e-07
3.997028e-05 -5.567981e-05 2.000000e-07
-9.865547e-05 7.607815e-05 2.000000e-07
5.464681e-05 6.260641e-07 2.000000e-07
-5.862686e-05 -4.851188e-05 2.000000e-07
3.069750e-05 -5.740984e-05 2.000000e-07
-3.470674e-05 5.114709e-05 2.000000e-07
-5.045590e-05 -5.327541e-05 2.000000e-07
8.800487e-05 -6.130266e-06 2.000000e-07
8.575861e-05 -1.348360e-06 2.000000e-07
-9.265764e-05 -9.461387e-05 2.000000e-07
-1.015656e-06 -9.990000e-05 -2.000000e-07
-8.104097e-05 -8.960518e-05 2.000000e-07
1.175547e-05 -5.106111e-05 2.000000e-07
-1.754891e-05 -5.685367e-05 2.000000e-07
-3.395336e-06 -5.560041e-05 2.000000e-07
-1.282623e-05 5.438522e-05 2.000000e-07
-8.968601e-05 -9.871999e-05 2.000000e-07
5.909925e-05 3.587675e-05 2.000000e-07
5.992952e-05 2.806265e-06 2.000000e-07
9.843305e-05 8.449886e-05 2.000000e-07
9.342713e-05 9.389117e-05 2.000000e-07
-1.035852e-06 -9.990000e-05 -2.000000e-07
-5.319422e-05 -5.622069e-06 2.000000e-07
-5.146066e-05 1.177250e-05 2.000000e-07
-1.869917e-05 -9.866318e-05 2.000000e-07
9.794071e-05 4.693262e-05 2.000000e-07
4.379889e-05 -7.285294e-05 2.000000e-07
-5.735642e-05 -2.476960e-05 2.000000e-07
4.644728e-05 5.633840e-05 2.000000e-07
3.593017e-06 5.130272e-05 2.000000e-07
-2.383444e-05 -8.036792e-05 2.000000e-07
5.054916e-05 5.128074e-05 2.000000e-07
-1.056085e-06 -9.990000e-05 -2.000000e-07
-9.195546e-05 -8.201154e-05 2.000000e-07
-9.118829e-05 -7.776645e-05 2.000000e-07
-8.982221e-05 -8.551092e-05 2.000000e-07
5.944431e-05 -9.590750e-06 2.000000e-07
4.026475e-05 -9.421463e-05 2.000000e-07
-6.040126e-05 -9.845771e-05 2.000000e-07
9.579331e-06 -9.920478e-05 2.000000e-07
-3.108865e-05 -5.418524e-05 2.000000e-07
5.773208e-05 -4.146756e-05 2.000000e-07
6.936592e-05 -9.111625e-05 2.000000e-07
-1.076356e-06 -9.990000e-05 -2.000000e-07
9.243051e-05 9.561960e-05 2.000000e-07
9.866759e-05 7.334116e-05 2.000000e-07
-1.164101e-05 -8.676744e-05 2.000000e-07
-5.401360e-05 1.674528e-05 2.000000e-07
2.403702e-05 9.768722e-05 2.000000e-07
6.268616e-05 -9.232989e-05 2.000000e-07
8.242863e-06 -9.920422e-05 2.000000e-07
-9.634111e-05 7.569872e-05 2.000000e-07
6.930110e-06 6.030726e-05 2.000000e-07
9.864259e-05 8.127534e-05 2.000000e-07
-1.096663e-06 -9.990000e-05 -2.000000e-07
-3.296412e-05 -5.375415e-05 2.000000e-07
3.388193e-05 -5.697996e-05 2.000000e-07
-7.281466e-05 4.579865e-05 2.000000e-07
-7.739394e-05 4.326308e-05 2.000000e-07
5.331278e-05 4.918240e-05 2.000000e-07
3.942534e-05 -5.134553e-05 2.000000e-07
-9.189028e-05 9.550064e-05 2.000000e-07
-1.730176e-05 -5.366158e-05 2.000000e-07
9.133116e-05 -9.704205e-05 2.000000e-07
8.799709e-06 -5.635557e-05 2.000000e-07
3.381509e-05 5.000000e-05 -2.000000e-07
-1.117009e-06 -9.990000e-05 -2.000000e-07
9.845580e-05 9.162513e-05 2.000000e-07
-3.969191e-05 5.113480e-05 2.000000e-07
5.368088e-05 -4.842294e-06 2.000000e-07
9.413878e-05 7.601402e-05 2.000000e-07
8.880578e-05 8.381381e-05 2.000000e-07
-8.003709e-05 -9.784277e-05 2.000000e-07
-1.636629e-05 -6.534913e-05 2.000000e-07
-8.648005e-05 -9.894532e-05 2.000000e-07
3.065176e-05 8.195265e-05 2.000000e-07
-4.880455e-05 5.670862e-05 2.000000e-07
-1.137391e-06 -9.990000e-05 -2.000000e-07
4.843843e-05 5.266354e-05 2.000000e-07
9.841760e-05 -7.489730e-05 2.000000e-07
-9.820704e-05 4.003754e-05 2.000000e-07
4.248268e-05 5.400370e-05 2.000000e-07
-9.854412e-05 -7.983119e-05 2.000000e-07
-5.135517e-05 -1.839235e-05 2.000000e-07
5.849794e-05 3.250769e-05 2.000000e-07
4.636676e-05 -9.839427e-05 2.000000e-07
[...]
POINT_DATA 14180
VECTORS 10.000GHz_fone_imag double
2.993816e+10 3.479414e+10 2.318282e+08
5.847778e+08 -4.634744e+08 -4.510255e+06
2.783724e+10 4.258226e+07 7.580997e+07
-1.532008e+10 8.278218e+07 -5.271501e+07
-1.638942e+09 -2.085997e+09 -2.965259e+06
-1.551131e+10 6.034035e+07 -3.490181e+07
4.309635e+09 6.447261e+06 2.062174e+06
3.292076e+08 1.735472e+09 1.100577e+06
-2.008088e+08 1.519457e+10 -2.159792e+07
3.994051e+09 4.421712e+07 -6.366010e+06
4.197078e+09 -8.167904e+07 8.216348e+06
-3.298121e+09 -1.161042e+08 3.853322e+05
-1.826506e+09 1.669384e+08 1.886429e+06
-9.852929e+09 5.183414e+07 -1.334966e+07
-1.521138e+10 2.629346e+07 -1.257742e+06
3.108221e+08 -7.516058e+09 6.722359e+06
-8.862623e+09 -7.448573e+08 2.029685e+07
-2.047640e+09 -1.240504e+08 1.575295e+06
8.119150e+08 -1.874936e+09 -4.675883e+05
-1.231712e+08 7.840080e+09 6.175109e+06
-1.082875e+09 9.000038e+09 6.763540e+06
1.141433e+09 4.214193e+08 8.480928e+05
4.495088e+09 -5.991371e+08 -2.952161e+06
7.734938e+08 -3.672880e+09 -7.485638e+05
-1.005589e+10 2.595459e+09 -7.800505e+06
-1.518828e+10 -5.745386e+07 3.048811e+07
2.205636e+08 -1.676656e+10 -5.696095e+07
5.334131e+08 6.532122e+09 -1.728057e+06
-1.501262e+10 -1.943983e+08 -2.509730e+07
-2.227305e+10 -1.225286e+09 -6.690240e+07
-7.889097e+08 -1.376167e+09 7.185029e+05
2.515192e+09 -6.729099e+07 3.878732e+04
-1.435471e+08 -1.847154e+09 3.463992e+06
-5.796472e+09 8.541691e+07 -1.176547e+07
-5.566166e+08 -2.964317e+09 4.492442e+05
1.428228e+10 -8.855555e+06 -1.244691e+06
-1.518737e+10 -4.257927e+07 2.769937e+07
5.067753e+09 1.934231e+09 7.704938e+05
-1.387873e+08 -2.012364e+09 -5.095674e+05
-3.801042e+08 -1.278637e+09 8.366098e+05
4.909788e+08 -7.299501e+08 -2.095577e+06
-8.903578e+09 1.111024e+08 -1.235783e+07
-7.434981e+08 4.824811e+09 5.326394e+06
1.203875e+09 -7.022159e+08 6.231539e+05
5.025295e+09 5.248551e+07 1.625738e+07
-3.866350e+10 8.645841e+08 7.810705e+07
1.027097e+10 -1.716334e+09 1.798032e+06
-1.516152e+10 -3.520662e+07 2.629775e+07
2.655988e+09 2.286295e+08 2.027588e+05
-3.284386e+08 1.553847e+10 8.298416e+06
4.233452e+09 3.737830e+09 5.710247e+06
-4.874391e+09 8.683993e+07 -8.124301e+06
-8.533938e+09 -1.345382e+08 -1.899758e+06
2.996129e+08 3.011997e+09 2.870924e+05
2.306513e+08 2.771430e+09 -4.060471e+04
-2.089703e+10 9.462882e+07 1.249885e+08
5.929611e+09 -5.573995e+08 2.616690e+06
-1.445635e+09 2.398532e+09 6.972003e+04
-1.512977e+10 -3.528187e+07 2.695716e+07
2.409999e+08 4.075211e+09 -1.657070e+06
6.779769e+07 -2.498820e+09 1.294773e+06
-1.557183e+09 -1.793867e+09 -4.424418e+05
2.494444e+09 -5.778107e+08 1.946607e+06
2.639531e+08 1.666904e+10 -1.592323e+07
-3.482604e+09 -3.607846e+07 1.544134e+06
-2.956361e+09 -4.544753e+07 -8.955007e+05
4.206901e+09 -1.065137e+09 4.299870e+06
1.683476e+09 1.183317e+09 2.614644e+05
-2.223272e+10 1.297649e+09 -8.010744e+07
-1.505084e+10 -9.142420e+06 1.394776e+07
-7.546468e+09 2.202307e+08 -6.307261e+06
5.011590e+09 3.470129e+06 -1.769636e+07
1.070107e+09 1.578283e+09 -4.210434e+05
-5.048651e+09 2.671432e+08 8.237656e+06
1.106158e+09 -1.969086e+10 -5.638228e+07
6.020162e+09 -3.017239e+08 -2.417943e+06
-2.790014e+09 -1.112721e+08 -1.098569e+07
1.699551e+08 5.560329e+09 -1.087030e+07
8.684353e+09 -4.332642e+08 1.590641e+07
-8.390819e+07 7.035168e+09 -7.796014e+06
-1.505993e+10 -5.526886e+07 3.399433e+07
4.310548e+08 -7.219664e+08 4.852687e+05
3.803419e+09 -2.439930e+09 3.495674e+06
-2.786091e+08 1.035693e+09 1.343008e+06
9.034947e+08 -1.711078e+09 -2.608512e+05
3.559639e+08 1.491154e+09 1.141483e+05
-3.137214e+10 1.347150e+08 3.748997e+07
-2.216696e+10 1.649623e+07 -3.217483e+07
-2.437747e+09 -2.075580e+09 2.605941e+06
1.195538e+09 1.076608e+10 5.253921e+06
-7.601794e+09 -6.445230e+08 1.888905e+06
-1.503886e+10 -3.147061e+07 2.298306e+07
-5.399754e+08 -5.964233e+09 4.067736e+06
-4.798521e+08 1.760317e+10 3.029978e+07
-1.150789e+10 8.926807e+06 -4.336735e+06
7.243946e+08 -8.270443e+09 -4.037483e+06
-7.853192e+07 4.435176e+09 5.313736e+06
3.266577e+08 2.301691e+09 5.652210e+05
-4.131176e+09 -7.192212e+07 -9.168890e+06
-3.812540e+09 1.072491e+08 3.095821e+06
5.013161e+07 -3.917623e+09 7.286024e+06
4.419513e+06 -3.227371e+09 6.320340e+04
-1.505004e+10 -3.814156e+07 1.051533e+07
4.320145e+08 1.638708e+09 9.872311e+05
-2.794819e+09 -1.617843e+08 7.610989e+06
-3.537344e+08 8.257853e+09 2.692820e+06
5.779363e+09 4.498757e+07 2.150238e+06
2.453251e+07 1.430920e+10 2.347162e+07
-1.035466e+09 -4.885210e+09 6.356480e+06
4.773555e+09 -2.067236e+08 -2.158329e+06
-9.860858e+08 2.003609e+09 -3.306617e+06
-2.352402e+09 -9.301153e+07 7.796801e+04
-2.778336e+09 -3.296952e+09 -2.500270e+06
2.758633e+10 -2.380550e+07 -1.388701e+08
-1.507669e+10 -4.992348e+07 5.076596e+06
-1.285631e+09 3.849297e+08 -5.061233e+04
-1.008649e+10 -5.716161e+07 -1.780541e+07
-3.710377e+09 1.101975e+08 -8.630915e+06
-1.563184e+07 -3.019897e+09 -2.177859e+06
1.629336e+10 -4.147659e+08 -4.050625e+07
-3.528566e+09 1.153686e+08 1.182125e+07
8.366590e+07 4.422610e+09 5.877075e+06
-1.255268e+09 -1.175225e+10 1.767179e+07
2.701677e+08 -1.488945e+10 5.553175e+07
2.380605e+08 7.493835e+09 7.687105e+06
-1.514222e+10 -7.671777e+07 5.901956e+07
-2.336194e+10 1.507119e+08 -1.802386e+08
1.274015e+08 3.059467e+09 -2.632118e+05
8.683210e+07 2.754776e+09 1.553566e+05
-5.367151e+09 4.482500e+07 -1.537352e+07
-1.434497e+09 4.407040e+08 -3.013092e+05
-5.809801e+09 -6.438645e+07 3.030330e+07
-5.354111e+08 5.899082e+09 6.870113e+06
1.456150e+09 -3.026491e+08 4.657667e+05
1.279330e+09 -3.791416e+08 8.960100e+05
-1.558485e+10 4.386123e+07 -1.387748e+07
-1.522040e+10 -1.002728e+08 -3.558547e+06
3.497032e+09 -1.313292e+08 5.700787e+06
-2.655928e+08 1.079796e+09 -4.413358e+05
1.859628e+08 -6.135176e+09 -2.794550e+06
-3.446711e+09 1.249431e+08 -2.251958e+06
1.270405e+10 2.007750e+07 -8.763177e+06
1.187976e+08 2.568948e+09 2.703766e+06
1.810040e+10 -1.063544e+09 4.725465e+06
-5.392722e+09 2.903865e+07 1.131130e+07
-5.903327e+08 7.998088e+09 1.225161e+07
3.659614e+09 -9.039125e+08 -1.758600e+06
-1.535540e+10 -4.025332e+07 2.679136e+07
1.290054e+08 2.376851e+09 3.156747e+06
-1.511416e+09 1.747715e+08 7.122683e+06
-2.191346e+10 1.954110e+07 2.557466e+08
1.815344e+09 -1.118887e+09 7.570187e+04
-1.611255e+10 2.371299e+08 -1.860451e+07
2.292152e+08 -2.259619e+09 6.450717e+04
-1.292932e+08 4.192566e+09 3.854027e+06
-1.568067e+08 -2.798361e+09 -3.487279e+06
8.938710e+07 -3.605144e+09 7.530932e+05
2.684346e+09 -3.435802e+08 -1.494694e+06
-1.533540e+10 -2.123266e+07 1.898957e+07
-6.716812e+09 -1.055651e+09 6.927570e+06
1.290803e+08 2.729946e+09 5.078599e+06
-5.238531e+06 -6.698750e+09 6.528855e+06
-1.995825e+09 4.315928e+09 2.784112e+05
-5.306990e+09 -5.357691e+08 3.945521e+06
1.811528e+10 3.493937e+08 6.616667e+07
-8.385602e+09 5.044953e+09 2.462588e+07
-5.481944e+07 -2.372090e+09 8.347317e+05
-2.301392e+07 -2.318817e+09 1.412942e+06
-6.581448e+08 4.573035e+08 2.232602e+06
-1.531450e+10 -2.132941e+07 5.787084e+06
-9.036452e+08 4.754553e+08 8.854817e+04
-1.596111e+10 -5.223849e+07 -2.990701e+07
-5.632949e+09 2.052991e+08 7.904248e+06
-6.100866e+09 4.308663e+07 1.242215e+06
7.109975e+09 1.318377e+08 2.870401e+05
-1.971653e+09 1.316440e+08 -1.058324e+07
7.652058e+08 -4.825487e+09 1.055859e+06
6.013434e+07 -4.398549e+09 -2.015020e+06
1.143899e+08 -2.181778e+09 -4.311265e+06
5.858908e+08 -5.206919e+08 4.736237e+05
-1.536843e+10 -3.667152e+07 3.008562e+07
-4.970917e+07 8.650092e+09 2.763909e+07
7.167471e+07 1.385357e+10 -2.931521e+07
-5.668737e+09 3.796397e+07 -1.973273e+07
1.053784e+08 -3.858977e+09 -3.099905e+06
-2.280297e+09 -7.886532e+08 9.778873e+04
-3.178933e+08 5.174149e+09 -2.004469e+06
5.996088e+09 -2.130278e+09 -2.618757e+07
1.443915e+10 -1.543555e+08 -2.698395e+07
-2.316542e+09 2.711062e+08 -9.783431e+04
1.635330e+10 -1.116869e+10 8.249994e+07
-1.541991e+10 -6.424093e+07 -1.666757e+07
-4.158955e+08 9.467379e+08 1.344448e+06
-4.290693e+08 1.052858e+09 1.139812e+06
-5.207441e+08 7.509730e+08 -1.639392e+05
-9.825075e+07 -4.617594e+09 -1.160334e+06
-2.511282e+09 -1.991427e+08 -2.327529e+06
-3.776836e+09 1.384687e+08 4.839821e+06
-7.033716e+09 -2.238132e+07 -4.512195e+06
-7.622856e+09 4.166398e+08 -1.689692e+07
-1.246491e+09 -5.408123e+09 -6.302441e+05
-1.303237e+09 -4.217883e+08 -2.653120e+05
-1.555101e+10 4.399489e+06 1.308744e+06
7.811183e+08 -3.780250e+08 -3.087952e+05
1.167169e+08 -3.083552e+09 -2.598670e+06
-2.320123e+09 8.234120e+07 7.771554e+05
1.807558e+08 7.408593e+09 9.956935e+06
4.360692e+09 -3.470466e+07 4.740144e+05
-1.613943e+09 -3.612060e+08 3.835109e+05
-7.472582e+09 -5.005338e+07 -1.094713e+06
2.595425e+08 1.651028e+09 -1.111887e+05
4.208221e+09 -7.554186e+07 -6.963459e+05
1.096450e+08 -2.479580e+09 -7.611578e+06
-1.557022e+10 -1.420095e+07 -2.716691e+06
-8.249075e+09 4.944956e+08 2.290322e+06
-5.705334e+09 -6.250613e+08 5.579988e+06
8.130681e+08 2.214090e+09 1.014188e+06
6.304704e+08 2.072531e+09 4.087279e+04
4.191373e+09 -9.512949e+09 5.204059e+07
-1.780334e+10 -5.567966e+08 -8.026012e+07
7.816482e+08 3.811002e+08 5.808772e+05
-7.771340e+09 1.410174e+08 -9.966684e+06
-1.067163e+09 -2.727793e+08 9.821468e+05
-5.482290e+09 -1.001503e+08 -1.307977e+06
2.871271e+10 9.719832e+07 5.472350e+07
-1.560021e+10 -5.517663e+06 1.619373e+06
1.672850e+08 -1.507699e+09 5.466939e+06
1.900538e+10 3.841526e+08 2.004191e+07
-6.041533e+07 -7.525930e+09 -1.524463e+07
3.361670e+08 -1.285263e+09 7.111674e+05
5.665041e+08 -7.737689e+08 -3.587511e+05
-1.943077e+09 1.460547e+08 8.599328e+06
-3.342140e+09 2.112740e+08 -2.093558e+06
-2.436342e+09 1.257032e+08 1.337020e+07
2.212253e+09 -3.336834e+08 -2.522080e+04
5.162347e+09 2.535040e+09 -3.021549e+06
-1.561006e+10 -9.220391e+06 9.583707e+06
1.254991e+10 -3.686275e+09 7.530291e+06
-1.610518e+08 -2.769857e+09 -7.612333e+06
8.238797e+07 4.370431e+09 6.291295e+06
8.636180e+09 -1.310287e+09 1.598510e+07
-1.294733e+08 2.564142e+09 -7.694738e+06
-3.536290e+07 1.531319e+10 3.306811e+07
6.282231e+08 -4.891273e+09 -1.855023e+04
-4.561222e+09 -8.355223e+07 -1.924741e+07
-3.013930e+07 -4.275016e+09 1.548592e+06
6.447037e+09 5.452446e+08 3.620770e+06
-1.551144e+10 3.213179e+07 8.274520e+06
-3.431074e+09 -4.951223e+08 3.908005e+06
1.220476e+08 -2.786913e+09 7.991679e+06
-4.755152e+09 8.669558e+07 -1.352728e+06
-1.915730e+10 -2.062624e+07 -2.695902e+07
-1.186518e+08 -4.417704e+09 -3.321297e+06
4.724335e+09 -8.390027e+06 -9.957984e+06
7.251291e+08 -6.290732e+09 -7.124251e+06
4.244157e+09 8.246094e+08 -4.003702e+06
-8.107973e+08 1.592321e+09 -2.017631e+05
-5.475173e+09 -5.125583e+07 3.244640e+06
-1.545333e+10 1.685005e+07 -1.489388e+07
-5.823552e+09 4.495707e+08 5.335947e+06
-2.606985e+06 -4.716007e+09 9.512135e+06
-2.050980e+09 4.414181e+08 -1.553482e+05
-5.520816e+09 -5.154381e+09 2.584070e+06
-3.165115e+08 -4.645732e+09 -2.779530e+06
4.916637e+09 3.843205e+08 -6.191197e+06
-1.430646e+09 1.652338e+09 -5.836061e+04
-1.242632e+08 2.378005e+09 3.135087e+06
-5.581670e+09 -1.838714e+08 -9.563072e+05
-2.553004e+10 8.342831e+09 -5.359488e+07
-1.542005e+10 1.251137e+07 4.485741e+06
2.103384e+09 -2.740025e+08 -7.047953e+05
1.167489e+08 -4.579606e+09 -6.077731e+06
-4.095422e+09 -1.133432e+09 -1.571075e+06
-1.203327e+08 -2.913193e+09 8.882823e+06
-5.065943e+08 -1.325706e+09 -2.137869e+05
8.772441e+09 1.754124e+09 1.347295e+07
-2.363267e+07 1.390210e+10 -4.373991e+07
2.607078e+09 -3.557412e+09 9.818430e+06
1.112159e+09 -1.824339e+09 -2.577027e+05
3.235138e+09 -2.962529e+09 -2.104309e+06
-1.539648e+10 -1.870170e+07 1.245269e+07
1.356002e+09 3.027361e+09 -1.532923e-09
-1.077794e+10 -9.441575e+07 2.735562e+06
5.500192e+08 5.319479e+09 -1.619251e+06
-2.759586e+08 3.040246e+09 1.235883e+06
-5.437394e+09 -7.731288e+07 -4.054235e+05
1.753196e+09 6.919095e+08 1.236602e+06
2.064809e+07 -3.858782e+09 -2.729033e+06
-4.638155e+09 -2.437813e+07 -8.948361e+06
1.246391e+09 -1.672959e+09 6.296914e+05
-3.101121e+09 -9.270143e+09 6.615329e+06
-1.544621e+10 -5.463313e+07 -6.846482e+06
-2.756980e+08 1.217734e+09 -2.395184e+05
8.822012e+06 -4.935065e+09 1.733555e+07
1.170291e+09 -9.745977e+08 1.047193e+06
3.461878e+09 -1.072791e+08 5.500173e+06
-1.003563e+08 1.499888e+10 4.539559e+07
-1.734148e+10 -1.647003e+08 2.851557e+07
-4.342858e+09 1.037202e+08 5.550213e+05
1.461385e+10 -9.016620e+07 1.033888e+08
1.961401e+10 -1.759834e+09 4.248108e+07
1.957971e+08 -1.244578e+10 7.506811e+06
-1.555951e+10 -1.784607e+07 1.051356e+06
3.434066e+08 2.010801e+09 8.863261e+05
-5.197120e+09 9.674180e+07 -9.298334e+06
-3.174354e+08 -1.258445e+09 1.856550e+06
3.992574e+07 -1.294241e+10 -1.479651e+07
3.076272e+09 -1.103738e+08 6.286951e+06
-5.140588e+07 -4.696620e+09 3.403677e+05
2.115769e+09 1.006754e+08 -2.322908e+06
2.125981e+09 1.450718e+08 -2.944119e+06
5.478336e+09 -2.220815e+08 9.415388e+06
-3.078826e+10 9.667581e+08 -1.970169e+07
-1.555262e+10 -2.163045e+07 2.749941e+07
-7.341111e+09 8.549379e+07 2.351745e+07
6.979314e+07 4.691380e+09 -9.158550e+04
-3.006517e+09 -4.762954e+07 -1.582428e+06
-2.434540e+08 7.412435e+09 1.475310e+06
9.039532e+07 -2.339256e+09 3.388003e+05
-9.548571e+09 5.306661e+08 -7.033020e+06
-2.936237e+09 8.249469e+07 -2.562571e+06
-1.087715e+09 3.669478e+08 -1.916566e+05
-5.267007e+09 7.496918e+08 3.484131e+06
1.849563e+10 6.892828e+08 -2.623714e+07
-1.552436e+10 -2.379197e+07 2.526886e+07
5.860921e+08 8.387399e+09 -9.880531e+06
-3.132928e+09 -1.629933e+09 5.747952e-09
6.295114e+07 5.353502e+09 1.346364e+07
4.175633e+08 -1.946615e+09 -4.494005e+05
-2.605259e+09 3.636386e+07 -3.327080e+05
-3.382981e+09 4.250770e+09 1.312382e+07
-1.173177e+08 -2.744153e+09 -5.993422e+06
3.646789e+09 -5.509428e+08 3.617067e+06
1.856862e+07 1.428037e+10 -4.809902e+07
-1.601814e+10 -1.827163e+08 5.584559e+07
2.773440e+10 -5.101868e+07 -1.765306e+07
-1.551622e+10 -2.597089e+07 1.168618e+07
-1.188734e+10 -1.631031e+06 -5.573951e+07
-4.932699e+09 7.064352e+07 4.083038e+06
4.944302e+09 4.776200e+07 -3.134842e+06
3.153867e+07 5.250111e+09 1.912270e+06
1.537124e+10 -2.679169e+07 -3.562279e+07
-1.393109e+08 3.091010e+09 7.460980e+06
-5.849194e+09 6.360931e+09 -5.115380e+07
1.936288e+08 -8.023581e+09 -1.457899e+07
-4.503765e+08 -1.501160e+09 2.261545e+05
-2.157959e+08 -5.073728e+09 -2.822857e+06
-1.552040e+10 1.188158e+06 3.422180e+06
1.366796e+08 -3.150324e+09 -4.886171e+05
-2.125696e+09 7.756553e+09 1.698616e+07
-7.428899e+08 3.890258e+08 -1.289813e+06
-1.719602e+08 -1.558519e+09 4.084317e+06
-4.018461e+10 1.086347e+09 -4.391195e+07
3.586331e+09 -1.088685e+08 6.370016e+06
-8.935357e+08 -4.301770e+09 2.625924e+06
-1.096990e+10 4.799328e+07 1.656970e+07
-1.748022e+09 4.390395e+09 2.936247e+06
-4.036465e+08 7.107722e+08 -4.925684e+06
-1.552369e+10 2.761333e+07 -1.366009e+07
-9.215254e+08 -6.270486e+09 -4.777854e+06
-1.826368e+10 1.700001e+08 1.366273e+07
6.195806e+09 -3.313271e+09 4.869489e+06
-1.292162e+09 -3.838501e+08 2.396239e+05
-4.305471e+09 1.396759e+08 4.794464e+06
-7.860286e+07 -1.249668e+10 1.646221e+07
4.393952e+09 -6.778206e+07 4.520505e+06
1.007503e+07 -1.330041e+10 -8.340849e+06
-9.949236e+08 2.954849e+08 -3.703945e+06
-6.097301e+07 -1.267506e+10 -1.854658e+07
-1.551488e+10 -1.678971e+07 -4.337977e+06
4.473456e+08 5.476915e+09 -1.625809e+06
-7.662979e+09 -8.437221e+07 1.548274e+06
9.598841e+08 -1.390106e+09 -1.708771e+06
-4.122330e+07 8.362906e+09 1.281878e+07
4.442307e+08 -1.014777e+09 1.942482e+05
3.463673e+09 -1.223910e+09 0.000000e+00
4.462733e+09 8.901022e+07 3.923655e+05
1.243368e+08 4.310668e+09 -8.133567e+06
-5.651154e+09 6.697372e+08 3.822624e+06
1.181626e+09 7.206113e+09 -4.037402e+06
-1.558837e+10 -1.221755e+07 5.972147e+06
-6.257006e+08 -4.943958e+08 1.133232e+06
8.867677e+09 4.725627e+08 -1.134748e+07
-4.804410e+09 -1.392620e+08 -3.557099e+06
-3.981541e+08 5.735798e+09 -7.132082e+06
1.016511e+08 4.469711e+09 -1.634731e+07
-1.306629e+08 2.541193e+09 -1.482202e+06
-9.363602e+09 -2.054758e+08 4.206691e+06
-3.323363e+10 2.921500e+08 6.893273e+07
7.600380e+07 -4.637708e+09 1.493792e+07
-2.328923e+10 -3.095522e+09 8.670564e+07
-1.559237e+10 2.851007e+06 -1.832594e+06
2.678784e+09 8.870634e+08 -2.208708e+06
-1.159068e+09 -9.427545e+09 9.548737e+06
1.047559e+08 2.996282e+09 -1.215765e+07
7.663915e+09 -9.262439e+07 -5.218611e-08
-7.298045e+09 5.260274e+07 9.455481e+06
-8.173913e+07 4.772769e+09 3.384650e+05
-8.738820e+08 3.687824e+09 4.855133e+05
1.297346e+09 5.044195e+09 3.180239e+06
-1.093308e+08 2.174498e+09 6.861213e+06
1.290015e+09 4.563259e+08 1.650362e+06
-1.559447e+10 1.272711e+07 -1.956375e+07
-2.931646e+10 3.672886e+08 7.816174e+07
-4.455253e+09 7.213147e+09 -3.129585e+06
4.631185e+09 6.645581e+07 1.906735e+06
-2.684912e+09 5.777063e+09 -1.578728e+07
-1.344376e+08 2.461507e+09 -2.287584e+06
-9.837337e+09 -4.141602e+07 4.667622e+07
1.118554e+10 3.044907e+09 -1.089722e+07
3.448204e+09 1.308478e+08 1.361130e+07
-2.391362e+09 -1.872864e+08 1.013844e-09
-2.286329e+09 -1.659480e+08 -4.253428e+05
-1.572067e+10 3.246496e+06 -6.602627e+07
8.699983e+09 -5.500671e+07 1.057189e+06
-6.298952e+09 2.781432e+08 -1.499780e+06
-2.275384e+10 3.788755e+09 -1.645692e+08
1.533069e+09 -1.154884e+09 1.108306e+06
-1.051137e+09 3.321573e+08 3.428076e+05
-3.722606e+10 3.994116e+08 -1.020127e+08
-5.055899e+09 4.375115e+08 -2.328522e+06
5.196466e+09 1.152115e+10 -5.942958e+07
4.697124e+09 8.242735e+09 3.873554e+07
-9.364047e+09 6.829419e+07 -3.576582e+06
-1.584197e+10 -1.466537e+06 -2.785927e+06
-9.218231e+09 1.493001e+08 1.217737e+07
-3.721602e+09 2.039825e+09 2.824839e+06
-8.916880e+09 -4.398962e+09 1.706993e+07
4.970207e+09 -1.482894e+09 5.431176e+06
1.428905e+09 2.970712e+08 6.493776e+05
-2.132361e+10 1.087125e+08 2.070825e+07
9.954812e+08 -9.695025e+08 2.232626e+05
-6.403575e+08 4.300394e+09 -6.500677e+06
1.465271e+09 -2.968970e+09 2.006639e+06
-2.128115e+10 2.190760e+10 -1.665564e+07
-1.585036e+10 1.656086e+06 -3.105257e+04
-2.277796e+10 1.328747e+08 4.085009e+07
-5.117612e+09 -8.256015e+07 7.302141e+06
-8.532969e+09 -1.959470e+08 4.390780e+06
2.214220e+09 -1.788563e+09 -7.476367e+05
-2.502732e+08 1.110591e+09 1.009855e+06
5.329128e+09 2.994809e+07 -1.690534e+06
-1.833698e+10 -5.051668e+07 -4.460628e+07
2.251369e+09 4.822996e+09 1.049506e+07
-8.600206e+08 -3.318439e+08 2.928908e+05
-2.175746e+09 -1.070539e+09 2.581324e+06
2.838276e+10 5.805912e+07 2.623284e+07
-1.579507e+10 2.590500e+07 1.686674e+06
-2.553407e+09 1.215407e+08 -4.203409e+05
7.179610e+09 7.159029e+07 3.519456e+06
-2.653609e+09 2.094785e+08 -4.860595e+05
2.766395e+09 1.215914e+08 -1.144972e+07
-2.171041e+09 2.738898e+09 1.306271e+06
-5.013279e+09 -3.719072e+07 4.743237e+06
-6.947762e+08 -7.684424e+09 -5.735287e+06
3.550741e+09 1.625491e+09 3.670506e+06
3.886337e+09 2.981595e+08 1.967618e+06
6.859687e+06 -5.331501e+09 2.559955e+06
-1.577376e+10 2.746998e+07 -1.576303e+07
-7.244430e+07 -1.265158e+10 4.460194e+07
-1.731419e+08 -1.463416e+10 8.960017e+06
8.632883e+07 4.716617e+09 -9.971055e+06
-1.199717e+10 1.160672e+10 -5.772414e+08
-1.413396e+08 3.550380e+09 -5.265517e+06
-9.171387e+09 -7.931411e+08 3.892327e+07
-2.227303e+10 1.671395e+08 -5.970003e+07
2.967088e+09 -1.139266e+08 1.202243e+06
-1.032960e+10 -2.636200e+10 -1.633235e+08
2.499704e+09 1.231778e+08 -9.456090e+06
-1.574686e+10 9.009532e+06 1.872359e+05
-5.098232e+09 -2.723589e+08 -1.359499e+06
6.109902e+08 1.119388e+09 3.972510e+05
-7.243712e+09 -5.192911e+08 -3.013590e+07
3.563841e+09 -1.200710e+08 8.259902e+06
-2.358839e+09 -2.061241e+08 2.818058e+05
-2.204571e+10 1.450639e+08 -9.798529e+07
3.764230e+09 1.055617e+08 1.438258e+06
-9.064726e+07 -2.377858e+09 -3.980372e+05
-2.433940e+09 -9.636082e+06 -2.839122e+05
-4.140088e+09 5.151217e+08 9.209741e+04
-1.575705e+10 -3.422846e+07 1.773573e+07
-1.025220e+09 3.098889e+08 6.900605e+05
4.188644e+09 1.087172e+08 -1.946274e+07
6.509778e+09 1.136095e+09 -4.259700e+06
-2.092466e+10 -4.001783e+07 2.760964e+07
-1.619048e+10 1.018346e+08 -1.380572e+07
9.941426e+07 -2.853455e+09 -1.274548e+07
1.537754e+10 -1.030424e+08 2.417081e+07
-5.486520e+09 -7.377307e+07 -1.229322e+07
2.035512e+09 -1.130570e+09 -9.974444e+05
4.215476e+08 -6.450836e+09 -9.380326e+06