# vtk DataFile Version 2.0
Electric current density generated by TTH
ASCII
DATASET UNSTRUCTURED_GRID
POINTS 1822 double
2.305477e-05 -5.646791e-21 -4.085028e-22
2.132365e-05 8.764962e-06 -4.085028e-22
-9.453214e-06 -2.102759e-05 -4.085028e-22
1.380480e-05 -1.811923e-05 -9.187413e-07
-1.152020e-05 1.616376e-05 -6.452808e-07
1.970946e-05 -9.634464e-07 2.148339e-07
7.545017e-06 -2.156042e-05 8.142831e-07
2.962562e-06 -1.994427e-05 1.133101e-06
2.155353e-05 7.433344e-06 8.870372e-07
8.433584e-06 -2.005878e-05 -1.625673e-06
8.694944e-06 -1.819623e-05 1.137215e-06
-7.453873e-06 2.149605e-05 9.586788e-07
2.100221e-05 5.775535e-06 -1.620406e-06
-8.533451e-06 -2.141735e-05 -4.085028e-22
7.992672e-06 -1.974072e-05 1.665434e-06
2.005411e-05 1.091195e-05 8.351115e-07
-8.988510e-06 -1.819350e-05 -1.258773e-06
1.935084e-05 3.852961e-06 1.963456e-07
1.910078e-05 -1.240250e-05 9.259187e-07
1.396620e-05 -1.467652e-05 -1.229227e-06
-1.108998e-05 -1.656808e-05 8.244564e-07
9.945080e-06 -1.703715e-05 -1.659415e-07
1.770308e-06 2.277465e-05 -8.127418e-07
-1.957838e-05 2.473998e-06 2.229939e-07
-7.597668e-06 -2.176690e-05 -4.085028e-22
2.276692e-05 9.567111e-07 9.063484e-07
1.103420e-05 -1.835863e-05 -1.667522e-06
2.081819e-05 -4.038458e-06 -1.658026e-06
-2.272764e-05 -1.800507e-06 -8.877971e-07
1.281597e-05 -1.890214e-05 8.235642e-07
1.033846e-05 -1.795648e-05 1.528693e-06
-2.006846e-05 1.077431e-05 9.204035e-07
-1.517092e-05 -1.455932e-05 1.628515e-06
2.045310e-05 -6.891854e-06 1.656272e-06
2.245773e-05 9.063338e-07 -1.263167e-06
-6.647621e-06 -2.207559e-05 -4.085028e-22
1.745706e-05 9.517011e-06 7.204357e-07
-5.371802e-06 2.108054e-05 -1.626899e-06
-2.110489e-05 5.773706e-06 1.593166e-06
1.760423e-05 1.247057e-05 -1.657350e-06
8.709707e-07 1.973120e-05 -3.216870e-07
9.516617e-06 1.917212e-05 -1.667751e-06
-1.291974e-05 -1.769124e-05 -1.584811e-06
1.521226e-05 1.439199e-05 1.607230e-06
-1.176592e-05 1.952453e-05 -8.927726e-07
-1.870999e-05 1.303858e-05 8.779300e-07
-5.685094e-06 -2.234284e-05 -4.085028e-22
1.990861e-05 4.359875e-06 -1.329887e-06
-1.914852e-05 8.397663e-06 1.597897e-06
2.003267e-05 2.351857e-06 -1.140773e-06
6.297680e-06 2.024514e-05 -1.657559e-06
-2.263463e-05 2.732015e-06 -8.876987e-07
1.390328e-05 -1.588891e-05 1.645189e-06
5.327205e-06 -2.093264e-05 -1.654191e-06
-6.949767e-06 -2.175302e-05 8.253737e-07
9.374223e-06 2.085188e-05 7.781332e-07
1.964501e-05 2.139340e-06 3.722079e-07
-4.711894e-06 -2.256813e-05 -4.085028e-22
-1.431369e-05 1.776985e-05 -8.570147e-07
2.159420e-05 4.133152e-06 1.556465e-06
9.810162e-06 1.713100e-05 2.699546e-07
1.933253e-05 -9.667783e-06 1.652159e-06
1.841758e-05 7.296579e-06 5.439309e-07
2.111605e-05 -5.139046e-06 1.631668e-06
-3.298735e-06 2.020542e-05 1.395092e-06
1.349895e-06 2.029675e-05 1.299595e-06
-1.954732e-05 6.010173e-06 -1.380085e-06
-2.229129e-05 -4.972855e-06 8.200554e-07
-3.729847e-06 -2.275106e-05 -4.085028e-22
3.134232e-06 1.961243e-05 6.738566e-07
-1.350452e-09 -1.998415e-05 9.021605e-07
-1.374152e-05 -1.634040e-05 -1.667438e-06
-1.826289e-05 -1.118793e-05 -1.667562e-06
-2.084335e-05 5.456883e-06 -1.660253e-06
6.027536e-06 -2.194432e-05 9.510089e-07
2.236097e-05 -4.519605e-06 8.646389e-07
-1.100936e-05 -1.674868e-05 -9.877703e-07
-1.370977e-05 -1.501938e-05 1.294809e-06
1.791526e-06 2.119484e-05 -1.663764e-06
-2.740798e-06 -2.289128e-05 -4.085028e-22
-1.721666e-05 -1.326949e-05 -1.630710e-06
-3.643281e-06 2.147485e-05 -1.620445e-06
1.084778e-05 1.786982e-05 -1.596589e-06
1.003901e-05 -2.048420e-05 -8.666438e-07
-2.180629e-05 -3.925099e-07 -1.613336e-06
2.241910e-05 4.218969e-06 -8.655126e-07
-1.997302e-06 2.130137e-05 -1.667821e-06
-9.668474e-06 2.067200e-05 8.510724e-07
-1.952391e-05 -4.070365e-06 8.359137e-07
-2.276613e-05 1.893425e-06 8.102542e-07
-1.746604e-06 -2.298852e-05 -4.085028e-22
2.191918e-05 2.228714e-06 1.537961e-06
-4.074610e-06 1.929354e-05 5.262960e-09
7.532671e-06 2.158069e-05 7.867649e-07
-1.986191e-05 6.184434e-07 -6.966120e-07
8.849957e-06 1.762171e-05 1.749832e-08
9.276969e-06 -1.933455e-05 -1.666829e-06
1.846868e-05 9.843722e-06 -1.603522e-06
-2.038314e-05 7.379130e-06 1.642292e-06
2.087506e-05 -4.205897e-06 1.665278e-06
-2.135064e-05 -2.895715e-06 -1.660226e-06
-7.491306e-07 -2.304260e-05 -4.085028e-22
1.790445e-05 -1.423304e-05 -7.582527e-07
-1.761846e-05 -1.454075e-05 -8.117506e-07
1.698532e-05 1.045197e-05 -8.356495e-07
3.671286e-06 2.255160e-05 -8.034756e-07
-1.064081e-05 -1.905498e-05 1.609352e-06
4.776940e-06 1.974228e-05 -1.275211e-06
4.875989e-06 2.233390e-05 7.822145e-07
-4.256084e-06 2.245527e-05 7.914124e-07
-2.182727e-05 -6.739860e-06 8.112994e-07
-1.911663e-05 1.052530e-05 1.609922e-06
2.092395e-05 9.680448e-06 -4.085028e-22
2.497493e-07 -2.305342e-05 -4.085028e-22
9.816373e-06 1.965915e-05 1.561216e-06
-1.643213e-05 1.439680e-05 -1.603187e-06
-2.967601e-06 -2.163314e-05 -1.606320e-06
1.127776e-05 -1.685051e-05 -1.244243e-06
-1.148994e-05 1.743769e-05 1.589825e-06
-1.414349e-05 1.608418e-05 1.667546e-06
-2.041473e-05 1.695110e-06 1.402919e-06
-1.820260e-05 -1.383726e-05 7.728188e-07
-2.031700e-05 -1.049103e-05 7.712300e-07
-1.598670e-05 -1.622509e-05 -9.204187e-07
1.248160e-06 -2.302096e-05 -4.085028e-22
1.744099e-05 1.125927e-05 1.545343e-06
-1.668056e-05 1.561092e-05 8.078872e-07
-8.036039e-06 2.135951e-05 -8.512333e-07
1.843650e-05 1.355216e-05 -7.401338e-07
4.368846e-06 -2.159365e-05 1.538390e-06
-5.990395e-06 -2.099506e-05 1.607097e-06
-1.753897e-05 9.997810e-06 1.159832e-06
-2.182525e-05 -1.284654e-06 -1.598444e-06
-2.572801e-06 -2.265412e-05 -8.863630e-07
3.810685e-06 -1.934768e-05 -3.074294e-08
2.244228e-06 -2.294528e-05 -4.085028e-22
2.242868e-05 -4.217050e-06 -8.504039e-07
-5.276804e-06 -1.902133e-05 -2.613145e-07
7.141813e-06 -1.850240e-05 6.055624e-07
1.867680e-05 -8.588370e-06 -1.446583e-06
-6.415541e-06 -1.918618e-05 -1.201707e-06
-1.971957e-05 9.093196e-06 1.635227e-06
1.816532e-06 2.187639e-05 1.569317e-06
1.107810e-05 1.658963e-05 8.440478e-07
2.130825e-05 -8.276599e-06 -7.836366e-07
-8.002655e-06 -2.142372e-05 -7.638094e-07
3.236082e-06 -2.282653e-05 -4.085028e-22
-4.206616e-06 -2.248147e-05 -7.598227e-07
4.542816e-06 -2.238223e-05 -8.212004e-07
-2.281727e-05 -8.000189e-07 8.339857e-07
1.258267e-05 -1.558391e-05 9.690830e-07
5.975106e-06 -2.101745e-05 1.602183e-06
-2.252093e-05 3.626330e-06 -8.681467e-07
-1.204049e-05 -1.937636e-05 8.654702e-07
1.789558e-05 -1.068071e-05 -1.575810e-06
1.783344e-05 1.428863e-05 7.977467e-07
-1.234735e-05 -1.923508e-05 -7.876634e-07
4.221861e-06 -2.266492e-05 -4.085028e-22
-1.520333e-05 1.341688e-05 -1.244820e-06
-1.973959e-05 -2.959255e-06 8.637378e-07
8.835499e-06 -1.768204e-05 3.954324e-07
-5.219927e-06 -2.225780e-05 7.789510e-07
-2.129126e-05 3.802683e-06 -1.650299e-06
-2.124368e-05 2.897941e-06 -1.666981e-06
-1.386343e-05 1.710190e-05 1.544976e-06
1.859203e-06 -2.158053e-05 -1.645256e-06
1.298822e-05 1.772485e-05 1.561037e-06
-1.513430e-05 -1.589535e-05 -1.570681e-06
5.199714e-06 -2.246076e-05 -4.085028e-22
7.930009e-06 -1.864793e-05 1.233180e-06
2.069751e-05 -9.586718e-06 8.699507e-07
-1.103844e-05 1.901080e-05 -1.557642e-06
-3.771213e-06 -1.936629e-05 -1.909070e-07
1.156565e-05 -1.966082e-05 -8.692426e-07
2.154264e-05 -2.438035e-06 1.641861e-06
2.005031e-05 -8.028884e-06 -1.654418e-06
1.232129e-05 -1.919641e-05 -8.690828e-07
-2.050430e-05 1.000182e-05 8.638048e-07
-8.574561e-06 -1.997781e-05 -1.629999e-06
6.167805e-06 -2.221443e-05 -4.085028e-22
1.025006e-05 1.696816e-05 -5.815697e-07
-1.021013e-05 -1.928986e-05 -1.609190e-06
-6.349668e-06 1.947170e-05 -1.400255e-06
-1.730869e-05 -1.028770e-05 1.102241e-06
-1.962150e-05 3.226335e-06 7.251478e-07
-2.028821e-05 -5.724704e-06 -1.639430e-06
-2.036220e-05 2.402152e-06 -1.414587e-06
1.881566e-05 -7.817062e-06 1.325679e-06
5.457613e-06 1.980937e-05 1.441149e-06
6.566584e-06 2.093176e-05 1.574310e-06
7.124317e-06 -2.192639e-05 -4.085028e-22
2.113185e-05 5.832722e-06 1.579669e-06
2.130468e-05 -5.232624e-06 -1.574221e-06
-1.277982e-05 -1.507919e-05 3.939061e-07
-2.189824e-05 -9.417470e-07 1.580868e-06
-1.444240e-05 -1.445458e-05 -1.368277e-06
3.003159e-06 -1.952032e-05 3.194929e-07
2.110676e-05 3.118418e-06 -1.667057e-06
-1.496578e-05 1.723267e-05 -8.463129e-07
-2.117320e-05 8.672105e-06 -7.425803e-07
-7.591825e-06 1.986994e-05 1.663796e-06
8.067453e-06 -2.159719e-05 -4.085028e-22
-5.947757e-06 1.880586e-05 1.278511e-07
1.970987e-05 5.084673e-06 1.310398e-06
-1.961285e-05 3.445228e-06 -7.808017e-07
2.069867e-05 -6.331210e-06 -1.647706e-06
1.606922e-06 -2.280166e-05 7.855067e-07
-1.124432e-05 1.984963e-05 8.645425e-07
-1.994011e-05 1.659358e-07 8.308899e-07
6.780573e-06 1.878508e-05 8.819595e-07
-1.964869e-05 5.841295e-06 1.411562e-06
-1.067815e-05 -2.023397e-05 7.458144e-07
8.995444e-06 -2.122745e-05 -4.085028e-22
1.683461e-06 -2.282123e-05 -7.367266e-07
1.313991e-05 -1.612571e-05 -1.561656e-06
-2.957728e-06 -2.097732e-05 1.655546e-06
-1.127781e-05 -1.723562e-05 1.469162e-06
-2.038290e-05 -7.416608e-06 1.640020e-06
1.210844e-05 -1.827816e-05 -1.578664e-06
1.254964e-05 1.603334e-05 -1.314801e-06
2.858149e-06 1.987194e-05 -1.031635e-06
-2.067251e-05 -6.526811e-06 1.642179e-06
5.653571e-06 -1.890157e-05 1.812113e-07
2.048496e-05 1.057776e-05 -4.085028e-22
9.906547e-06 -2.081785e-05 -4.085028e-22
-1.925333e-05 1.098060e-05 -1.475501e-06
2.024369e-05 8.380751e-06 1.583727e-06
1.917697e-05 -1.021826e-05 -1.632290e-06
7.437537e-06 2.059563e-05 -1.587796e-06
-5.162805e-06 -2.230132e-05 -7.204917e-07
9.455267e-06 1.827598e-05 1.457981e-06
5.833638e-06 2.110103e-05 -1.589346e-06
-1.000409e-05 1.943325e-05 1.600195e-06
-4.544571e-06 -1.919897e-05 1.860845e-07
1.374819e-05 1.519688e-05 1.407956e-06
1.079905e-05 -2.036917e-05 -4.085028e-22
-1.787978e-06 1.971678e-05 5.059302e-07
1.802186e-05 1.005928e-05 1.490831e-06
-1.912757e-05 4.929104e-06 3.319889e-07
-2.100227e-05 -2.476958e-08 -1.622877e-06
2.207194e-05 5.809710e-06 8.469207e-07
1.034677e-05 2.041630e-05 -7.260488e-07
-1.080272e-05 1.663084e-05 -6.016214e-07
[...]
POINT_DATA 1822
VECTORS 10.000GHz_fone_imag double
-5.879353e-05 2.384940e-04 1.883747e-02
-7.425469e-04 -5.296580e-04 1.902864e-02
-1.433104e-05 -5.753463e-04 1.963081e-02
6.629847e-03 -8.988005e-03 1.650124e-02
-7.146633e-03 1.036476e-02 -2.948513e-02
-3.194489e-03 1.484288e-03 -3.100976e-02
-3.201131e-03 9.417482e-03 1.723659e-02
-2.556010e-03 2.075229e-02 -2.323449e-02
-1.069234e-02 -2.991562e-03 1.632413e-02
8.226824e-03 -2.110059e-02 4.661003e-03
-9.989531e-03 1.830834e-02 -1.967037e-02
4.645744e-03 -1.060205e-02 1.614789e-02
2.260025e-02 6.565017e-03 4.392981e-03
-4.116370e-04 2.230599e-04 1.827085e-02
-9.388597e-03 2.325213e-02 -2.949494e-03
-7.564704e-03 -4.249719e-03 1.592604e-02
-1.052563e-02 -1.820759e-02 -2.094590e-02
-2.986626e-03 -7.744511e-04 -3.246864e-02
-9.863295e-03 5.819753e-03 1.609048e-02
1.270591e-02 -1.408125e-02 -1.998075e-02
8.204333e-03 1.317137e-02 -2.865821e-02
3.228096e-03 -3.254265e-03 -3.157975e-02
6.787187e-04 1.069319e-02 1.685087e-02
4.456070e-03 -1.296457e-03 -2.953884e-02
6.078019e-04 -6.385324e-04 1.769471e-02
-1.100916e-02 -5.606449e-04 1.624619e-02
1.296781e-02 -2.123334e-02 -8.835566e-04
2.491861e-02 -4.039216e-03 -3.123729e-03
-1.119984e-02 -1.275903e-03 1.634326e-02
-4.606216e-03 7.116070e-03 1.612774e-02
-1.279586e-02 2.101050e-02 -8.430401e-03
9.051959e-03 -5.558271e-03 1.652426e-02
1.755241e-02 1.803833e-02 -5.939054e-03
-2.279725e-02 7.455654e-03 2.606732e-03
1.615769e-02 7.919140e-04 1.216873e-02
-1.756699e-04 1.390663e-04 1.934083e-02
-9.273633e-03 -5.417710e-03 -2.808388e-02
-5.221982e-03 2.282217e-02 3.274975e-03
2.217776e-02 -6.146400e-03 5.956604e-03
1.871432e-02 1.336311e-02 1.121918e-03
9.117409e-04 6.915136e-03 -3.124971e-02
1.024253e-02 2.229905e-02 -1.493170e-03
-1.229233e-02 -1.764920e-02 7.176658e-03
-1.810355e-02 -1.904594e-02 -7.418798e-03
-6.044502e-03 9.349072e-03 1.627801e-02
9.072207e-03 -6.165994e-03 1.747810e-02
7.223575e-05 1.866693e-05 1.874169e-02
2.014076e-02 4.562212e-03 -1.765096e-02
2.312867e-02 -9.071787e-03 -1.014806e-02
1.916259e-02 2.326602e-03 -2.296304e-02
7.914739e-03 2.487767e-02 -4.235715e-03
-1.150811e-02 1.666186e-03 1.680492e-02
-1.703565e-02 1.920936e-02 -5.675404e-03
6.615502e-03 -2.281071e-02 2.545928e-03
4.003712e-03 9.322860e-03 1.547114e-02
-4.270492e-03 -8.818735e-03 1.702739e-02
-6.473054e-03 -3.191527e-04 -3.023210e-02
8.233588e-05 6.257814e-05 1.893705e-02
-5.889335e-03 8.715739e-03 1.675130e-02
-1.950088e-02 -3.888938e-03 6.432332e-03
-2.091130e-03 -4.633315e-03 -3.096414e-02
-2.038000e-02 1.152517e-02 3.518242e-03
-1.059674e-02 -4.079879e-03 -3.084828e-02
-1.985095e-02 5.299828e-03 4.249694e-03
1.984730e-03 -2.317269e-02 -1.676243e-02
-1.788867e-03 -2.328322e-02 -1.872694e-02
-2.216501e-02 7.008616e-03 -1.799954e-02
8.909382e-03 2.346266e-03 1.611274e-02
2.715015e-04 3.321146e-04 1.898387e-02
-2.265530e-03 -1.248432e-02 -2.948898e-02
3.519911e-04 1.645290e-02 -2.767834e-02
-1.602817e-02 -1.749484e-02 -2.484253e-03
-2.062843e-02 -1.317074e-02 -3.225177e-04
-2.356784e-02 6.348630e-03 8.371342e-04
-2.924127e-03 1.180984e-02 1.637169e-02
-1.028987e-02 1.328753e-03 1.665720e-02
-7.521933e-03 -1.370412e-02 -2.473457e-02
1.329710e-02 1.609001e-02 -1.969858e-02
2.029371e-03 2.294764e-02 -2.730802e-03
-2.687432e-04 5.434872e-05 1.894258e-02
-1.819565e-02 -1.408508e-02 3.550989e-03
-3.882923e-03 2.376446e-02 4.768260e-03
1.340319e-02 2.284953e-02 -9.001848e-03
5.110800e-03 -9.247430e-03 1.680828e-02
-2.061440e-02 -7.117800e-04 5.053888e-03
9.937317e-03 1.971175e-03 1.721070e-02
-1.688464e-03 2.481363e-02 -2.241516e-04
3.700516e-03 -1.013610e-02 1.643844e-02
1.273719e-02 1.691965e-03 -2.644145e-02
1.049897e-02 -5.859044e-04 1.589385e-02
2.402684e-04 -6.697667e-05 1.879720e-02
-2.109596e-02 -2.530123e-03 7.197468e-03
-2.144485e-04 2.219241e-04 -3.233454e-02
-2.333661e-03 -9.243386e-03 1.664170e-02
-1.148771e-02 2.593751e-04 -2.770922e-02
-7.166426e-05 -1.195098e-03 -3.228892e-02
9.585239e-03 -2.216291e-02 -1.073295e-03
2.291988e-02 1.280784e-02 -8.699565e-03
2.232477e-02 -7.837514e-03 4.228297e-03
-2.448817e-02 5.891147e-03 -2.972306e-03
-2.415243e-02 -3.642753e-03 2.181617e-03
6.039950e-04 -1.145803e-05 1.865185e-02
8.184556e-03 -5.337685e-03 1.670695e-02
-7.665774e-03 -6.517041e-03 1.664422e-02
1.248273e-02 8.599483e-03 -2.766865e-02
1.662244e-03 8.165563e-03 1.662653e-02
1.103010e-02 2.038018e-02 4.335859e-03
2.862146e-03 2.033705e-02 -2.019049e-02
-1.885785e-03 -8.315689e-03 1.664720e-02
1.783347e-03 -8.547292e-03 1.744556e-02
8.865193e-03 4.103353e-03 1.645116e-02
2.076855e-02 -1.168852e-02 5.447407e-03
-3.441805e-04 -8.939044e-06 1.876974e-02
-8.642449e-04 4.681737e-04 1.806254e-02
-1.005658e-02 -1.927090e-02 6.503580e-03
-1.662850e-02 1.508654e-02 4.618467e-03
-3.617868e-03 -2.212998e-02 4.717013e-03
1.235966e-02 -1.639841e-02 -2.012270e-02
1.432359e-02 -2.087792e-02 -9.448505e-03
1.538843e-02 -1.689912e-02 -1.649347e-03
2.402617e-02 -2.387792e-03 -1.683368e-02
6.359781e-03 4.646838e-03 1.593156e-02
8.998029e-03 4.823534e-03 1.684331e-02
-8.171673e-03 -8.428444e-03 1.658923e-02
-5.607821e-04 8.912929e-05 1.813206e-02
-2.067663e-02 -1.411895e-02 -1.090761e-02
6.997301e-03 -6.413106e-03 1.588563e-02
-3.346114e-03 9.751940e-03 1.472179e-02
7.790137e-03 5.682963e-03 1.744247e-02
-3.822048e-03 1.974182e-02 7.368821e-03
6.107107e-03 2.181812e-02 5.645911e-03
1.612973e-02 -9.686241e-03 -2.042714e-02
-1.986661e-02 -9.357072e-04 5.921272e-03
-1.102984e-03 -1.072183e-02 1.641189e-02
-8.757355e-05 1.201711e-03 -3.104892e-02
3.740025e-04 1.322840e-04 1.779076e-02
9.730815e-03 -1.648978e-03 1.628973e-02
-5.077384e-04 -3.838025e-03 -3.240052e-02
-3.849107e-03 9.967978e-03 -2.855062e-02
2.176156e-02 -9.323094e-03 -1.476448e-02
-6.269827e-03 -1.973011e-02 -2.234463e-02
2.164784e-02 -9.555767e-03 3.353935e-03
-2.163886e-03 -2.058653e-02 4.494744e-03
-9.608250e-03 -1.373537e-02 -2.768166e-02
8.919558e-03 -3.527100e-03 1.745640e-02
-2.307970e-03 -7.447063e-03 1.643980e-02
2.901327e-04 1.258492e-04 1.879577e-02
-1.517746e-03 -9.593571e-03 1.679675e-02
2.987983e-03 -9.829874e-03 1.615884e-02
1.007063e-02 8.119277e-04 1.499290e-02
-1.001364e-02 1.451926e-02 -2.526976e-02
-5.557781e-03 2.200734e-02 5.466908e-03
-1.023959e-02 2.253837e-03 1.695078e-02
6.381043e-03 9.146464e-03 1.661155e-02
2.129301e-02 -1.286797e-02 -1.056807e-02
-7.812879e-03 -6.740796e-03 1.712499e-02
-5.683602e-03 -7.240344e-03 1.687867e-02
-1.331176e-04 2.003889e-04 1.951228e-02
-1.622654e-02 1.382269e-02 -2.105283e-02
1.575464e-02 8.976106e-04 -2.451892e-02
-3.564209e-03 7.891121e-03 -3.256740e-02
2.162345e-03 9.277291e-03 1.700628e-02
-2.350233e-02 4.171040e-03 2.587065e-03
-2.416821e-02 2.563731e-03 7.923770e-04
1.191766e-02 -1.735896e-02 6.922202e-03
1.944426e-03 -2.401332e-02 2.522790e-03
-1.260024e-02 -1.757362e-02 6.540758e-03
-1.579109e-02 -1.580833e-02 6.188413e-03
-7.655699e-04 -7.664640e-04 1.856035e-02
-8.849118e-03 1.965160e-02 -2.025127e-02
-9.455355e-03 4.674374e-03 1.617480e-02
-1.065117e-02 1.834589e-02 6.790757e-03
-9.847842e-04 -3.982404e-03 -3.217303e-02
4.934084e-03 -9.666731e-03 1.617648e-02
-2.316358e-02 2.778568e-03 3.058233e-03
2.113950e-02 -8.072202e-03 1.201250e-03
6.295590e-03 -8.852144e-03 1.616697e-02
9.265906e-03 -4.568875e-03 1.722788e-02
-8.975712e-03 -2.183803e-02 3.210305e-03
2.618315e-04 -7.236775e-04 1.943824e-02
6.766205e-03 7.212055e-03 -2.929275e-02
-1.017203e-02 -1.939345e-02 3.973425e-03
-6.623078e-03 2.268233e-02 -1.519834e-02
1.820088e-02 1.041279e-02 -2.439260e-02
9.130639e-03 -7.485079e-04 -2.809229e-02
-2.356076e-02 -6.309844e-03 -5.019069e-03
-2.443079e-02 3.479882e-03 -1.616820e-02
-2.029761e-02 9.070020e-03 -1.901961e-02
-6.342553e-03 -2.284677e-02 -1.604964e-02
-6.193420e-03 -2.088373e-02 6.883726e-03
5.369392e-04 -8.325195e-04 1.873921e-02
-2.110910e-02 -4.669863e-03 5.945090e-03
1.947232e-02 -5.251860e-03 6.449987e-03
6.781163e-03 4.804587e-03 -3.036131e-02
2.238177e-02 5.587793e-04 7.615196e-03
-1.610705e-02 -1.653569e-02 -1.489271e-02
8.175338e-05 5.527710e-03 -2.887273e-02
2.539323e-02 2.187794e-03 -2.353689e-03
-6.825008e-03 8.702970e-03 1.683345e-02
-8.192426e-03 3.535174e-03 1.718930e-02
8.999432e-03 -2.411686e-02 -3.883646e-03
5.517959e-04 -5.423801e-04 1.826360e-02
1.456732e-03 -1.228638e-03 -3.212552e-02
-2.053372e-02 -8.050139e-03 -1.841103e-02
-1.360139e-02 2.344071e-03 -2.809494e-02
2.120352e-02 -6.464218e-03 4.176249e-03
-8.880621e-04 8.893936e-03 1.700285e-02
5.359587e-03 -9.010017e-03 1.647439e-02
1.418815e-02 -7.438641e-06 -2.707992e-02
-5.527129e-03 -1.505566e-02 -2.687645e-02
2.255657e-02 -6.934169e-03 -1.499581e-02
4.402708e-03 8.283095e-03 1.730229e-02
-3.639589e-06 -7.402105e-05 1.885569e-02
1.279272e-03 -7.320394e-03 1.679641e-02
1.576632e-02 -1.949547e-02 -1.117662e-02
3.681499e-03 2.475315e-02 -4.379661e-03
1.371539e-02 1.983529e-02 -1.265133e-02
2.318962e-02 8.851336e-03 3.372109e-03
1.131536e-02 -1.850716e-02 6.440766e-03
1.374435e-02 1.763924e-02 -1.924962e-02
2.897346e-03 1.822460e-02 -2.453559e-02
2.319318e-02 6.417440e-03 2.440159e-03
-6.330299e-04 4.258681e-03 -3.159740e-02
-5.007331e-04 -1.715431e-04 1.766064e-02
1.017055e-03 -4.644433e-04 1.827599e-02
-1.748066e-02 1.027140e-02 9.924011e-03
-1.971589e-02 -8.982149e-03 5.595694e-03
2.169809e-02 -1.085271e-02 2.717688e-03
7.319072e-03 2.084650e-02 5.889963e-03
-2.111318e-03 -8.565216e-03 1.737532e-02
-1.048828e-02 -2.104733e-02 -1.423849e-02
6.042469e-03 2.169603e-02 6.931071e-03
8.945392e-03 -1.888520e-02 4.830141e-03
1.711023e-03 3.224960e-03 -3.195330e-02
-1.691452e-02 -1.827621e-02 -1.622151e-02
6.360371e-06 1.014078e-03 1.843337e-02
1.837412e-04 -8.635712e-03 -2.910553e-02
-2.183790e-02 -1.230936e-02 -1.508206e-02
6.362667e-03 -2.027642e-03 -3.299182e-02
-2.587099e-02 -1.224168e-03 -5.962262e-03
-1.066946e-02 -2.395734e-03 1.673574e-02
3.888686e-03 7.685783e-03 1.705531e-02
-6.655848e-03 8.725280e-03 -2.954864e-02
2.420964e-02 7.109486e-03 -9.766172e-03
-6.368629e-04 -1.435872e-02 -2.892126e-02
1.601088e-02 -1.281658e-02 8.226143e-03
-6.491776e-04 -1.206006e-03 1.862211e-02
9.903102e-03 -3.070707e-03 1.438823e-02
2.218525e-02 -3.172140e-03 5.251973e-03
2.049836e-03 -2.067816e-02 7.146232e-03
8.520215e-03 -1.524906e-02 -2.601412e-02
2.031521e-02 2.559784e-03 -1.623236e-02
-1.788642e-02 -1.328657e-02 5.054863e-03
-2.027526e-02 1.169065e-02 -1.791243e-02
-1.568228e-03 6.696082e-03 -3.305781e-02
-2.076901e-02 -4.155525e-03 5.126235e-03
1.359912e-02 -6.970833e-03 -2.499962e-02
1.550039e-03 -5.763774e-05 1.839650e-02
-1.543810e-02 1.774342e-02 2.650191e-03
6.948360e-03 -7.054269e-03 1.758884e-02
-9.324881e-03 -1.577129e-03 1.643379e-02
2.250820e-03 -1.334994e-03 -3.172396e-02
-5.371213e-03 -2.317005e-02 -7.997980e-03
-1.476127e-02 -3.129968e-04 -2.956534e-02
-8.983151e-03 -5.443241e-03 1.439861e-02
-1.874865e-05 -1.040602e-02 1.703592e-02
-3.720908e-03 1.426634e-02 -2.711636e-02
-1.754295e-02 -1.450720e-02 -3.601674e-03
-2.912743e-04 7.649795e-04 1.884876e-02
-1.270988e-02 1.956661e-02 -1.210373e-03
-2.126636e-02 9.480616e-03 2.908512e-03
7.398535e-03 -2.509069e-03 -3.206707e-02
1.840796e-02 4.758407e-03 1.087050e-02
-1.193921e-02 1.972421e-02 -1.673986e-02
9.076203e-03 4.069006e-03 1.726037e-02
1.036034e-02 1.902760e-02 -2.204004e-02
-2.347548e-03 2.421796e-02 -1.734974e-02
6.050443e-03 2.026952e-02 -2.156614e-02
1.450834e-02 1.143187e-02 -2.038475e-02
-5.406143e-04 1.505578e-04 1.876165e-02
8.884205e-03 2.021113e-02 -2.123336e-02
-9.736001e-03 -3.087150e-03 1.539953e-02
-1.889414e-03 -2.092723e-03 -3.253083e-02
2.766913e-03 8.352018e-03 1.696251e-02
-1.977656e-02 -2.138333e-03 -2.457830e-02
1.892194e-02 -1.778034e-02 -1.239523e-02
5.008428e-03 7.696006e-03 1.602621e-02
2.944028e-03 -4.748392e-03 -3.025569e-02
-1.446509e-02 1.369781e-02 -2.096122e-02
-3.921363e-03 2.371882e-02 -1.478742e-02
4.490729e-04 -3.695537e-04 1.833384e-02
8.690360e-03 -1.058537e-03 1.673542e-02
8.581719e-03 -2.957279e-03 1.656655e-02
9.487931e-03 -2.008606e-02 5.215586e-03
-4.008827e-03 -8.306645e-03 1.586092e-02
7.488729e-03 -3.925876e-03 1.777922e-02
-1.931095e-03 1.392371e-02 -2.895800e-02
2.322959e-02 1.945828e-03 5.740040e-03
8.312010e-03 1.759614e-03 1.702091e-02
-1.020792e-03 -1.087260e-02 1.723253e-02
-9.804014e-03 2.228880e-02 -1.799641e-02
-6.866771e-04 1.478551e-03 1.740884e-02
-1.671542e-02 6.663878e-03 -2.586746e-02
-4.337985e-03 2.548429e-02 -2.337312e-03
6.101716e-03 2.184848e-02 4.684272e-03
-7.725117e-03 2.018251e-02 7.206204e-03
1.438670e-02 -1.147510e-03 -2.842318e-02
-1.111557e-02 9.419336e-04 1.726333e-02
2.381001e-02 -8.897619e-03 -8.368664e-03
9.622349e-03 -6.793666e-04 1.706629e-02
-8.789069e-03 2.126138e-02 3.990049e-03
4.626104e-03 -2.341245e-02 4.745238e-03
-5.297546e-04 -1.659298e-04 1.734824e-02
1.323631e-02 -9.069475e-03 -2.785359e-02
5.704053e-03 6.068075e-03 -2.925254e-02
-1.024085e-02 1.601089e-02 -2.402364e-02
-2.247940e-02 1.175092e-03 6.510609e-03
1.649593e-02 1.972973e-02 -9.512934e-03
-5.995000e-03 7.919538e-03 1.695232e-02
-9.188932e-03 -1.512858e-02 -2.695869e-02
2.303966e-02 -8.597890e-03 -9.231024e-04
1.516083e-04 2.503027e-02 -1.394712e-02
-9.043147e-03 1.032499e-02 -2.925589e-02
-1.669764e-04 1.104371e-05 1.973610e-02
7.744181e-03 -5.997976e-03 1.668006e-02
-3.656812e-03 9.442734e-03 1.616489e-02
-5.246954e-03 -2.188738e-02 4.164613e-03
2.804009e-03 -3.061436e-03 -3.125695e-02
2.019988e-03 -2.276107e-02 -1.904043e-02
1.505880e-02 1.685196e-02 5.304702e-03
-2.312012e-02 -3.743126e-03 -1.829838e-02
-4.993959e-04 1.006705e-02 1.667238e-02
4.660905e-03 7.474808e-03 1.646966e-02
1.556877e-02 1.734283e-02 5.711577e-03
-1.622763e-04 -1.162212e-03 1.760215e-02
-3.250870e-04 1.653092e-05 1.969614e-02
6.350387e-03 -2.121113e-02 6.149461e-03
1.380996e-02 2.811408e-03 -2.809716e-02
1.394062e-02 1.703101e-02 7.014384e-03
-7.087076e-03 4.873414e-03 1.713220e-02
-1.769029e-03 -1.125250e-02 -2.919063e-02
1.633333e-04 -2.120268e-02 8.486110e-03
2.117519e-03 9.323620e-03 -3.089755e-02
-2.497563e-02 1.155925e-03 -1.039251e-02
1.799408e-02 -1.316501e-02 4.700447e-03
5.635831e-03 5.679736e-03 -3.182261e-02
2.692704e-04 1.137478e-04 1.924961e-02
-1.888807e-02 -1.032093e-02 -2.027003e-02
7.607272e-03 3.952614e-03 1.750543e-02
6.335014e-04 9.930130e-03 1.717369e-02
-8.011088e-03 -6.523756e-03 1.703530e-02
3.376704e-03 2.219508e-02 -1.781073e-02
-2.419356e-04 -9.033514e-03 1.744623e-02
-2.420589e-02 -5.182370e-03 -1.360493e-02
-2.014297e-02 7.235086e-03 6.062967e-03
-5.212589e-03 2.453414e-03 -3.065772e-02
-1.517735e-02 1.720752e-02 3.923243e-03
-1.551395e-04 3.191494e-04 1.909875e-02
1.875547e-02 5.657264e-03 -2.324170e-02
-3.229031e-03 -2.016717e-02 8.387515e-03
-5.882557e-03 3.567565e-03 1.681559e-02
-2.352456e-02 1.223649e-02 -8.332410e-03
1.688593e-02 -7.696503e-03 -2.484834e-02
-7.076277e-03 -7.769280e-03 1.660896e-02
1.611514e-02 1.617867e-02 5.522727e-03
-1.386973e-02 -1.367027e-02 6.634007e-03
2.156590e-02 -6.424978e-03 -1.886242e-02
-3.219230e-03 -3.640112e-03 -3.047777e-02
-2.836043e-04 -4.132644e-04 1.854508e-02
1.448145e-02 5.248828e-04 -2.519185e-02
-1.342017e-03 -2.166713e-02 6.680691e-03
1.581185e-02 -1.504850e-02 5.065159e-03
-2.097740e-02 9.616882e-03 4.329053e-03
2.095445e-02 9.644970e-03 4.441248e-03
2.119288e-02 1.379948e-04 4.696401e-03
2.527135e-03 7.617718e-03 1.700716e-02
1.094861e-02 1.842244e-02 -1.653996e-02
2.242329e-02 6.200344e-03 -1.134516e-02
-1.412561e-03 8.820533e-03 1.757770e-02
4.515451e-04 8.837142e-04 1.869605e-02
1.055850e-02 -2.137623e-02 -1.580778e-02
1.789287e-03 1.970752e-05 -3.324255e-02
-1.167785e-02 -2.225529e-02 -8.281288e-03
-3.698711e-03 -1.003834e-03 -3.211318e-02
-7.418099e-03 5.097329e-03 1.656898e-02
7.364240e-03 1.480033e-02 -2.611680e-02
2.230060e-03 -2.166628e-02 5.869709e-03
-1.238961e-02 -5.329012e-03 -2.890160e-02
-9.608947e-04 1.158053e-03 -2.927433e-02
-7.701894e-03 4.016338e-03 1.573948e-02
-1.269726e-03 2.428299e-04 1.894793e-02
-1.551849e-03 5.527269e-04 -3.224590e-02
-1.451189e-02 1.344991e-02 6.026405e-03
7.003074e-03 -3.308310e-03 1.712305e-02
8.567067e-03 -1.177808e-02 -2.747514e-02
-2.347497e-03 -8.744689e-03 1.694924e-02
-2.173357e-03 1.725491e-03 -2.938489e-02
-4.479391e-03 3.790188e-03 1.632989e-02
-2.095632e-02 1.483908e-02 -6.908017e-03
-1.735097e-02 1.837211e-02 -1.454296e-02
1.637529e-03 9.500891e-03 1.673358e-02
-6.142787e-05 -2.003788e-04 1.876575e-02
1.213123e-04 -1.980287e-02 6.261251e-03
-1.227487e-02 1.776844e-02 8.151423e-03
2.396640e-02 -1.175929e-03 1.750467e-03
1.011573e-03 -8.467975e-03 1.635934e-02
4.792812e-03 -1.939260e-02 -2.320946e-02
-2.153136e-03 8.040053e-03 1.699547e-02
1.739217e-02 8.244177e-03 -2.147172e-02
-4.243320e-03 -7.176638e-03 1.719283e-02
2.127349e-02 -3.486933e-03 6.595624e-03
-4.332645e-03 -6.420299e-03 1.724751e-02
1.470622e-04 7.795553e-04 1.861715e-02
1.326850e-02 -1.867263e-02 4.468629e-03
-1.712775e-02 -1.362437e-02 4.148467e-03
-1.459534e-02 2.024909e-02 -9.409528e-03
-6.303246e-03 2.509454e-02 -9.439831e-04
2.132195e-02 3.098885e-03 7.616038e-03
7.123477e-03 6.671648e-03 1.611187e-02
1.770326e-02 -6.175700e-03 1.001165e-02
-5.600968e-03 7.140167e-03 1.649920e-02
7.674693e-03 3.856228e-03 1.681999e-02
2.342143e-02 -6.415783e-03 -1.898241e-02
-3.195472e-04 -3.646265e-04 1.950635e-02
1.479521e-02 1.905754e-02 -1.748131e-02
-5.953894e-03 6.315047e-03 1.668022e-02
2.552980e-02 -4.320835e-03 -1.070631e-02
-7.616795e-03 2.400845e-03 1.560601e-02
-8.517604e-03 -2.289912e-02 1.157114e-03
7.954061e-05 7.778989e-03 1.609937e-02
1.655031e-03 2.414232e-02 -1.498192e-02
1.426597e-02 1.460841e-02 -2.413851e-02
-8.997246e-03 -1.809160e-03 1.620372e-02
3.736866e-03 -8.823222e-03 1.638089e-02
3.271407e-04 -4.230154e-04 1.936592e-02
-8.525033e-03 3.506911e-03 1.782248e-02
-1.411736e-02 -1.981803e-02 -2.727807e-03
1.625752e-02 -1.576978e-02 5.932601e-03
4.751190e-03 -2.301395e-02 2.141041e-03
-6.454635e-04 -5.430241e-03 -3.371796e-02
-7.966170e-03 -5.190738e-03 1.600688e-02
-9.876022e-03 -1.053240e-02 -2.911777e-02
1.492283e-03 -7.730103e-04 -3.208152e-02
-1.664060e-02 1.941034e-02 -9.811198e-03
2.901455e-03 -1.437044e-02 -2.785888e-02
-5.712915e-04 5.984718e-04 1.852390e-02
-9.578620e-05 3.034971e-04 1.917171e-02
-8.238946e-03 -3.631993e-03 1.681993e-02
-3.352598e-04 -1.338539e-02 -2.798071e-02
6.838714e-03 -1.961247e-02 6.260672e-03
-7.776981e-03 2.069580e-02 4.467047e-03
-1.110198e-02 -2.033094e-02 -1.303816e-03
1.327613e-02 1.540849e-02 8.550196e-03
-8.281277e-03 4.638498e-03 -3.119321e-02
7.608558e-03 2.022442e-02 7.450415e-03
2.012477e-02 2.345608e-03 -1.768633e-02
6.309704e-03 6.484012e-03 1.490818e-02
4.274441e-04 1.440024e-04 1.865441e-02
-4.242776e-03 1.049147e-02 -2.773558e-02
8.851864e-03 -2.441073e-03 1.734471e-02
8.065050e-03 2.412636e-03 1.779411e-02
-2.469887e-02 6.283411e-03 -3.780407e-03
1.993048e-03 -1.308631e-02 -2.862655e-02
-2.251020e-04 8.929210e-03 1.753142e-02
6.027326e-03 -7.416839e-03 1.728952e-02
4.605585e-03 1.718960e-02 1.026760e-02
2.337247e-02 1.008876e-02 -1.629138e-02
-1.183705e-02 1.997141e-02 -1.773385e-02
2.700743e-04 -3.696873e-04 1.719463e-02
-2.081895e-02 -6.444274e-03 -2.092472e-02
8.818561e-03 1.189552e-03 1.761028e-02
-2.162279e-02 -1.250840e-03 -2.143434e-02
-2.367064e-02 9.764092e-03 -3.655537e-03
1.648165e-02 4.560484e-03 1.146010e-02
-2.170688e-02 -7.954429e-03 -1.896883e-02
2.262931e-02 7.855645e-03 -1.312583e-02
-9.260859e-04 -2.407165e-02 1.830855e-03
-9.081451e-03 2.003248e-03 1.734022e-02
-4.045908e-03 -2.008578e-02 -2.227523e-02
5.233681e-04 4.084530e-04 1.780862e-02
-1.391383e-02 -1.556154e-02 5.451965e-03
2.569038e-04 -9.116241e-03 1.703639e-02
1.105746e-02 -1.767953e-02 7.756281e-03
8.639808e-03 1.719162e-04 1.716111e-02
-3.055143e-04 -8.949425e-03 -2.995449e-02
1.781936e-02 -7.699811e-03 9.381849e-03
7.778271e-03 -1.939555e-03 1.669261e-02
1.111106e-02 -1.774714e-02 7.553822e-03
1.368429e-02 -2.595947e-05 -2.836668e-02
1.838770e-02 8.326139e-03 9.149926e-03
1.334505e-05 -2.658617e-05 1.940642e-02
6.922137e-03 2.529013e-02 -1.091115e-02
7.068004e-03 4.610060e-03 -3.016477e-02