# vtk DataFile Version 2.0
Electric current density generated by TTH
ASCII
DATASET UNSTRUCTURED_GRID
POINTS 6989 double
2.259456e-05 2.996347e-05 -1.735429e-22
-3.296446e-05 1.662358e-05 7.014896e-07
-3.030303e-06 3.678985e-05 7.020988e-07
-3.629838e-05 6.715902e-06 7.020988e-07
-2.311485e-05 2.878195e-05 7.020594e-07
-3.691426e-05 -1.859277e-07 7.020594e-07
1.158768e-05 3.504865e-05 7.020869e-07
3.167693e-05 -1.893617e-05 -7.032701e-07
3.167693e-05 1.893617e-05 -7.032701e-07
3.205042e-05 1.830651e-05 7.026708e-07
3.205042e-05 -1.830651e-05 7.026708e-07
2.223777e-05 3.022921e-05 -1.735429e-22
2.136029e-05 2.911546e-05 1.134950e-10
2.136029e-05 -2.911546e-05 1.134950e-10
3.627694e-05 -5.118559e-06 6.845493e-07
-2.389904e-05 -2.819545e-05 6.940982e-07
1.266936e-05 -3.381644e-05 -4.245961e-08
-2.731591e-05 -2.491574e-05 6.917757e-07
3.557291e-05 1.011414e-05 6.893710e-07
5.240882e-06 -3.659110e-05 6.934594e-07
4.197708e-06 -3.659200e-05 7.084254e-07
3.477019e-05 9.749668e-06 -3.134484e-08
2.187784e-05 3.049071e-05 -1.735429e-22
-1.685398e-05 -3.216297e-05 4.941829e-07
-2.605802e-05 -2.623079e-05 6.914086e-07
3.608597e-05 -7.655763e-06 -7.050731e-07
-1.521861e-05 -3.351152e-05 7.084079e-07
-1.403783e-05 -3.358652e-05 5.728624e-07
-1.342986e-05 -3.434257e-05 7.063260e-07
3.574255e-05 5.143508e-06 1.623194e-08
3.569613e-05 -7.559777e-06 6.263534e-07
-1.843218e-05 -3.207165e-05 6.873669e-07
1.329141e-05 -3.452332e-05 6.867366e-07
2.151484e-05 3.074793e-05 -1.735429e-22
1.408379e-05 -3.406814e-05 7.070866e-07
2.670097e-05 2.561740e-05 -6.843660e-07
-4.377315e-06 -3.675044e-05 6.822816e-07
-1.632005e-05 -3.307050e-05 7.060729e-07
3.207934e-05 1.658018e-05 -1.681641e-08
3.207934e-05 -1.658018e-05 -1.681641e-08
3.645009e-05 2.041527e-06 -6.362098e-07
1.247148e-05 -3.483511e-05 -6.849789e-07
1.157894e-05 -3.502041e-05 -7.054743e-07
1.247148e-05 3.483511e-05 -6.849789e-07
2.114882e-05 3.100082e-05 -1.735429e-22
1.149973e-05 3.504799e-05 -7.053403e-07
2.784463e-05 2.420650e-05 7.044112e-07
3.011290e-05 -2.160319e-05 6.661331e-07
3.044207e-05 -2.046642e-05 6.952190e-07
3.108622e-05 -2.001763e-05 6.914570e-07
3.011277e-05 2.160666e-05 6.654329e-07
3.044207e-05 2.046642e-05 6.952190e-07
3.108622e-05 2.001763e-05 6.914570e-07
3.494241e-05 1.227672e-05 -6.744204e-07
-6.083751e-06 -3.652755e-05 -6.762012e-07
2.077983e-05 3.124936e-05 -1.735429e-22
-2.069656e-05 -3.072755e-05 -6.706600e-07
-2.120188e-05 -2.995012e-05 -6.976068e-07
3.542014e-05 -1.098372e-05 6.571289e-07
-2.880531e-05 -2.307313e-05 -7.030879e-07
2.550235e-05 -2.686226e-05 6.732738e-07
2.550235e-05 2.686226e-05 6.732738e-07
-2.792998e-05 -2.436001e-05 6.660856e-07
-8.836488e-06 -3.505516e-05 2.380458e-07
3.680532e-05 4.155402e-06 -6.735037e-07
-9.547392e-06 -3.582391e-05 -6.609806e-07
2.040791e-05 3.149350e-05 -1.735429e-22
2.283741e-05 -2.919090e-05 6.652878e-07
2.284599e-05 2.921283e-05 6.565836e-07
-1.373736e-05 -3.443851e-05 -6.598234e-07
8.902345e-06 -3.581950e-05 -7.027916e-07
2.929298e-05 2.263865e-05 -6.790360e-07
3.375504e-05 -1.283955e-05 -7.465534e-08
3.376105e-05 1.283050e-05 -9.463704e-08
3.480474e-05 -9.666257e-06 -1.274197e-07
1.596060e-05 3.244835e-05 -2.631881e-07
1.726386e-05 -3.172122e-05 -7.721577e-08
2.003313e-05 3.173322e-05 -1.735429e-22
7.257861e-06 -3.623081e-05 -6.962288e-07
3.722565e-05 9.319414e-07 -5.719502e-07
3.717949e-05 -1.086322e-06 -6.003803e-07
1.598519e-05 -3.238074e-05 -3.620294e-08
1.530056e-05 -3.275426e-05 2.380717e-07
-2.417380e-06 -3.676866e-05 -7.079511e-07
7.211904e-06 -3.538661e-05 -7.023483e-08
-7.183111e-06 -3.553311e-05 -4.246225e-07
1.466769e-05 3.301429e-05 1.469118e-07
2.401131e-05 -2.716325e-05 4.280326e-07
1.965553e-05 3.196848e-05 -1.735429e-22
2.401131e-05 2.716325e-05 4.280326e-07
-1.762351e-05 -3.241545e-05 7.043055e-07
3.654533e-05 -6.030597e-06 6.733708e-07
-2.786466e-05 -2.435347e-05 -6.831246e-07
1.729435e-05 3.170151e-05 -4.613544e-08
1.658782e-05 3.208700e-05 1.215856e-07
3.642683e-05 -3.821389e-06 6.819282e-07
1.644006e-05 3.315070e-05 -6.841799e-07
-2.646418e-05 -2.457040e-05 4.091558e-08
8.523068e-06 -3.509038e-05 1.001345e-08
1.927517e-05 3.219925e-05 -1.735429e-22
-1.110166e-06 -3.610180e-05 -1.082392e-07
-1.029973e-05 -3.461888e-05 -1.063288e-07
1.880240e-05 -3.187776e-05 6.824099e-07
1.808050e-05 -3.234124e-05 6.691233e-07
3.603244e-05 8.257013e-06 -6.930607e-07
1.277168e-05 3.378787e-05 1.219607e-07
1.359545e-05 3.345498e-05 4.425630e-08
2.879789e-05 -2.336722e-05 -6.564930e-07
2.932842e-05 -2.266604e-05 -6.640446e-07
1.034532e-05 -3.461109e-05 1.380655e-07
1.889210e-05 3.242549e-05 -1.735429e-22
-2.140612e-05 2.909874e-05 1.384449e-07
-3.587066e-05 -4.272541e-06 1.384449e-07
-3.608360e-05 -1.712378e-06 1.384373e-07
-2.871349e-05 2.192018e-05 1.384373e-07
2.825422e-05 -2.388738e-05 6.853880e-07
-3.019670e-05 1.982690e-05 1.376047e-07
-7.024635e-06 3.543446e-05 1.376047e-07
-1.706107e-05 3.184127e-05 1.376047e-07
2.056924e-05 3.010224e-05 6.100505e-07
-1.530704e-05 -3.291746e-05 -4.848304e-07
1.850638e-05 3.264717e-05 -1.735429e-22
3.658052e-05 -8.696933e-07 6.707759e-07
3.658052e-05 8.696933e-07 6.707759e-07
1.776446e-05 3.250757e-05 -6.716266e-07
3.695714e-05 -2.949836e-06 6.608393e-07
3.589167e-05 6.416626e-06 -6.112358e-07
-3.302156e-05 -1.463033e-05 9.857770e-08
-3.156295e-05 1.755704e-05 9.857770e-08
-3.522223e-05 7.991510e-06 9.857770e-08
-1.933812e-05 3.050346e-05 9.395059e-08
-1.189934e-05 3.410096e-05 9.857770e-08
1.811805e-05 3.286426e-05 -1.735429e-22
-4.407698e-06 3.584748e-05 9.857770e-08
-3.091871e-05 -1.866824e-05 9.857770e-08
-3.352089e-05 1.344691e-05 9.857770e-08
-3.548194e-05 -6.742113e-06 9.395059e-08
6.327344e-06 3.560779e-05 2.738068e-07
1.196235e-06 3.615421e-05 2.930479e-07
-3.584607e-05 4.878582e-06 2.985577e-07
-2.396900e-05 2.709665e-05 2.985704e-07
-3.608404e-05 2.427381e-06 2.738074e-07
-2.574208e-05 2.541462e-05 2.930479e-07
1.772718e-05 3.307674e-05 -1.735429e-22
-1.247805e-06 3.615500e-05 2.985577e-07
-3.468512e-05 -1.028831e-05 3.034396e-07
4.773339e-06 3.584921e-05 2.738075e-07
9.705185e-06 3.485043e-05 2.986141e-07
3.589183e-05 9.351646e-06 -6.546597e-07
1.902126e-05 3.173629e-05 -6.850585e-07
1.948696e-05 3.146592e-05 6.819394e-07
1.849129e-05 3.103375e-05 -1.427470e-07
3.547448e-05 6.762884e-06 -6.313287e-08
3.677944e-05 4.304791e-06 6.762674e-07
1.733382e-05 3.328457e-05 -1.735429e-22
-6.301328e-06 -3.613576e-05 6.949659e-07
-3.531742e-05 -7.535934e-06 -5.208477e-08
-3.048322e-05 -1.936192e-05 -5.208477e-08
-1.864633e-05 3.092612e-05 -5.208477e-08
-3.381255e-05 1.268156e-05 -5.208477e-08
-3.502713e-05 8.786975e-06 -5.208477e-08
-5.218755e-06 3.573339e-05 -5.208477e-08
-1.266784e-05 3.381769e-05 -5.208477e-08
-3.115241e-05 1.826576e-05 -5.208477e-08
-3.334024e-05 -1.387583e-05 -5.208477e-08
1.693802e-05 3.348772e-05 -1.735429e-22
2.088485e-05 -2.979968e-05 5.634745e-07
3.597656e-05 8.566162e-06 6.894859e-07
1.650667e-05 -3.314430e-05 -6.772877e-07
2.702276e-05 -2.397991e-05 -1.582870e-07
-2.724075e-05 -2.394805e-05 -4.487241e-07
1.508131e-05 -3.378678e-05 -6.850873e-07
3.676120e-05 -1.757604e-06 -7.083642e-07
-1.125774e-05 -3.535957e-05 6.467717e-07
9.067741e-06 3.583487e-05 -6.934971e-07
9.990769e-06 3.555340e-05 -6.997338e-07
1.653984e-05 3.368616e-05 -1.735429e-22
7.439799e-06 3.620790e-05 -6.934946e-07
6.486223e-06 3.635657e-05 -6.997100e-07
3.895387e-06 3.675853e-05 -6.934936e-07
4.832885e-06 3.659383e-05 -7.024807e-07
2.231018e-06 3.689696e-05 -6.934936e-07
1.266009e-06 3.690890e-05 -6.997126e-07
-1.355641e-06 3.693948e-05 -6.934936e-07
-4.129604e-07 3.691829e-05 -7.012341e-07
-3.041935e-06 3.682089e-05 -6.970253e-07
-3.872543e-06 3.669260e-05 -7.043142e-07
1.613933e-05 3.387987e-05 -1.735429e-22
-3.514240e-05 -1.146188e-05 -6.934936e-07
-3.539727e-05 -1.053106e-05 -6.997126e-07
-3.673479e-05 4.113205e-06 -6.934936e-07
-3.658149e-05 5.066033e-06 -6.997126e-07
-3.316231e-05 -1.632864e-05 -6.934936e-07
-3.347181e-05 -1.552358e-05 -7.043142e-07
-3.458880e-05 -1.303758e-05 -6.934936e-07
-3.418143e-05 -1.381405e-05 -7.069010e-07
-3.236514e-05 -1.781933e-05 -6.970253e-07
-3.189169e-05 -1.852218e-05 -7.059006e-07
1.573656e-05 3.406882e-05 -1.735429e-22
-2.514183e-05 2.709708e-05 -6.934936e-07
-2.440367e-05 2.771878e-05 -6.997126e-07
-3.688309e-05 2.449685e-06 -6.934936e-07
-3.689039e-05 1.538962e-06 -7.009605e-07
-3.300369e-05 1.664691e-05 -6.934936e-07
-3.252721e-05 1.738258e-05 -7.058749e-07
-9.147766e-06 3.581455e-05 -6.934936e-07
-8.277293e-06 3.593980e-05 -7.058636e-07
-3.552774e-05 1.020505e-05 -6.934936e-07
-3.566484e-05 9.338992e-06 -7.069010e-07
1.533157e-05 3.425298e-05 -1.735429e-22
-3.371396e-05 1.511291e-05 -6.970253e-07
-3.399008e-05 1.431172e-05 -7.059006e-07
-2.634015e-05 2.593376e-05 -6.934936e-07
-2.694021e-05 2.524864e-05 -7.009605e-07
-1.077070e-05 3.534152e-05 -6.970253e-07
-1.155599e-05 3.502300e-05 -7.059006e-07
-3.632757e-05 6.733064e-06 -6.970378e-07
-3.611690e-05 7.544087e-06 -7.043142e-07
-2.312305e-05 2.881581e-05 -6.970378e-07
-2.242736e-05 2.932891e-05 -7.011545e-07
1.492443e-05 3.443232e-05 -1.735429e-22
-1.566159e-05 3.348250e-05 -6.934936e-07
-1.641377e-05 3.302682e-05 -7.058636e-07
-1.413319e-05 3.415576e-05 -6.934936e-07
-1.330135e-05 3.440773e-05 -7.050596e-07
-2.811794e-05 2.396680e-05 -6.970378e-07
-2.861528e-05 2.329219e-05 -7.042895e-07
-3.503051e-05 1.179944e-05 -6.934936e-07
-3.467363e-05 1.259196e-05 -7.050596e-07
-3.694571e-05 -2.008939e-07 -6.970378e-07
-3.687179e-05 -1.056649e-06 -7.052884e-07
1.451520e-05 3.460683e-05 -1.735429e-22
-2.953856e-05 -2.222243e-05 -6.934936e-07
-3.051221e-05 -2.086548e-05 -6.934936e-07
-3.093012e-05 -2.010338e-05 -7.050596e-07
-3.586814e-05 -8.935315e-06 -6.934936e-07
-3.597630e-05 -8.058380e-06 -7.068695e-07
3.613794e-05 2.113353e-06 3.440305e-07
-3.290017e-05 -1.713363e-05 6.529375e-07
-3.348860e-05 1.595294e-05 6.529375e-07
2.509955e-05 -2.684007e-05 -7.049133e-07
2.509955e-05 2.684007e-05 -7.049133e-07
1.410392e-05 3.477647e-05 -1.735429e-22
[...]
POINT_DATA 6989
VECTORS 10.000GHz_fone_imag double
4.046224e+10 -2.966037e+10 1.202872e+09
2.247404e+10 4.448608e+10 -3.244914e+08
4.968406e+10 3.571935e+09 -1.391504e+08
8.563996e+09 4.918986e+10 -2.263992e+08
3.877582e+10 3.206653e+10 -7.434746e+07
1.907326e+08 5.049235e+10 -2.351477e+08
4.745971e+10 -1.564826e+10 2.129649e+07
-2.528785e+10 -4.269011e+10 -1.532968e+09
2.529612e+10 -4.269775e+10 1.532550e+09
2.474907e+10 -4.331733e+10 -1.653815e+08
-2.474752e+10 -4.333628e+10 1.617967e+08
3.922011e+10 -3.019917e+10 6.951942e+08
4.369757e+10 -3.013331e+10 5.076572e+08
-4.414523e+10 -3.128185e+10 -5.956723e+08
-6.832188e+09 -5.062487e+10 4.259315e+08
-3.745858e+10 3.291203e+10 -3.210033e+08
-4.983358e+10 -1.730637e+10 2.990629e+08
-3.460166e+10 3.831686e+10 -3.754287e+08
1.407254e+10 -4.859385e+10 1.747179e+08
-5.109134e+10 -6.761398e+09 -8.756642e+08
-5.094773e+10 -4.485524e+09 1.304350e+09
1.403315e+10 -5.183918e+10 -2.787617e+08
3.879911e+10 -2.557581e+10 1.013768e+09
-4.697725e+10 2.409152e+10 8.091835e+08
-3.554180e+10 3.457245e+10 -6.401629e+08
-1.148215e+10 -4.959717e+10 9.594244e+08
-4.679107e+10 1.974825e+10 -7.988632e+08
-4.921842e+10 1.967764e+10 -1.286354e+09
-4.656174e+10 1.807840e+10 3.174761e+08
8.314286e+09 -5.512182e+10 1.089312e+09
-1.103185e+10 -5.189626e+10 -5.958347e+08
-4.385767e+10 2.517683e+10 7.952565e+07
-4.751703e+10 -1.836039e+10 7.505305e+08
3.779160e+10 -2.732979e+10 8.314823e+08
-4.601194e+10 -1.845701e+10 1.062004e+09
3.446223e+10 -3.564614e+10 -6.671918e+08
-4.911256e+10 5.745146e+09 2.026627e+07
-4.555468e+10 2.192246e+10 1.163999e+09
2.494325e+10 -4.789472e+10 -2.132491e+08
-2.500279e+10 -4.815126e+10 -2.351180e+08
2.152252e+09 -5.248807e+10 -4.483219e+08
-4.660720e+10 -1.664073e+10 3.736351e+07
-4.783510e+10 -1.598595e+10 -2.827864e+08
4.703353e+10 -1.741767e+10 -1.931856e+08
4.048142e+10 -2.769346e+10 8.134220e+08
4.775498e+10 -1.548699e+10 3.787832e+08
3.413220e+10 -3.905300e+10 -4.551508e+08
-3.032721e+10 -4.102913e+10 -3.805420e+08
-2.831538e+10 -4.228622e+10 4.570900e+08
-2.701519e+10 -4.206696e+10 -6.912331e+08
2.910961e+10 -4.155100e+10 6.017685e+08
2.824139e+10 -4.224424e+10 -4.492389e+08
2.700253e+10 -4.205671e+10 6.932103e+08
1.521922e+10 -4.641216e+10 -2.922077e+08
-4.809627e+10 9.362222e+09 5.210257e+08
3.942260e+10 -2.732451e+10 7.541400e+08
-4.066168e+10 2.844781e+10 1.187295e+09
-4.193222e+10 2.900161e+10 -9.813455e+07
-1.432393e+10 -4.618682e+10 -9.386647e+08
-3.222053e+10 3.919496e+10 -2.519503e+09
-3.508826e+10 -3.283166e+10 5.781224e+08
3.598758e+10 -3.378358e+10 -5.216144e+08
-3.192913e+10 3.773876e+10 -5.388155e+08
-5.167156e+10 1.368690e+10 -1.772055e+07
5.367561e+09 -4.936980e+10 1.614762e+08
-4.630749e+10 1.343650e+10 -5.179037e+08
3.945005e+10 -2.567198e+10 3.107346e+08
-3.767454e+10 -2.993432e+10 -8.378501e+07
3.797060e+10 -2.906092e+10 -2.785835e+08
-4.703263e+10 1.820718e+10 2.520282e+08
-4.990625e+10 -1.202363e+10 -3.933662e+08
3.134813e+10 -4.073533e+10 -5.140034e+08
-1.854546e+10 -5.069342e+10 2.764740e+08
1.867055e+10 -4.944260e+10 9.756424e+07
-1.604999e+10 -5.042557e+10 -3.127870e+08
4.784828e+10 -2.276581e+10 -3.397990e+08
-4.769653e+10 -2.565833e+10 9.072911e+07
4.093537e+10 -2.581408e+10 2.067851e+09
-4.943116e+10 -9.170256e+09 9.028327e+08
1.534797e+09 -4.851071e+10 4.300690e+08
-1.791972e+09 -4.794813e+10 -5.659197e+08
-4.929746e+10 -2.424312e+10 -1.707464e+08
-4.831683e+10 -2.321939e+10 -1.048047e+09
-5.076771e+10 2.489587e+09 2.930801e+08
-5.409523e+10 -1.117316e+10 -1.127908e+08
-5.191483e+10 1.024909e+10 -7.449211e+08
5.092052e+10 -2.100197e+10 -1.309844e+08
-4.035841e+10 -3.627800e+10 -8.883588e+07
4.139200e+10 -2.461082e+10 1.359391e+08
4.025880e+10 -3.614549e+10 1.296168e+08
-4.195129e+10 2.257726e+10 4.473478e+08
-7.898651e+09 -4.875694e+10 -2.523990e+07
-3.235307e+10 3.759635e+10 8.697757e+08
4.946996e+10 -2.458554e+10 6.184591e+08
4.671644e+10 -2.492739e+10 4.497389e+08
-6.537665e+09 -5.165919e+10 4.160305e+08
4.428023e+10 -2.248323e+10 -3.440473e+08
-3.682624e+10 3.879867e+10 -8.635183e+08
-5.210994e+10 -1.322937e+10 6.487345e+08
4.129359e+10 -2.499195e+10 4.243335e+08
-5.543644e+10 3.001125e+09 -3.366176e+08
-5.118817e+10 1.474244e+10 -1.154340e+09
-4.251187e+10 -2.505221e+10 3.180006e+08
-4.277590e+10 -2.305674e+10 -1.106000e+09
1.023266e+10 -4.834854e+10 2.689421e+08
4.881378e+10 -2.047747e+10 4.741427e+08
5.085539e+10 -1.898594e+10 1.047026e+09
-3.063031e+10 -3.851907e+10 9.540634e+08
-2.955882e+10 -3.899280e+10 2.207907e+08
-5.094253e+10 -1.667994e+10 -5.561336e+06
4.064168e+10 -2.301237e+10 1.138198e+09
4.421775e+10 3.079808e+10 8.005805e+08
-7.425881e+09 5.191419e+10 -1.358390e+08
-4.088321e+09 5.456864e+10 -7.685929e+08
3.165991e+10 4.104020e+10 3.753537e+08
-3.222949e+10 -3.760371e+10 -8.606027e+08
3.138427e+10 4.531409e+10 8.703795e+08
5.178104e+10 1.186140e+10 6.695257e+08
4.753785e+10 2.370029e+10 -6.541936e+08
4.384370e+10 -2.987209e+10 1.192676e+09
-4.757439e+10 2.304788e+10 8.473792e+08
4.114826e+10 -2.296980e+10 -3.883202e+08
-5.273490e+08 -5.272641e+10 -9.229237e+07
1.395441e+09 -4.930215e+10 6.635780e+08
4.298068e+10 -2.435647e+10 5.411774e+08
-4.000341e+09 -4.908085e+10 -3.324589e+08
8.200539e+09 -5.006441e+10 -4.322999e+08
-2.073740e+10 4.745337e+10 2.535682e+08
2.686800e+10 4.668060e+10 6.888076e+08
1.309501e+10 5.299193e+10 9.687156e+08
4.404982e+10 2.763954e+10 8.209066e+08
5.016790e+10 1.852686e+10 1.567025e+08
4.058958e+10 -2.430743e+10 3.393253e+08
5.108625e+10 7.063916e+09 -1.505578e+09
-2.866383e+10 4.504593e+10 1.747239e+08
1.873976e+10 4.970892e+10 -5.566701e+08
-1.069168e+10 5.251664e+10 -1.361706e+09
5.243086e+10 -1.051209e+10 5.747887e+08
5.326212e+10 -1.124027e+09 1.248455e+09
5.896351e+09 5.287185e+10 -2.664644e+08
3.901214e+10 3.617575e+10 -3.033106e+08
3.019691e+09 5.251807e+10 -1.893820e+08
3.639536e+10 3.807746e+10 -5.578978e+08
4.156780e+10 -2.259346e+10 9.646342e+08
5.342672e+10 1.120750e+09 9.251001e+08
-1.567594e+10 5.013282e+10 -5.788714e+08
5.485208e+10 -6.908165e+09 -1.360524e+09
5.120365e+10 -1.297947e+10 -3.363515e+07
1.293658e+10 -4.932950e+10 1.006592e+09
4.361008e+10 -2.673074e+10 3.417620e+08
4.272198e+10 -2.711641e+10 -2.374226e+08
4.724594e+10 -2.777228e+10 5.748816e+08
1.044142e+10 -5.268309e+10 4.422833e+07
5.884502e+09 -4.953960e+10 1.126733e+08
4.389010e+10 -2.195298e+10 1.499837e+09
-5.177698e+10 9.151514e+09 -1.386875e+09
-1.063856e+10 5.241019e+10 -2.089962e+07
-2.849608e+10 4.597294e+10 -2.408791e+07
4.782072e+10 2.969993e+10 3.882777e+08
1.927688e+10 5.049628e+10 1.673184e+08
1.245415e+10 5.158917e+10 -4.557014e+06
5.599418e+10 7.466281e+09 -6.336882e+08
4.991878e+10 1.726070e+10 -2.336581e+08
2.708188e+10 4.653589e+10 1.532332e+08
-2.204251e+10 5.103556e+10 2.546699e+08
4.199589e+10 -2.117314e+10 -5.738900e+08
-4.252491e+10 -3.039721e+10 -6.925004e+08
1.097681e+10 -5.127841e+10 4.855899e+08
-4.396128e+10 -2.133096e+10 -1.503115e+08
-3.621208e+10 -3.953882e+10 -9.943565e+08
-3.474421e+10 3.935546e+10 1.947725e+08
-4.598170e+10 -2.065557e+10 -3.289183e+08
-2.428416e+09 -4.994778e+10 -4.184028e+08
-4.686072e+10 1.550044e+10 4.568418e+08
4.855936e+10 -1.179128e+10 -6.690887e+08
4.819652e+10 -1.411251e+10 8.920088e+08
4.191399e+10 -2.036023e+10 4.748824e+08
5.062203e+10 -1.038119e+10 -8.489367e+08
4.929810e+10 -8.977917e+09 -1.278364e+09
5.069737e+10 -5.814503e+09 -5.072739e+08
4.947805e+10 -6.358944e+09 1.333005e+09
5.159996e+10 -2.547812e+09 -6.750333e+08
4.996218e+10 -1.165156e+09 1.617108e+08
4.944727e+10 2.231193e+09 -2.094401e+08
5.063699e+10 1.253755e+09 -2.587247e+08
4.977955e+10 2.769412e+09 -3.685705e+08
5.032550e+10 5.569445e+09 1.316790e+09
4.338555e+10 -2.030568e+10 -9.328877e+08
-1.600628e+10 4.763100e+10 -3.383924e+08
-1.372228e+10 4.792411e+10 8.429532e+08
5.549635e+09 4.980004e+10 -1.579266e+08
7.189562e+09 4.935709e+10 8.185753e+08
-2.106999e+10 4.523630e+10 1.257845e+09
-2.127371e+10 4.589002e+10 -4.007525e+08
-1.715655e+10 4.803332e+10 1.397152e+08
-1.927601e+10 4.656977e+10 -9.371763e+08
-2.365419e+10 4.561288e+10 -1.007728e+09
-2.465294e+10 4.280126e+10 1.992331e+07
4.270428e+10 -2.043934e+10 -1.093580e+09
3.665965e+10 3.407661e+10 -1.533448e+08
3.761846e+10 3.265663e+10 8.201817e+08
4.298073e+09 5.021198e+10 -1.373403e+08
1.665148e+09 5.066103e+10 -9.073727e+08
2.416110e+10 4.755063e+10 1.575519e+09
2.361392e+10 4.397774e+10 2.003954e+08
4.777438e+10 1.205009e+10 1.369280e+08
4.887937e+10 1.123037e+10 -4.349456e+08
1.421611e+10 4.963550e+10 -3.626345e+08
1.233737e+10 4.940734e+10 -7.143845e+08
4.424382e+10 -1.850419e+10 -3.763633e+08
2.202945e+10 4.533242e+10 -6.940283e+08
1.982340e+10 4.560233e+10 6.398300e+07
3.587312e+10 3.577411e+10 -3.231630e+08
3.369524e+10 3.654594e+10 -6.752111e+08
4.847915e+10 1.386402e+10 -7.066820e+08
4.698382e+10 1.574190e+10 1.442890e+08
7.769021e+09 4.929568e+10 8.752390e+08
1.062685e+10 4.876132e+10 -1.353406e+09
3.780178e+10 3.226571e+10 9.309707e+08
3.927329e+10 3.025323e+10 4.409851e+07
4.364450e+10 -1.957395e+10 4.127643e+08
4.522596e+10 2.080379e+10 -1.405048e+09
4.502786e+10 2.227899e+10 4.485019e+08
4.526452e+10 2.014493e+10 -2.195764e+08
4.690822e+10 1.826140e+10 4.523637e+08
3.407007e+10 3.768680e+10 -4.284101e+08
3.157902e+10 3.886480e+10 -1.964313e+08
1.684269e+10 4.876060e+10 1.110260e+08
1.816779e+10 4.812121e+10 1.316200e+08
1.405991e+09 5.011032e+10 -6.322968e+08
-1.305645e+09 5.001151e+10 3.741773e+08
4.412201e+10 -1.830758e+10 -6.336933e+08
-2.988953e+10 4.062851e+10 -1.562546e+09
-2.911402e+10 4.004836e+10 -1.679941e+08
-2.758351e+10 4.179906e+10 5.255817e+08
-1.220727e+10 4.954660e+10 8.739211e+08
-1.046411e+10 5.002284e+10 6.864268e+08
2.124079e+09 -5.275395e+10 1.239627e+09
-2.453091e+10 4.536207e+10 -3.133810e+08
2.225381e+10 4.539746e+10 1.673538e+08
-3.798339e+10 -3.525558e+10 1.558140e+09
3.838227e+10 -3.508985e+10 -1.542834e+09
4.446532e+10 -1.927979e+10 -1.035153e+08
-4.916259e+10 1.286859e+08 -2.979339e+08
2.748902e+10 4.285129e+10 8.823875e+08
2.752060e+10 4.171125e+10 -7.124282e+08
2.897974e+10 4.028719e+10 1.594643e+09
3.243751e+10 4.180855e+10 -1.022713e+08
-8.339703e+09 4.947540e+10 7.036919e+08
-6.722058e+09 4.921273e+10 -5.044689e+08
4.262972e+10 2.895254e+10 -3.563033e+07
4.115228e+10 2.853098e+10 1.184356e+09
-3.764856e+09 5.026669e+10 -5.334906e+08
4.434180e+10 -1.660577e+10 2.885023e+08
-5.429315e+09 5.054635e+10 1.006220e+09
4.999799e+10 8.842492e+09 4.007705e+08
4.914643e+10 7.903256e+09 1.435379e+09
4.424033e+10 2.488291e+10 -4.146254e+08
4.290787e+10 2.504375e+10 -1.488501e+09
-4.846270e+10 -1.420578e+10 1.293159e+09
-3.550715e+10 -3.418462e+10 -1.898758e+09
3.436576e+10 -3.479793e+10 -8.954646e+08
-5.444822e+10 3.488267e+09 9.922282e+07
-5.343889e+10 -8.006811e+09 9.896385e+08
4.398919e+10 -1.691593e+10 5.381238e+08
-4.552421e+10 -2.986314e+10 -3.768577e+08
-4.522837e+10 2.990340e+10 -1.601075e+08
-3.388096e+10 4.279509e+10 1.065757e+09
-4.889259e+10 5.704330e+09 8.423293e+07
-4.099013e+10 3.301543e+10 3.364292e+08
-4.924891e+10 5.649125e+09 1.442614e+09
-5.199618e+10 -1.716087e+10 -8.427469e+08
-3.012487e+09 5.221495e+10 -6.558245e+08
3.448395e+10 4.246133e+10 -1.240102e+09
4.400068e+10 2.901828e+10 6.478669e+08
4.588386e+10 -1.665380e+10 -1.086558e+09
-8.358656e+09 5.381881e+10 -1.893841e+09
5.176347e+10 -1.676455e+10 -2.944799e+07
-1.951215e+10 5.185787e+10 -1.786815e+08
5.515082e+10 4.187187e+09 1.093308e+08
-2.687647e+10 4.921419e+10 -6.437712e+08
2.455731e+10 5.409264e+10 -9.033767e+08
1.648406e+10 5.111880e+10 -1.492086e+09
5.284156e+10 1.566445e+10 1.397314e+09
3.569089e+10 4.139858e+10 -9.659414e+08
-2.336190e+10 4.882313e+10 -1.200786e+09
4.474732e+10 -1.566898e+10 3.640400e+08
5.145240e+10 1.277410e+10 1.076810e+09
2.461997e+10 4.816092e+10 -7.119776e+08
5.140985e+10 2.136173e+10 8.976965e+08
-2.477842e+08 5.424904e+10 -2.279262e+08
4.339877e+10 3.529799e+10 7.780282e+07
4.905825e+10 2.304496e+10 -3.338992e+08
-3.195748e+10 4.620390e+10 8.142703e+07
-1.288943e+10 5.221954e+10 6.341125e+08
1.443975e+10 5.194959e+10 1.654108e+08
9.825287e+09 5.504748e+10 -4.086354e+06
4.597822e+10 -1.427193e+10 1.394602e+09
-3.225232e+10 4.331537e+10 -9.736731e+08
3.169329e+10 4.307120e+10 7.922714e+08
4.745844e+10 2.230998e+10 7.562155e+07
5.093709e+10 1.303174e+10 -3.691100e+07
-2.130216e+10 -4.836333e+10 2.799951e+08
2.305524e+10 -4.739763e+10 -1.206404e+09
4.890093e+10 3.578447e+09 -5.929980e+08
8.338510e+09 4.804057e+10 1.274446e+09
4.741443e+10 1.360975e+10 5.197425e+08
4.636005e+10 -1.493359e+10 6.705560e+08
4.532187e+10 -1.427391e+10 4.479423e+08
3.770285e+10 3.092846e+10 1.294933e+09
1.276263e+09 4.886207e+10 -7.264826e+08
4.418066e+10 -3.026610e+10 -1.468542e+09
-3.435234e+10 -3.769679e+10 -3.515819e+08
-4.678643e+10 -1.892948e+10 1.221048e+07
4.619798e+10 -1.826492e+10 -5.543265e+08
3.854797e+09 -5.243685e+10 -1.464124e+09
1.723416e+10 -5.295119e+10 3.150908e+08
-5.508406e+10 -3.163754e+09 -1.501435e+09
-3.580713e+10 4.252202e+10 5.388014e+08
4.565040e+10 -1.432947e+10 -7.558305e+08
-4.339458e+10 3.160763e+10 -2.399796e+08
-1.181563e+10 -5.194296e+10 -2.665824e+08
-3.615858e+10 3.777313e+10 2.836286e+08
-5.200025e+10 1.065639e+10 2.867788e+08
4.591461e+10 -2.118168e+10 -6.923483e+08
-7.762115e+09 -5.340345e+10 5.417196e+08
-1.643497e+10 -5.199487e+10 1.058510e+09
-3.716789e+10 -4.034287e+10 4.081407e+08
-5.284531e+10 -6.978151e+09 5.421905e+08
-3.915559e+10 -3.360708e+10 -1.138771e+09
4.513149e+10 -1.401304e+10 -1.095903e+09
3.897486e+10 -3.360509e+10 1.020753e+09
-5.061905e+10 2.428912e+09 4.145879e+08
-1.715558e+10 -5.012385e+10 -1.703247e+08
-1.985908e+10 -4.837999e+10 -1.737021e+07
1.999571e+10 -4.662621e+10 -1.784561e+09
-5.093595e+10 -1.066786e+10 2.720239e+08
3.195514e+10 -4.157826e+10 -2.334578e+09
-5.285304e+10 -1.293883e+09 -4.331884e+08
-5.019797e+10 1.826536e+10 3.541750e+08
-4.597598e+10 2.682475e+10 -2.175985e+07
4.761379e+10 -1.334465e+10 2.484980e+08
-4.994578e+10 -5.724593e+09 -1.562416e+09
4.525758e+10 -2.787211e+10 9.451105e+07
1.847136e+10 -4.562666e+10 -6.755840e+08
-5.145059e+10 -7.601299e+09 -4.641674e+08
-3.608782e+10 3.200410e+10 1.310365e+09
1.047601e+10 -4.879351e+10 1.017545e+09
1.183764e+10 -5.142552e+10 3.935089e+08
-4.479804e+10 1.797341e+10 -2.625126e+08
-3.016485e+10 3.801568e+10 -1.057617e+09
-4.429265e+10 -2.155313e+10 -5.572407e+08
4.624917e+10 -1.229605e+10 2.016761e+08
-5.124657e+10 4.605153e+09 9.991245e+08
-2.935207e+10 -3.878214e+10 -3.175264e+08
3.419836e+10 -4.049922e+10 6.748484e+08
2.925230e+10 -3.865301e+10 -1.668043e+08
-5.175766e+10 -1.276791e+10 -3.227974e+08
-5.326795e+10 -2.439607e+08 -1.421287e+08
-5.034260e+10 1.701963e+10 -5.539917e+07
4.341884e+10 -2.451578e+10 -1.014757e+09
-2.144473e+10 4.562702e+10 -5.955358e+08
4.376390e+10 2.493007e+10 -4.920784e+08
4.604522e+10 -1.165992e+10 -4.022102e+08
2.357068e+10 4.206628e+10 2.772724e+07
-2.491566e+10 4.117151e+10 3.046562e+08
4.559723e+10 1.530676e+10 6.160021e+08
4.954592e+10 8.476818e+09 4.779501e+08
4.768232e+10 5.561844e+09 2.126796e+07
1.827261e+10 4.502802e+10 1.101653e+08
2.601647e+10 4.246123e+10 3.200598e+08
4.057711e+10 2.791592e+10 -3.974694e+07
9.451674e+09 4.697135e+10 5.963301e+08
-8.212821e+09 4.768743e+10 -6.151232e+08
4.806727e+10 -1.221256e+10 5.649352e+08
-3.116884e+10 -3.827959e+10 -4.146256e+08
-4.764208e+10 3.067350e+10 1.741269e+07
-3.215164e+09 -5.110524e+10 -2.955787e+08
-2.956807e+10 3.932237e+10 -4.882811e+08
-2.831270e+10 4.077718e+10 -2.529224e+08
1.196607e+10 -5.096000e+10 7.013294e+08
-4.798078e+10 -8.832677e+09 5.041281e+08
2.364434e+10 -4.699512e+10 1.024241e+09
-2.409015e+10 -4.709661e+10 -1.472222e+08
-4.597922e+10 -2.107144e+10 -1.031708e+09
4.634424e+10 -1.153987e+10 3.125613e+08
-4.864447e+10 2.431775e+10 8.155311e+08
-4.896632e+10 -4.168609e+09 4.584301e+08
-5.333890e+10 -3.486628e+09 4.194589e+08
-4.880435e+10 -2.113727e+10 -6.785993e+08
-4.761025e+10 2.601792e+10 -7.979715e+07
-4.643527e+10 -2.904412e+10 1.966375e+09
2.206395e+09 5.381187e+10 -3.075455e+08
4.010299e+10 3.542033e+10 4.051200e+08
-4.163276e+10 -2.668556e+10 -2.344846e+08
4.203171e+10 -2.631316e+10 -7.082329e+08
4.739817e+10 -9.556029e+09 3.858170e+08
5.122696e+10 -1.479345e+10 -8.232682e+07
-3.510509e+10 3.307371e+10 -2.555886e+08
4.535733e+10 -1.749633e+10 1.164316e+08
1.790815e+10 4.717368e+10 4.689346e+08
-1.961699e+10 4.550984e+10 -6.065279e+08
4.665634e+10 1.735766e+10 1.023105e+08
-2.698592e+10 4.223250e+10 8.607834e+07
-1.039215e+10 4.768175e+10 1.627784e+09
1.218107e+10 4.747341e+10 -1.662090e+09
-4.250725e+10 -2.563395e+10 -1.197929e+09
4.689378e+10 -1.032339e+10 -1.561256e+08
-3.992147e+10 3.463394e+10 -3.951530e+08
-2.470316e+10 4.788765e+10 -1.981913e+08
2.453544e+10 4.830950e+10 7.177936e+08
5.208514e+10 1.445796e+10 1.119763e+07
8.366105e+09 5.308923e+10 1.493156e+08
-2.431168e+10 4.751367e+10 -4.014453e+08
2.202144e+10 4.705186e+10 6.622704e+08
5.425904e+10 2.955719e+09 4.860784e+07
-7.839341e+09 4.840194e+10 -2.618665e+08
2.544381e+10 3.883736e+10 2.688569e+08
4.668421e+10 -1.010565e+10 3.530486e+08
4.292255e+10 2.341033e+10 2.498874e+08
4.124067e+10 2.636048e+10 6.136884e+08
4.802771e+10 9.144931e+09 -2.498754e+08
-4.918245e+10 1.975102e+10 -6.046467e+08
-4.724434e+10 -1.030763e+10 6.473003e+08
2.974279e+10 3.931520e+10 7.915918e+08
-4.172337e+09 4.890953e+10 -1.544167e+07
-4.527694e+10 -1.328847e+10 -6.526398e+07
-4.696290e+10 -1.689687e+10 -6.093527e+08
-2.251522e+09 4.677680e+10 5.008381e+08
4.668719e+10 -7.649568e+09 -1.660281e+08
-4.734449e+10 -1.147818e+10 2.491968e+08
3.807259e+10 2.816700e+10 -6.196080e+08
2.958363e+10 3.928832e+10 6.228613e+08
-6.082612e+09 4.719541e+10 -2.685108e+08
3.360004e+10 3.726869e+10 4.427572e+08
3.154058e+10 3.706426e+10 7.778086e+07
3.787534e+10 3.503903e+10 3.254373e+08
5.832991e+09 5.121469e+10 3.271858e+08
-1.645741e+10 4.727158e+10 3.420392e+08
-1.719377e+10 4.586528e+10 -1.734161e+07
4.811747e+10 -9.513597e+09 -2.555342e+08
4.956146e+10 5.354168e+08 -9.831853e+08
4.887992e+10 -2.996104e+09 -4.260009e+08
5.092610e+10 -4.376900e+09 -9.268984e+08
4.988141e+10 -1.048834e+10 -2.336127e+07
4.934105e+10 -1.199433e+10 -9.551809e+08
-2.412751e+10 -4.354736e+10 -3.396623e+08
2.417326e+10 -4.379085e+10 2.955906e+08
-4.940252e+10 2.273266e+10 1.789935e+08
-1.739430e+10 5.269405e+10 5.106897e+08
3.894019e+10 3.773886e+10 -2.336119e+08
4.672191e+10 -6.808276e+09 7.974033e+08
1.932834e+09 5.561430e+10 -8.780887e+07
3.762737e+10 4.064082e+10 2.004168e+08
4.861017e+09 5.400743e+10 -2.381583e+08
5.289089e+10 -4.106048e+08 -3.142103e+07
5.369446e+10 -3.956277e+09 -7.947630e+08
5.402337e+10 -4.634019e+09 -8.906767e+08
5.345456e+10 -1.111707e+10 -8.119037e+08
5.173111e+10 -1.204875e+10 2.367030e+08
4.303831e+10 -3.424821e+10 2.615936e+08
-4.216453e+10 -3.355418e+10 -3.271979e+08
4.669381e+10 -8.419854e+09 8.963361e+08
1.503800e+10 -4.635549e+10 5.939165e+08
4.223977e+10 -2.763046e+10 -9.458425e+08
-4.113721e+10 -2.623045e+10 -8.543366e+07
-4.970395e+10 -3.113465e+09 2.273781e+08
4.671511e+10 2.729046e+10 3.460137e+08
5.339776e+10 8.522068e+09 -3.933101e+08
2.721024e+10 4.546436e+10 5.616035e+08
2.308388e+10 -4.317647e+10 -1.640983e+08
-2.308116e+10 -4.325708e+10 1.271800e+08
4.591450e+10 -1.911548e+10 2.790441e+08
4.964914e+10 -5.427797e+09 4.459735e+08
-5.339950e+10 -9.202244e+09 -4.756192e+08
-5.171054e+10 -2.050375e+10 1.365481e+09
-4.789694e+10 1.042932e+08 6.603896e+08
-4.600684e+10 1.553701e+10 7.989386e+07
2.959965e+10 -4.530095e+10 5.787723e+08
-2.961033e+10 -4.529911e+10 -5.586062e+08
-4.806473e+10 -2.324064e+10 3.414292e+08
-3.074754e+10 3.742772e+10 -1.796355e+08
5.433964e+09 -5.343883e+10 -5.656312e+08
1.412986e+10 4.769819e+10 1.262160e+07
4.789311e+10 -7.049530e+09 -6.837975e+08
-1.187562e+10 4.855364e+10 -1.316356e+08
4.549177e+10 1.926886e+10 3.509180e+08
4.511664e+10 -2.211295e+10 5.938026e+07
-5.062016e+10 1.211920e+10 1.078881e+08
-3.337845e+10 -3.612000e+10 -2.921464e+07
2.408408e+10 -4.177423e+10 6.264490e+08
-2.407308e+10 -4.175617e+10 -6.281531e+08
3.412978e+10 3.427079e+10 4.105996e+07