# vtk DataFile Version 2.0
Electric current density generated by TTH
ASCII
DATASET UNSTRUCTURED_GRID
POINTS 2002 double
-1.197504e-19 -1.642864e-05 -5.160748e-22
-4.880969e-07 -1.295598e-05 -1.612355e-06
-5.762139e-06 1.446633e-05 1.696156e-06
-1.697600e-06 1.388887e-05 -2.081132e-06
-1.225782e-05 -1.572188e-06 -7.646955e-07
-2.006955e-06 1.206325e-05 -2.466775e-07
4.364543e-06 1.564563e-05 8.647841e-07
-8.267964e-06 -1.168801e-05 -2.107030e-06
4.501089e-07 -1.626951e-05 -7.880308e-07
-2.118184e-06 1.351254e-05 2.006187e-06
7.834071e-06 -9.628176e-06 -8.919440e-07
9.919368e-07 -1.639867e-05 -5.160748e-22
7.834071e-06 9.628176e-06 -8.919440e-07
1.336518e-05 -4.638142e-06 2.099796e-06
1.336518e-05 4.638142e-06 2.099796e-06
3.013983e-06 1.222769e-05 1.205742e-06
-1.479412e-06 -1.215856e-05 -3.751114e-07
-1.369495e-05 -5.349137e-06 -2.072314e-06
-1.545412e-05 -5.144622e-06 -7.570696e-07
-1.347567e-06 -1.260526e-05 -1.317246e-06
-1.167871e-05 -6.515778e-06 -1.881617e-06
-1.041617e-05 -1.249428e-05 -8.102030e-07
1.980254e-06 -1.630886e-05 -5.160748e-22
-1.993140e-07 1.317396e-05 -1.768039e-06
-1.049630e-05 -9.399442e-06 2.094242e-06
-5.196297e-06 1.541813e-05 8.015606e-07
2.654051e-06 -1.604484e-05 -8.192096e-07
-7.702033e-06 -9.571263e-06 5.416128e-07
1.056930e-05 1.091037e-05 -1.919612e-06
1.056930e-05 -1.091037e-05 -1.919612e-06
-1.245491e-05 1.195273e-06 -1.079537e-06
-5.178542e-06 -1.430495e-05 1.908985e-06
-1.300590e-05 2.997403e-08 1.645779e-06
2.961346e-06 -1.615954e-05 -5.160748e-22
-1.450479e-05 -5.929330e-06 1.619167e-06
6.415045e-06 -1.186415e-05 -1.934876e-06
6.397021e-06 1.186961e-05 -1.933252e-06
-2.477187e-06 1.484124e-05 -1.978394e-06
7.711934e-06 -1.027010e-05 1.501345e-06
7.711934e-06 1.027010e-05 1.501345e-06
-2.618271e-06 1.516455e-05 1.816710e-06
1.142924e-05 -1.063363e-05 1.666491e-06
1.142924e-05 1.063363e-05 1.666491e-06
-9.478570e-06 -7.717410e-06 -1.882422e-07
3.931632e-06 -1.595126e-05 -5.160748e-22
5.487802e-06 -1.328515e-05 2.106384e-06
-6.716789e-06 1.020648e-05 1.256573e-07
-1.102332e-05 -7.024234e-06 -1.695821e-06
-1.382169e-05 -2.070186e-06 -2.078476e-06
4.029935e-06 1.432057e-05 2.032576e-06
-8.008648e-06 1.419968e-05 -7.182695e-07
-3.490331e-06 -1.347087e-05 2.067569e-06
-4.554849e-07 1.226588e-05 4.982635e-07
9.013806e-06 1.356605e-05 7.579008e-07
1.180605e-05 8.414382e-06 2.099660e-06
4.887572e-06 -1.568477e-05 -5.160748e-22
1.180605e-05 -8.414382e-06 2.099660e-06
1.145864e-05 1.020052e-05 -1.843943e-06
1.145864e-05 -1.020052e-05 -1.843943e-06
-1.449030e-05 -1.762983e-06 2.088940e-06
-1.351123e-05 7.670630e-06 1.721312e-06
-1.189445e-05 4.024865e-06 -1.151366e-06
-7.584240e-06 1.252357e-05 2.082679e-06
-8.413389e-06 -8.895602e-06 3.512334e-07
-1.013234e-05 1.270687e-05 -8.443989e-07
-7.931051e-06 -1.058687e-05 -1.801085e-06
5.825677e-06 -1.536105e-05 -5.160748e-22
-1.411019e-05 3.811624e-06 2.086375e-06
2.683749e-06 1.200195e-05 -5.882264e-07
4.813488e-07 -1.224249e-05 -3.951203e-07
-5.029576e-06 1.267299e-05 -1.991877e-06
-1.541769e-05 -9.510283e-07 -1.781321e-06
8.960504e-06 1.241367e-05 1.860937e-06
8.975019e-06 -1.240197e-05 1.861456e-06
5.454942e-06 -1.477586e-05 1.548379e-06
-1.225563e-05 -1.062682e-06 5.993668e-07
-1.043965e-05 -6.519809e-06 -6.214207e-07
6.742526e-06 -1.498128e-05 -5.160748e-22
1.409303e-05 -8.173215e-06 7.475835e-07
1.409303e-05 8.173215e-06 7.475835e-07
-7.165833e-06 -1.351682e-05 1.866730e-06
-1.271711e-05 -6.336732e-06 2.103993e-06
-1.178196e-05 -3.680229e-06 7.253520e-07
1.383169e-05 7.013437e-06 -1.741153e-06
1.383169e-05 -7.013437e-06 -1.741153e-06
-9.667676e-06 -1.313875e-05 6.905027e-07
1.336243e-05 7.942231e-07 -1.887926e-06
1.337060e-05 -7.588356e-07 -1.890936e-06
7.634771e-06 -1.454684e-05 -5.160748e-22
-1.439360e-05 -7.546895e-06 8.442291e-07
5.157698e-06 -1.252686e-05 1.959527e-06
-6.718395e-06 -1.078889e-05 -1.356989e-06
-4.196796e-06 -1.153928e-05 5.161201e-07
1.112398e-05 -5.444332e-06 8.297112e-07
1.112398e-05 5.444332e-06 8.297112e-07
1.080996e-05 7.839731e-06 1.871475e-06
1.080996e-05 -7.839731e-06 1.871475e-06
-1.622375e-05 1.608328e-06 -7.159544e-07
1.943847e-06 -1.564743e-05 1.532446e-06
8.499158e-06 -1.405933e-05 -5.160748e-22
-4.206036e-06 1.501478e-05 1.680404e-06
-1.252789e-05 3.377524e-06 1.620734e-06
-1.473689e-05 6.828848e-06 8.665491e-07
6.556691e-06 -1.430644e-05 1.560526e-06
-1.542970e-05 -5.261955e-06 7.187400e-07
-1.154255e-05 4.253213e-06 5.980449e-07
-1.248131e-05 -4.205123e-06 -1.764910e-06
-1.094229e-05 -6.076129e-06 1.086184e-06
-1.136582e-05 -5.465379e-06 -1.231034e-06
-8.209360e-06 -1.405938e-05 -7.757125e-07
9.332533e-06 -1.352051e-05 -5.160748e-22
4.048627e-07 -1.627538e-05 7.763172e-07
9.400998e-06 7.897599e-06 5.133440e-07
9.400998e-06 -7.897599e-06 5.133440e-07
5.882238e-06 1.442064e-05 -1.694291e-06
-1.834605e-06 -1.523171e-05 -1.843585e-06
-1.047309e-05 1.137666e-05 1.770903e-06
-5.498313e-07 -1.568641e-05 1.597037e-06
6.385274e-07 1.572437e-05 1.560552e-06
-1.369969e-05 8.857508e-06 6.864096e-07
3.574826e-06 1.532179e-05 -1.564200e-06
1.013185e-05 -1.293236e-05 -5.160748e-22
-2.227854e-06 -1.612867e-05 -7.728026e-07
2.515669e-06 1.610779e-05 -7.165642e-07
1.059784e-06 -1.368673e-05 -2.021602e-06
5.839640e-06 -1.096710e-05 9.177082e-07
-9.466902e-07 1.544251e-05 1.765602e-06
-7.480174e-06 -1.443596e-05 8.286944e-07
8.168240e-07 -1.515556e-05 -1.925345e-06
-8.024953e-06 -1.307594e-05 -1.843417e-06
-1.195645e-05 -2.620999e-06 -3.286384e-07
-8.962770e-07 1.223916e-05 -4.882826e-07
1.089421e-05 -1.229702e-05 -5.160748e-22
1.412595e-05 -5.538407e-06 -1.927413e-06
1.412595e-05 5.538407e-06 -1.927413e-06
1.223973e-05 -3.637941e-06 -1.424356e-06
1.223973e-05 3.637941e-06 -1.424356e-06
-9.091625e-06 1.271656e-05 -1.649761e-06
1.015543e-05 -7.048240e-06 -7.734240e-07
1.015543e-05 7.048240e-06 -7.734240e-07
1.773026e-06 1.223063e-05 7.653291e-07
7.812203e-07 -1.255014e-05 1.177690e-06
-1.318127e-05 -8.166190e-06 1.742720e-06
1.161681e-05 -1.161681e-05 -5.160748e-22
-1.137451e-05 4.764226e-06 -6.934867e-07
-1.561776e-05 9.297868e-07 1.639247e-06
-1.258800e-05 1.031144e-05 -7.968108e-07
-1.587557e-05 3.570688e-06 -7.968097e-07
1.150684e-05 -4.581504e-06 8.310300e-07
1.150684e-05 4.581504e-06 8.310300e-07
1.624818e-05 1.448371e-06 6.895865e-07
1.624818e-05 -1.448371e-06 6.895865e-07
-6.244363e-06 -1.507523e-05 -6.758601e-07
-4.381717e-06 -1.571798e-05 -6.758601e-07
1.229702e-05 -1.089421e-05 -5.160748e-22
-2.866751e-06 -1.203691e-05 -8.029885e-07
6.573596e-06 1.029615e-05 6.838232e-08
6.596776e-06 -1.028403e-05 1.196281e-07
-1.182522e-05 3.295617e-06 -5.045122e-07
6.848350e-06 1.091570e-05 1.542404e-06
-4.972278e-06 -1.354226e-05 -2.104436e-06
-4.928698e-07 1.631111e-05 6.721593e-07
1.034334e-05 -6.497190e-06 -1.982598e-08
1.034334e-05 6.497190e-06 -1.982598e-08
5.344428e-06 1.536777e-05 -8.007255e-07
1.293236e-05 -1.013185e-05 -5.160748e-22
1.121214e-05 1.180894e-05 7.676482e-07
1.121214e-05 -1.180894e-05 7.676482e-07
-1.532549e-05 -1.235604e-06 1.824691e-06
-1.213858e-05 6.699848e-06 -2.056925e-06
-1.625388e-05 -5.874506e-07 8.153476e-07
3.821552e-06 1.389409e-05 -2.105177e-06
-1.243309e-05 6.498892e-06 2.086641e-06
-8.588642e-06 -1.319144e-05 1.557222e-06
-1.201380e-05 5.073784e-06 1.673419e-06
6.263490e-06 1.422641e-05 1.716064e-06
1.352051e-05 -9.332533e-06 -5.160748e-22
-1.000235e-05 8.169509e-06 1.568451e-06
-1.362732e-05 -7.079949e-06 1.835237e-06
-1.408773e-05 5.576903e-06 -1.936748e-06
1.230795e-05 -5.212658e-06 1.878016e-06
1.230795e-05 5.212658e-06 1.878016e-06
6.827043e-06 -1.092711e-05 1.540879e-06
5.070791e-06 -1.159599e-05 -1.290763e-06
5.128690e-06 1.160219e-05 -1.327317e-06
4.378173e-06 -1.275339e-05 -1.933377e-06
-1.209384e-05 -8.106724e-06 -2.093559e-06
1.405933e-05 -8.499158e-06 -5.160748e-22
-4.416341e-06 -1.229953e-05 -1.693816e-06
-6.390782e-08 -1.565345e-05 -1.632620e-06
9.066893e-06 -1.352484e-05 7.702641e-07
-1.395421e-06 -1.622005e-05 -7.774580e-07
-5.040104e-06 1.150148e-05 1.151923e-06
-9.377146e-06 1.116520e-05 -2.091063e-06
1.699342e-06 1.319501e-05 1.845005e-06
-1.022420e-06 1.554722e-05 -1.689384e-06
-1.307231e-05 2.668209e-06 1.865379e-06
-1.592206e-05 3.513085e-06 7.110996e-07
1.454684e-05 -7.634771e-06 -5.160748e-22
-8.921522e-06 -1.361773e-05 -7.775388e-07
2.709878e-06 -1.196929e-05 -4.894993e-07
1.470698e-05 -7.022159e-06 -7.319408e-07
1.470698e-05 7.022159e-06 -7.319408e-07
-1.052576e-05 -1.118864e-05 -1.832515e-06
-9.595644e-06 -1.242984e-05 -1.591214e-06
2.010223e-06 -1.392997e-05 -2.092468e-06
-1.594439e-05 -3.444818e-06 6.905274e-07
-6.421619e-06 -1.396605e-05 -1.826748e-06
9.722345e-06 -8.372131e-06 -1.488487e-06
1.498128e-05 -6.742526e-06 -5.160748e-22
9.722345e-06 8.372131e-06 -1.488487e-06
1.269913e-05 -9.420019e-06 -1.489870e-06
1.269913e-05 9.420019e-06 -1.489870e-06
-2.547554e-06 1.212643e-05 -8.443276e-07
-1.361880e-05 1.362708e-06 2.009134e-06
-1.105624e-05 5.655122e-06 9.044547e-07
-1.624512e-05 -1.526703e-06 -6.776437e-07
-8.541347e-06 1.284591e-05 1.794204e-06
-8.622410e-06 8.918934e-06 8.761567e-07
-1.217767e-05 -1.079458e-05 7.941654e-07
1.536105e-05 -5.825677e-06 -5.160748e-22
1.286976e-05 8.187975e-06 -1.889684e-06
1.286976e-05 -8.187975e-06 -1.889684e-06
-1.120713e-05 -7.952231e-06 -2.025698e-06
-7.978852e-06 -9.908516e-06 1.371051e-06
-7.124210e-06 1.467765e-05 6.818722e-07
-9.027667e-06 8.305394e-06 4.669315e-07
1.624633e-05 9.055594e-07 -7.983412e-07
1.624633e-05 -9.055594e-07 -7.983412e-07
-3.709488e-06 1.269272e-05 1.798368e-06
3.172317e-06 -1.224906e-05 -1.286835e-06
1.568477e-05 -4.887572e-06 -5.160748e-22
-9.471343e-06 -1.063205e-05 2.105412e-06
8.718446e-06 -8.732139e-06 -7.145421e-07
8.718446e-06 8.732139e-06 -7.145421e-07
-1.463793e-05 -2.708206e-06 -2.029943e-06
-5.392156e-07 -1.234336e-05 7.566748e-07
-3.623159e-06 -1.276267e-05 -1.824112e-06
1.405317e-05 -4.679829e-06 -2.049197e-06
1.405317e-05 4.679829e-06 -2.049197e-06
1.475411e-05 5.580570e-06 1.526258e-06
1.475411e-05 -5.580570e-06 1.526258e-06
1.595126e-05 -3.931632e-06 -5.160748e-22
[...]
POINT_DATA 2002
VECTORS 10.000GHz_fone_imag double
-3.995639e+10 -1.515632e+08 -8.954485e+07
-7.751690e+10 3.618282e+08 -2.112666e+09
3.948370e+10 1.373804e+10 -6.306002e+08
6.549558e+10 5.771695e+09 -2.888075e+08
-8.429826e+09 7.618992e+10 -1.763315e+09
7.052146e+10 1.046252e+10 2.768910e+09
3.550791e+10 -8.728821e+09 -2.164287e+09
-4.789718e+10 2.865791e+10 -1.232637e+09
-3.019902e+10 -1.239952e+09 -7.353011e+08
4.735076e+10 7.550054e+09 -1.577901e+09
-7.206346e+10 -5.465632e+10 5.574526e+09
-3.800875e+10 -3.029431e+09 1.335300e+09
7.045283e+10 -5.835974e+10 3.961973e+09
-2.339740e+10 -4.715432e+10 -1.179311e+09
2.285668e+10 -4.830023e+10 1.167967e+09
7.005699e+10 -1.453452e+10 2.970515e+08
-6.807341e+10 9.131237e+09 -3.849394e+09
-1.878989e+10 5.157143e+10 -3.209917e+08
-1.268911e+10 3.664446e+10 1.608133e+08
-6.382567e+10 7.392533e+09 6.414039e+08
-3.740846e+10 6.638868e+10 1.477728e+08
-2.473185e+10 1.893107e+10 8.781234e+08
-3.640897e+10 -3.987332e+09 9.560785e+08
7.585198e+10 2.541087e+09 -9.597196e+08
-2.964752e+10 3.050148e+10 -1.101844e+09
3.047040e+10 1.161255e+10 1.865533e+09
-3.520408e+10 -5.870258e+09 3.696199e+08
-6.895733e+10 5.451033e+10 2.005847e+09
3.158308e+10 -3.318176e+10 -1.421537e+09
-2.717065e+10 -3.013672e+10 2.392975e+09
8.121713e+09 6.876579e+10 1.557570e+09
-3.774160e+10 1.539684e+10 -6.549419e+08
-3.173838e+09 6.371378e+10 -4.734174e+08
-2.876777e+10 -5.683110e+09 1.202059e+09
-1.608571e+10 3.806980e+10 -4.290350e+08
-4.751663e+10 -2.688034e+10 1.415302e+09
5.928165e+10 -3.576265e+10 -2.420460e+09
4.094886e+10 6.890370e+09 -7.454942e+08
-5.487103e+10 -4.160954e+10 3.367649e+07
6.191316e+10 -5.251537e+10 -3.825525e+09
4.061961e+10 8.794588e+09 -2.021213e+09
-2.625131e+10 -2.834243e+10 -2.510510e+08
2.771909e+10 -3.037783e+10 -8.460300e+08
-4.416780e+10 5.801149e+10 9.570179e+08
-3.114088e+10 -7.825530e+09 -3.712329e+08
-4.519622e+10 -1.787095e+10 1.915545e+09
5.614385e+10 3.927755e+10 -1.827055e+09
-3.040679e+10 5.289368e+10 -2.690780e+08
-1.075974e+10 6.593833e+10 5.384484e+08
3.849758e+10 -1.219245e+10 1.826365e+08
3.022774e+10 1.728300e+10 6.619035e+08
-4.787368e+10 1.610720e+10 2.464908e+09
8.730550e+10 5.502445e+09 -5.711331e+09
3.177048e+10 -2.094291e+10 1.458970e+09
3.686605e+10 -4.350760e+10 -1.170520e+09
-3.150032e+10 -9.703502e+09 3.929374e+09
-2.382107e+10 -3.263403e+10 -1.025307e+09
2.954747e+10 -3.339670e+10 5.536122e+08
-2.477407e+10 -2.880830e+10 -8.314105e+08
-7.250518e+09 4.241219e+10 -5.535117e+07
2.241244e+10 4.073245e+10 -4.350626e+08
2.431367e+10 8.008929e+10 -9.328420e+08
3.418185e+10 2.131639e+10 9.421618e+08
-5.414577e+10 4.856040e+10 3.665612e+09
2.398754e+10 1.844140e+10 -3.134783e+09
-5.291949e+10 4.447284e+10 1.757212e+09
-2.441433e+10 -9.732421e+09 -1.018876e+09
1.632198e+10 4.628504e+10 8.704884e+08
7.091604e+10 -1.460113e+10 1.151613e+09
-7.197753e+10 -2.552701e+09 -2.557141e+09
5.312525e+10 2.500220e+10 -1.373601e+09
-5.910101e+09 4.043387e+10 3.232588e+09
3.539933e+10 -2.624326e+10 2.313038e+08
-2.920184e+10 -2.081303e+10 -1.402453e+09
-3.993150e+10 -1.482051e+10 -7.120164e+08
-7.076533e+09 9.835412e+10 2.555746e+09
-4.963773e+10 7.823030e+10 8.766624e+08
-3.159678e+10 -1.390222e+10 -5.343304e+08
-1.417070e+10 -2.627876e+10 1.370398e+09
1.413824e+10 -2.613740e+10 -1.316912e+09
-3.111337e+10 1.905264e+10 -1.245812e+09
-1.780472e+10 3.790022e+10 -2.342984e+09
-2.066158e+10 6.660766e+10 2.849912e+09
1.690434e+10 -3.581282e+10 -4.051819e+08
-1.688431e+10 -3.584311e+10 4.123870e+08
-2.261126e+10 1.672309e+10 -8.272762e+08
-1.855928e+09 -6.560876e+10 -9.808215e+08
-2.556749e+09 -4.923848e+10 1.310844e+09
-3.108814e+10 -1.538139e+10 2.791659e+09
-1.429727e+10 3.269196e+10 2.274811e+09
-5.408438e+10 -1.771820e+10 -3.221137e+08
-5.439902e+10 3.280632e+10 -8.527658e+08
-7.884306e+10 2.776429e+10 6.436457e+09
-3.107432e+10 -6.154036e+10 1.547994e+09
3.163507e+10 -6.238690e+10 -1.821433e+09
3.525501e+10 -4.881800e+10 4.013502e+08
-4.319054e+10 -5.154146e+10 2.489505e+09
3.111815e+09 2.747923e+10 -1.364096e+09
-4.418242e+10 -1.297371e+09 3.222000e+09
-2.711944e+10 -1.665102e+10 -1.267704e+09
4.240593e+10 8.288460e+09 3.133329e+09
1.425263e+10 7.223566e+10 -5.137204e+08
1.627506e+10 3.501490e+10 -8.414843e+08
-2.979459e+10 -1.383383e+10 1.151732e+09
-1.021004e+10 3.078116e+10 3.735780e+08
3.659900e+10 8.307068e+10 -1.006517e+10
-1.480940e+10 5.192743e+10 -1.603825e+09
-3.809055e+10 6.681448e+10 4.662650e+09
-3.371075e+10 6.805774e+10 1.162600e+09
-2.394667e+10 1.412833e+10 1.365286e+09
-2.305149e+10 -1.580358e+10 -1.106701e+09
-3.300766e+10 -7.972199e+08 1.625217e+09
5.180725e+10 -5.937866e+10 1.479245e+09
-5.649067e+10 -6.724695e+10 3.195616e+08
3.497667e+10 -1.319273e+10 -7.789902e+08
-4.292911e+10 6.011706e+09 -2.205672e+09
2.564785e+10 2.515560e+10 -1.630265e+09
-3.551530e+10 2.677901e+09 -6.767735e+08
3.544941e+10 -3.036760e+09 2.392616e+08
2.070311e+10 3.239421e+10 -2.365126e+09
3.403655e+10 -7.621490e+09 -1.564146e+09
-2.854237e+10 -2.251400e+10 9.800634e+07
-2.911887e+10 4.107952e+09 7.423816e+08
3.570515e+10 -5.309793e+09 3.502808e+08
-6.530851e+10 -4.528884e+09 1.273259e+09
-8.635768e+10 -4.858897e+10 1.116217e+09
3.881475e+10 3.262862e+09 3.169638e+08
-2.738672e+10 1.484774e+10 -1.039277e+09
-4.642432e+10 -3.614009e+09 -1.234720e+09
-3.522770e+10 2.229302e+10 -1.954574e+09
-1.461499e+10 6.915852e+10 -1.790819e+09
8.167939e+10 6.983133e+09 8.785012e+09
-2.304288e+10 -2.091608e+10 2.169011e+09
-1.365549e+10 -4.296272e+10 4.852499e+08
1.359718e+10 -4.289093e+10 -4.361525e+08
-2.724516e+10 -6.958547e+10 6.566448e+09
2.722998e+10 -6.895955e+10 -3.154087e+09
3.358665e+10 2.654795e+10 2.679968e+09
-5.222208e+10 -7.082201e+10 9.448951e+08
4.608407e+10 -6.236942e+10 -2.721064e+09
6.749269e+10 -1.017565e+10 1.475653e+09
-6.391925e+10 -2.166680e+09 -9.462267e+08
-2.276345e+10 4.149550e+10 1.900749e+09
-1.902659e+10 -1.846913e+10 -6.283662e+08
3.459960e+10 7.564202e+10 8.353360e+09
2.808841e+09 3.341493e+10 -9.447156e+08
1.778545e+10 2.193480e+10 -2.959603e+09
6.898190e+09 3.107690e+10 1.871631e+08
-2.593132e+10 -6.390471e+10 -3.168906e+09
2.605811e+10 -6.420540e+10 3.440184e+09
3.015441e+09 -3.845976e+10 1.035746e+09
-8.221265e+08 -3.070611e+10 4.671429e+08
-3.354424e+10 1.396496e+10 -2.410796e+09
-3.415065e+10 9.384199e+09 1.164439e+09
-1.989305e+10 -2.403776e+10 -2.836756e+08
-7.454255e+10 2.025449e+10 2.752839e+09
7.438034e+10 -4.359149e+10 1.252814e+09
-5.898920e+10 -3.587381e+10 5.963588e+08
2.420152e+10 8.485344e+10 -1.770937e+09
5.917702e+10 -3.531376e+10 3.884181e+09
-5.210146e+10 1.148263e+10 2.889183e+09
3.914894e+10 1.006593e+09 1.024746e+09
-3.572725e+10 -6.425575e+10 -3.024314e+09
3.395166e+10 -5.981361e+10 -4.118376e+09
3.253004e+10 -9.906558e+09 1.309568e+09
-1.705456e+10 -2.273566e+10 -5.793844e+08
2.605089e+10 -2.346110e+10 -1.175697e+09
-2.665506e+10 -2.541670e+10 -7.520953e+08
-3.709296e+09 4.881354e+10 1.985384e+08
2.878188e+10 4.792587e+10 1.605289e+09
1.458578e+08 3.472668e+10 -2.809096e+08
5.607677e+10 -1.787985e+10 -4.307641e+07
3.134843e+10 5.248362e+10 2.424719e+09
-3.218664e+10 2.304824e+10 2.949971e+09
2.298753e+10 6.379240e+10 -1.519493e+09
3.592589e+10 -1.846565e+10 4.716686e+08
-1.890178e+10 -2.364219e+10 1.354657e+09
4.128164e+10 4.613700e+10 2.274444e+09
-2.139434e+10 3.716673e+10 -3.702701e+09
1.560758e+10 4.309166e+10 9.829796e+08
-2.311233e+10 -6.270959e+10 -7.121587e+08
2.334858e+10 -6.330227e+10 8.354399e+08
-5.169067e+10 -3.138838e+10 -4.346266e+08
-7.087417e+10 -3.367445e+10 -3.094508e+09
8.215002e+10 -4.037987e+10 4.498977e+09
-5.202094e+10 -1.797557e+10 -2.710991e+09
-2.515597e+10 3.642064e+10 -5.130920e+08
-2.333335e+10 -3.782323e+10 1.243491e+09
-6.383178e+10 2.752835e+10 2.042186e+09
-5.047211e+10 1.113862e+07 6.956974e+07
-3.025849e+10 -1.855831e+10 6.252531e+08
-3.044354e+10 2.598890e+09 -5.902292e+07
7.950493e+10 3.292536e+10 -5.087137e+09
3.229985e+10 2.802902e+10 -1.859962e+09
6.532057e+10 -1.050522e+10 1.914848e+09
3.550062e+10 4.378265e+09 1.133691e+09
1.078585e+10 5.696489e+10 -6.764387e+08
6.218261e+09 2.668853e+10 6.634303e+08
-1.644435e+10 -3.463920e+10 -1.754975e+09
-2.808625e+10 1.834371e+10 -6.335555e+08
-6.655578e+10 -1.573254e+10 4.315644e+09
-1.245526e+10 -2.857702e+10 9.608659e+08
1.245538e+10 -2.859825e+10 -9.767073e+08
-2.493269e+10 2.378039e+10 5.917356e+08
-3.515446e+10 2.705079e+10 6.329503e+08
-5.479057e+10 -4.186384e+09 -6.655394e+08
-5.825272e+09 2.807567e+10 7.098448e+08
-2.880478e+10 1.349460e+10 7.516504e+08
-4.184882e+10 -4.855328e+10 2.078209e+09
-1.266876e+10 -2.705922e+10 6.689062e+08
5.059339e+10 -6.284893e+10 1.986116e+09
-2.555765e+10 -3.473263e+10 3.355067e+08
2.440055e+10 -3.299124e+10 -8.627409e+08
8.727529e+10 1.808747e+10 -2.546894e+09
7.645764e+09 6.708124e+10 1.561891e+09
3.463971e+10 7.045486e+10 3.943901e+09
-2.730272e+09 3.133886e+10 7.578662e+08
3.874358e+10 2.207507e+10 1.796629e+09
6.824503e+10 5.832207e+10 -7.285947e+09
-2.231385e+10 2.331604e+10 1.108916e+09
-1.362707e+10 -3.598693e+10 -1.245019e+08
1.994096e+10 -3.421172e+10 -2.120777e+09
-2.007864e+10 -3.400235e+10 1.942504e+09
-3.593144e+10 5.711495e+10 3.846960e+09
-4.706850e+10 3.775205e+10 1.744639e+09
2.589712e+10 1.412082e+10 -1.078512e+09
4.536361e+10 5.321405e+10 6.273726e+09
6.598263e+08 -3.203034e+10 -2.984981e+09
-2.420459e+09 -2.536437e+10 -5.408476e+08
6.915296e+10 1.452422e+10 -2.873449e+09
-7.436718e+10 -2.305811e+10 -4.237143e+08
-8.875379e+09 -3.219561e+10 2.724725e+08
-3.485698e+10 2.990142e+10 4.295141e+08
-5.386189e+10 -6.533524e+10 -4.776164e+09
5.193550e+10 -5.538577e+10 5.872492e+08
-7.583886e+09 3.870840e+10 -1.383901e+09
-9.199409e+10 2.771381e+09 4.105720e+09
-6.856805e+10 2.182610e+10 -1.440619e+09
-1.617497e+10 -4.092727e+10 -1.228250e+09
1.630739e+10 -4.087396e+10 1.248400e+09
1.164559e+10 -3.322351e+10 -1.890605e+09
-1.157360e+10 -3.349747e+10 1.561262e+09
-7.383346e+09 -2.799784e+10 -3.092667e+08
7.435746e+10 2.413389e+10 8.934194e+09
-3.415171e+10 -1.648934e+10 2.886144e+09
-3.192583e+10 -5.371502e+09 1.139022e+09
-2.749247e+10 7.671221e+10 1.200123e+09
-4.487193e+10 -6.834527e+10 -3.876490e+08
3.478660e+10 -6.344970e+10 2.343363e+09
4.161432e+10 -8.980222e+09 -1.466343e+08
1.357355e+10 -5.943032e+10 2.041032e+09
-1.296223e+10 -5.861313e+10 4.120788e+08
2.477216e+10 -2.313286e+10 -5.288862e+09
-6.402018e+09 -3.207497e+10 -7.250928e+07
-2.050463e+10 -1.698577e+10 7.770775e+08
-3.283650e+10 7.698130e+09 5.191710e+08
-3.962691e+10 7.129568e+09 3.870307e+09
-3.551878e+10 2.778751e+10 6.056241e+08
-2.385836e+10 2.467528e+10 -9.840781e+07
5.277373e+09 5.240130e+10 1.716175e+08
-5.734052e+10 2.828293e+10 -4.655928e+09
-4.220500e+10 9.923923e+09 -1.489916e+09
-5.940098e+10 -6.657652e+09 8.317613e+08
3.552202e+10 2.363439e+10 9.378826e+08
-5.043613e+09 -4.112234e+10 -1.198092e+09
5.694539e+09 6.467635e+10 4.158340e+08
6.466999e+10 -1.808208e+10 3.472975e+08
2.108885e+10 1.963631e+10 -1.280284e+08
-8.594841e+10 -1.198465e+10 -2.223135e+09
-2.382900e+10 9.181717e+10 -2.150340e+09
-4.952489e+10 4.742237e+10 -2.521730e+09
-1.342430e+10 4.807410e+10 1.344263e+09
4.451717e+10 -1.539399e+09 1.697458e+09
1.301330e+10 -5.960360e+10 -3.811017e+09
-1.378637e+10 -6.018033e+10 1.188905e+08
-8.550799e+08 -3.238579e+10 -3.810894e+09
3.996679e+10 6.329754e+10 -2.751109e+09
9.494018e+09 -3.210120e+10 -3.149664e+09
-9.667328e+09 -3.192133e+10 3.451352e+09
-3.442222e+10 1.168413e+10 -1.010940e+08
4.072362e+10 3.063886e+10 1.146854e+09
-3.785077e+10 -1.347883e+10 1.634791e+09
-2.523276e+10 1.038467e+10 -1.391163e+09
5.374355e+10 -1.698112e+10 3.643964e+08
3.681062e+10 1.320623e+10 -1.469631e+09
-5.619775e+10 -2.378419e+10 1.213012e+08
1.882819e+08 -3.903505e+10 -4.601775e+08
5.038574e+10 -2.706597e+10 -6.464306e+08
2.137596e+10 2.754597e+10 -2.115289e+08
-2.744460e+10 -2.264238e+10 -1.240096e+09
3.114945e+10 -2.484958e+10 2.495113e+09
2.997272e+10 6.260590e+09 -2.010221e+09
3.195025e+09 -4.492666e+10 -1.808232e+09
-5.104079e+09 -4.098702e+10 -3.254740e+08
2.211465e+10 -2.744326e+10 -1.321572e+09
-2.880721e+10 -3.032280e+10 3.655270e+09
3.035329e+10 -1.860969e+10 4.465068e+08
1.163795e+09 -4.263246e+10 -7.534401e+08
3.079693e+10 -1.710748e+10 -1.482797e+09
3.487629e+10 -1.860484e+10 -1.421461e+09
-2.694117e+10 -5.282833e+10 2.788166e+08
2.689571e+10 -5.289832e+10 -2.710814e+08
8.688512e+09 -4.293249e+10 -7.099777e+08
-1.010345e+10 -4.262498e+10 -2.769590e+08
-5.688742e+10 -2.344444e+10 2.097318e+09
6.974948e+10 -2.838084e+10 -1.863393e+09
3.790006e+10 8.276416e+09 5.411660e+08
-3.788962e+10 -1.071574e+10 5.805204e+08
-6.394866e+08 -4.480817e+10 -3.462392e+08
-4.933471e+10 7.234229e+10 -2.314427e+09
4.180047e+10 6.578703e+09 -1.532824e+09
8.368553e+10 9.548406e+08 -7.295131e+09
2.349222e+10 2.313750e+10 5.897298e+08
-5.528436e+10 -3.349125e+10 1.557029e+09
3.445645e+10 -9.923889e+07 3.937237e+07
3.233567e+10 3.259417e+10 -1.261670e+09
1.313218e+10 -2.988363e+10 9.268712e+08
-1.309008e+10 -2.983572e+10 -9.132490e+08
7.304768e+09 3.239827e+10 -1.440621e+09
1.284816e+09 -5.479527e+10 1.930506e+08
8.144341e+10 -2.674287e+10 -6.160043e+09
5.174019e+10 -2.853857e+10 1.508442e+09
2.831120e+10 3.723198e+10 1.267398e+09
1.261032e+10 5.703621e+10 -2.147680e+08
-2.935057e+10 3.143892e+10 4.260133e+08
1.658396e+10 3.262943e+10 -3.117898e+09
-1.215560e+10 3.670513e+10 -3.210949e+09
5.755467e+10 1.033874e+10 1.005827e+08
4.010360e+10 1.354945e+09 5.012005e+08
1.920582e+10 7.395312e+10 -5.384220e+08
5.634798e+09 -7.096358e+10 3.867889e+09
2.134232e+10 8.109947e+10 1.539576e+09
4.803233e+10 -3.218048e+10 -8.838553e+08
-6.103073e+10 -1.717410e+10 -5.234676e+08
9.220695e+09 8.887954e+10 -1.234079e+09
3.105687e+10 2.568131e+10 -4.503721e+08
1.970646e+10 6.353027e+10 1.165901e+09
3.864108e+10 5.071792e+09 8.923060e+07
-2.401039e+10 -3.052146e+10 3.932022e+08
2.340928e+10 -2.843367e+10 2.179062e+08
-3.273912e+10 -1.658736e+10 3.533414e+09
-7.343134e+08 -9.185467e+10 -7.105539e+07
4.169890e+10 4.011693e+10 1.848101e+09
-5.963550e+10 -2.777038e+10 5.783388e+08
7.466370e+08 2.835211e+10 1.033623e+09
-5.690299e+10 2.786516e+10 -1.126847e+09
-4.689721e+10 -2.537860e+10 -9.692510e+08
-1.522927e+10 -9.317745e+10 -2.890403e+09
1.083702e+10 -6.533183e+10 -1.063822e+09
-1.011467e+10 -5.682501e+10 5.944086e+08
1.069407e+10 -5.751963e+10 -5.122977e+08
-8.040199e+10 4.078864e+10 3.977158e+09
2.458197e+09 -6.868058e+10 -5.451718e+08
4.344389e+10 6.324674e+10 -2.357664e+09
-4.505690e+10 1.424376e+10 5.555398e+08
6.709993e+10 -3.122935e+09 3.056274e+09
-6.621635e+10 1.364501e+10 1.806463e+09
-2.608324e+09 3.735555e+10 -2.449301e+09
-1.929724e+10 3.490608e+10 3.017156e+09
-3.493133e+10 -2.045538e+10 -8.720227e+08
3.845095e+10 -2.002338e+10 1.481506e+08
5.280911e+10 -2.375578e+10 7.791713e+08
3.140898e+10 2.377427e+10 -2.153561e+09
-2.108156e+09 -9.163998e+10 5.101221e+09
-6.018457e+10 5.619100e+10 -4.553255e+08
4.212060e+10 -4.460599e+10 -2.066252e+09
-4.500952e+10 -4.664016e+10 -3.578709e+09
-8.554863e+10 1.016097e+09 2.348887e+09
-3.841671e+10 2.746946e+10 -7.652402e+07
6.412858e+10 3.684995e+10 2.049492e+09
2.002016e+10 -2.623362e+10 3.141096e+09
-2.019880e+10 -2.620379e+10 -3.447164e+09
-5.666555e+10 4.531382e+10 -3.161892e+09
-4.998986e+09 4.234996e+10 2.719018e+09
-1.322173e+09 -8.275264e+10 7.863734e+08
-8.083985e+10 2.713192e+10 -2.067389e+09
7.223733e+10 -6.375957e+10 -1.450959e+09
-5.804819e+10 -4.510348e+10 2.227258e+09
-1.597946e+10 -4.126067e+10 -1.251416e+07
1.600171e+10 -4.130166e+10 1.599899e+07
3.253363e+09 -9.210860e+10 3.933270e+08
6.933605e+08 -7.482786e+10 6.794832e+09
2.935425e+10 -8.005100e+10 -2.972002e+09
-2.921903e+10 -7.945397e+10 2.562834e+09
-4.394293e+10 3.508804e+09 4.883161e+08
8.554288e+08 -4.550556e+10 2.961397e+08
-5.503115e+10 4.430994e+10 -7.508699e+08
2.143866e+10 -4.047884e+10 3.737681e+08
-2.140484e+10 -4.046279e+10 -3.596125e+08
-3.397663e+10 8.111824e+09 -4.899929e+09
-3.097248e+10 1.621952e+10 4.762379e+08
2.879883e+10 4.016760e+10 1.192411e+09
1.597001e+10 4.577520e+10 -6.556751e+08
-1.388337e+10 3.370643e+10 2.000443e+09
-5.133525e+10 3.039181e+10 8.674597e+08
-7.810923e+10 -5.898823e+09 3.118907e+09
-1.478699e+09 -4.736449e+10 4.250292e+08
1.785886e+10 -3.921808e+10 1.709388e+09
-1.776593e+10 -3.902922e+10 -1.639336e+09
-2.475359e+10 5.046261e+10 2.577176e+08
-5.133646e+10 -6.364198e+10 4.297722e+08
4.402259e+10 -5.618925e+10 5.881095e+08
-3.294620e+10 5.755859e+10 1.068975e+09
5.491561e+10 -2.445613e+10 -6.476612e+08
-2.812791e+10 1.798257e+10 -1.709455e+08
-7.668918e+10 -2.184206e+10 2.148684e+09
1.753109e+10 4.698842e+10 -2.965951e+09
-4.281171e+08 -3.824077e+10 -7.781872e+07
5.245348e+10 -1.567357e+10 7.321495e+08
4.934071e+10 6.504389e+10 -3.569819e+09
3.293941e+10 -2.726484e+10 -7.694012e+08
-4.897967e+10 -3.916532e+10 1.359215e+08
-1.523392e+10 -8.727209e+10 -1.281799e+09
1.330812e+10 -8.845479e+10 6.064843e+09
-2.499794e+10 -7.686913e+10 2.370298e+07
2.506180e+10 -7.691171e+10 -6.469181e+08
4.544121e+10 1.933433e+10 1.705362e+09
-7.769132e+10 -2.365883e+10 8.831157e+08
-8.921013e+08 -3.394450e+10 -1.121193e+09
-3.236676e+10 3.265704e+10 -6.360991e+08
-4.586629e+10 5.997597e+10 1.450412e+09
4.002841e+10 2.166506e+10 -7.223030e+08
-7.845443e+09 4.237068e+10 2.309600e+09
4.916297e+10 3.679443e+10 -1.786858e+09
2.771640e+10 -9.703764e+09 -8.917184e+06
-4.769283e+10 -8.825174e+08 -3.230867e+08
-5.556426e+10 -6.440376e+10 -3.982093e+08
5.394503e+10 -6.875043e+10 -4.743415e+09
-4.043213e+10 1.125974e+10 -3.374910e+08
6.837629e+10 -4.076869e+10 -5.180950e+08
5.952213e+10 -9.617663e+09 -5.114601e+08
-2.981942e+10 4.577329e+10 -2.111121e+09
7.472923e+10 6.530039e+10 -2.710894e+09
5.302341e+09 -4.007759e+10 1.076058e+09
-5.210630e+09 -3.282410e+10 -6.879118e+08
7.383345e+08 -3.864858e+10 3.155001e+09
-1.770750e+09 -3.265087e+10 -3.362060e+09
5.693215e+10 1.096806e+10 -2.699937e+08
3.498802e+10 5.573830e+10 -5.852290e+08
-2.659279e+10 -1.528977e+10 -6.771656e+08
-5.711456e+10 -3.876113e+10 -1.355529e+09
-3.955242e+10 3.861269e+09 -9.726201e+08
4.540672e+10 2.379324e+10 2.133738e+08
-1.546648e+10 3.089200e+10 -4.376003e+09
-1.433739e+10 3.007937e+10 1.941790e+09
-4.180754e+10 -2.647660e+10 -4.272959e+09
3.738868e+10 -2.692345e+10 1.781173e+09
8.569330e+09 -3.334824e+10 -1.281692e+08
-8.600755e+09 -3.249010e+10 1.518975e+09
4.464026e+10 -1.236676e+10 1.142221e+09
3.829957e+10 -3.438004e+09 -5.297412e+07
2.961636e+10 5.205186e+09 1.687759e+09
6.422188e+10 -5.321997e+10 -1.982372e+09
-6.276094e+10 -5.256466e+10 -2.948587e+09
5.163854e+10 4.316989e+10 4.780050e+09
-3.538638e+10 -5.769098e+10 -2.214010e+09
4.575555e+10 -7.251239e+10 -7.044245e+08
6.884245e+10 6.031832e+10 8.375772e+09
-2.799655e+10 -2.351654e+10 8.522158e+08
2.706148e+10 -2.268234e+10 -2.419982e+08
1.375589e+10 5.688083e+10 -4.343011e+09
-2.136012e+10 -2.936500e+10 -9.096570e+08
1.213963e+10 2.447216e+10 -7.813470e+07
2.159316e+10 -2.811586e+10 9.944862e+08
-3.805264e+10 1.078572e+10 2.384445e+08
-3.412056e+10 3.054951e+10 1.354742e+09
-3.661154e+10 5.582673e+10 3.336311e+08
-3.349618e+10 -2.437974e+10 -1.495283e+09
2.800698e+10 3.554229e+10 -2.353562e+09
1.051844e+10 4.142644e+10 2.511084e+09
-6.655247e+10 1.284003e+10 -9.314590e+08
-7.979672e+10 1.736517e+10 -4.183781e+09
-1.125869e+10 1.025289e+11 -1.478787e+09
-1.395781e+10 3.138533e+10 3.069421e+08
5.617326e+10 -2.151328e+09 -8.840711e+08
-5.614412e+10 -3.589295e+10 1.651435e+09
6.490254e+10 -3.698732e+10 -2.788146e+08
1.426128e+10 3.239973e+10 3.852119e+09
1.731013e+10 -4.882055e+10 -2.422102e+09
-1.728836e+10 -4.882470e+10 2.472861e+09
-1.059146e+10 2.965728e+10 -2.026918e+08
-1.930295e+10 -2.595426e+10 9.862371e+08
1.927947e+10 -2.622509e+10 -6.989561e+08
-2.879509e+10 5.233680e+10 -2.494332e+09
-3.438104e+10 1.475487e+10 -3.630078e+08
4.359527e+10 1.546186e+10 -5.116994e+08
-7.783402e+10 4.086215e+10 3.560448e+09
-3.955452e+10 4.111058e+10 -3.260825e+08
-3.565887e+10 5.474178e+10 -4.395903e+08
-4.456536e+10 6.653749e+09 1.277349e+09
6.871239e+10 -4.096083e+10 -6.952334e+09