# vtk DataFile Version 2.0
Electric current density generated by TTH
ASCII
DATASET UNSTRUCTURED_GRID
POINTS 1574 double
1.642864e-05 -4.023857e-21 -5.160748e-22
1.405933e-05 8.499158e-06 -5.160748e-22
1.568477e-05 -4.887572e-06 -5.160748e-22
-1.049630e-05 -9.399442e-06 2.094242e-06
-5.196297e-06 1.541813e-05 8.015606e-07
2.654051e-06 -1.604484e-05 -8.192096e-07
-7.702033e-06 -9.571263e-06 5.416128e-07
1.056930e-05 1.091037e-05 -1.919612e-06
1.056930e-05 -1.091037e-05 -1.919612e-06
-1.245491e-05 1.195273e-06 -1.079537e-06
-5.178542e-06 -1.430495e-05 1.908985e-06
-1.300590e-05 2.997403e-08 1.645779e-06
-1.450479e-05 -5.929330e-06 1.619167e-06
1.595126e-05 -3.931632e-06 -5.160748e-22
6.415045e-06 -1.186415e-05 -1.934876e-06
6.397021e-06 1.186961e-05 -1.933252e-06
-2.477187e-06 1.484124e-05 -1.978394e-06
7.711934e-06 -1.027010e-05 1.501345e-06
7.711934e-06 1.027010e-05 1.501345e-06
-2.618271e-06 1.516455e-05 1.816710e-06
1.142924e-05 -1.063363e-05 1.666491e-06
1.142924e-05 1.063363e-05 1.666491e-06
-9.478570e-06 -7.717410e-06 -1.882422e-07
5.487802e-06 -1.328515e-05 2.106384e-06
1.615954e-05 -2.961346e-06 -5.160748e-22
-6.716789e-06 1.020648e-05 1.256573e-07
-1.102332e-05 -7.024234e-06 -1.695821e-06
-1.382169e-05 -2.070186e-06 -2.078476e-06
4.029935e-06 1.432057e-05 2.032576e-06
-8.008648e-06 1.419968e-05 -7.182695e-07
-3.490331e-06 -1.347087e-05 2.067569e-06
-4.554849e-07 1.226588e-05 4.982635e-07
9.013806e-06 1.356605e-05 7.579008e-07
1.180605e-05 8.414382e-06 2.099660e-06
1.180605e-05 -8.414382e-06 2.099660e-06
1.630886e-05 -1.980254e-06 -5.160748e-22
1.145864e-05 1.020052e-05 -1.843943e-06
1.145864e-05 -1.020052e-05 -1.843943e-06
-1.449030e-05 -1.762983e-06 2.088940e-06
-1.351123e-05 7.670630e-06 1.721312e-06
-1.189445e-05 4.024865e-06 -1.151366e-06
-7.584240e-06 1.252357e-05 2.082679e-06
-8.413389e-06 -8.895602e-06 3.512334e-07
-1.013234e-05 1.270687e-05 -8.443989e-07
-7.931051e-06 -1.058687e-05 -1.801085e-06
-1.411019e-05 3.811624e-06 2.086375e-06
1.639867e-05 -9.919368e-07 -5.160748e-22
2.683749e-06 1.200195e-05 -5.882264e-07
4.813488e-07 -1.224249e-05 -3.951203e-07
-5.029576e-06 1.267299e-05 -1.991877e-06
-1.541769e-05 -9.510283e-07 -1.781321e-06
8.960504e-06 1.241367e-05 1.860937e-06
8.975019e-06 -1.240197e-05 1.861456e-06
5.454942e-06 -1.477586e-05 1.548379e-06
-1.225563e-05 -1.062682e-06 5.993668e-07
-1.043965e-05 -6.519809e-06 -6.214207e-07
1.409303e-05 -8.173215e-06 7.475835e-07
1.621998e-05 -3.972750e-21 9.142083e-07
1.409303e-05 8.173215e-06 7.475835e-07
-7.165833e-06 -1.351682e-05 1.866730e-06
-1.271711e-05 -6.336732e-06 2.103993e-06
-1.178196e-05 -3.680229e-06 7.253520e-07
1.383169e-05 7.013437e-06 -1.741153e-06
1.383169e-05 -7.013437e-06 -1.741153e-06
-9.667676e-06 -1.313875e-05 6.905027e-07
1.336243e-05 7.942231e-07 -1.887926e-06
1.337060e-05 -7.588356e-07 -1.890936e-06
-1.439360e-05 -7.546895e-06 8.442291e-07
1.563532e-05 -3.829550e-21 1.647346e-06
5.157698e-06 -1.252686e-05 1.959527e-06
-6.718395e-06 -1.078889e-05 -1.356989e-06
-4.196796e-06 -1.153928e-05 5.161201e-07
1.112398e-05 -5.444332e-06 8.297112e-07
1.112398e-05 5.444332e-06 8.297112e-07
1.080996e-05 7.839731e-06 1.871475e-06
1.080996e-05 -7.839731e-06 1.871475e-06
-1.622375e-05 1.608328e-06 -7.159544e-07
1.943847e-06 -1.564743e-05 1.532446e-06
-4.206036e-06 1.501478e-05 1.680404e-06
1.479047e-05 -3.622620e-21 2.054207e-06
-1.252789e-05 3.377524e-06 1.620734e-06
-1.473689e-05 6.828848e-06 8.665491e-07
6.556691e-06 -1.430644e-05 1.560526e-06
-1.542970e-05 -5.261955e-06 7.187400e-07
-1.154255e-05 4.253213e-06 5.980449e-07
-1.248131e-05 -4.205123e-06 -1.764910e-06
-1.094229e-05 -6.076129e-06 1.086184e-06
-1.136582e-05 -5.465379e-06 -1.231034e-06
-8.209360e-06 -1.405938e-05 -7.757125e-07
4.048627e-07 -1.627538e-05 7.763172e-07
1.385275e-05 -3.392945e-21 2.054207e-06
9.400998e-06 7.897599e-06 5.133440e-07
9.400998e-06 -7.897599e-06 5.133440e-07
5.882238e-06 1.442064e-05 -1.694291e-06
-1.834605e-06 -1.523171e-05 -1.843585e-06
-1.047309e-05 1.137666e-05 1.770903e-06
-5.498313e-07 -1.568641e-05 1.597037e-06
6.385274e-07 1.572437e-05 1.560552e-06
-1.369969e-05 8.857508e-06 6.864096e-07
3.574826e-06 1.532179e-05 -1.564200e-06
-2.227854e-06 -1.612867e-05 -7.728026e-07
1.300789e-05 -3.186015e-21 1.647346e-06
2.515669e-06 1.610779e-05 -7.165642e-07
1.059784e-06 -1.368673e-05 -2.021602e-06
5.839640e-06 -1.096710e-05 9.177082e-07
-9.466902e-07 1.544251e-05 1.765602e-06
-7.480174e-06 -1.443596e-05 8.286944e-07
8.168240e-07 -1.515556e-05 -1.925345e-06
-8.024953e-06 -1.307594e-05 -1.843417e-06
-1.195645e-05 -2.620999e-06 -3.286384e-07
-8.962770e-07 1.223916e-05 -4.882826e-07
1.412595e-05 -5.538407e-06 -1.927413e-06
1.352051e-05 9.332533e-06 -5.160748e-22
1.242323e-05 -3.042815e-21 9.142083e-07
1.412595e-05 5.538407e-06 -1.927413e-06
1.223973e-05 -3.637941e-06 -1.424356e-06
1.223973e-05 3.637941e-06 -1.424356e-06
-9.091625e-06 1.271656e-05 -1.649761e-06
1.015543e-05 -7.048240e-06 -7.734240e-07
1.015543e-05 7.048240e-06 -7.734240e-07
1.773026e-06 1.223063e-05 7.653291e-07
7.812203e-07 -1.255014e-05 1.177690e-06
-1.318127e-05 -8.166190e-06 1.742720e-06
-1.137451e-05 4.764226e-06 -6.934867e-07
1.221457e-05 -2.991708e-21 -2.032762e-20
-1.561776e-05 9.297868e-07 1.639247e-06
-1.258800e-05 1.031144e-05 -7.968108e-07
-1.587557e-05 3.570688e-06 -7.968097e-07
1.150684e-05 -4.581504e-06 8.310300e-07
1.150684e-05 4.581504e-06 8.310300e-07
1.624818e-05 1.448371e-06 6.895865e-07
1.624818e-05 -1.448371e-06 6.895865e-07
-6.244363e-06 -1.507523e-05 -6.758601e-07
-4.381717e-06 -1.571798e-05 -6.758601e-07
-2.866751e-06 -1.203691e-05 -8.029885e-07
1.242323e-05 -3.042815e-21 -9.142083e-07
6.573596e-06 1.029615e-05 6.838232e-08
6.596776e-06 -1.028403e-05 1.196281e-07
-1.182522e-05 3.295617e-06 -5.045122e-07
6.848350e-06 1.091570e-05 1.542404e-06
-4.972278e-06 -1.354226e-05 -2.104436e-06
-4.928698e-07 1.631111e-05 6.721593e-07
1.034334e-05 -6.497190e-06 -1.982598e-08
1.034334e-05 6.497190e-06 -1.982598e-08
5.344428e-06 1.536777e-05 -8.007255e-07
1.121214e-05 1.180894e-05 7.676482e-07
1.300789e-05 -3.186015e-21 -1.647346e-06
1.121214e-05 -1.180894e-05 7.676482e-07
-1.532549e-05 -1.235604e-06 1.824691e-06
-1.213858e-05 6.699848e-06 -2.056925e-06
-1.625388e-05 -5.874506e-07 8.153476e-07
3.821552e-06 1.389409e-05 -2.105177e-06
-1.243309e-05 6.498892e-06 2.086641e-06
-8.588642e-06 -1.319144e-05 1.557222e-06
-1.201380e-05 5.073784e-06 1.673419e-06
6.263490e-06 1.422641e-05 1.716064e-06
-1.000235e-05 8.169509e-06 1.568451e-06
1.385275e-05 -3.392945e-21 -2.054207e-06
-1.362732e-05 -7.079949e-06 1.835237e-06
-1.408773e-05 5.576903e-06 -1.936748e-06
1.230795e-05 -5.212658e-06 1.878016e-06
1.230795e-05 5.212658e-06 1.878016e-06
6.827043e-06 -1.092711e-05 1.540879e-06
5.070791e-06 -1.159599e-05 -1.290763e-06
5.128690e-06 1.160219e-05 -1.327317e-06
4.378173e-06 -1.275339e-05 -1.933377e-06
-1.209384e-05 -8.106724e-06 -2.093559e-06
-4.416341e-06 -1.229953e-05 -1.693816e-06
1.479047e-05 -3.622620e-21 -2.054207e-06
-6.390782e-08 -1.565345e-05 -1.632620e-06
9.066893e-06 -1.352484e-05 7.702641e-07
-1.395421e-06 -1.622005e-05 -7.774580e-07
-5.040104e-06 1.150148e-05 1.151923e-06
-9.377146e-06 1.116520e-05 -2.091063e-06
1.699342e-06 1.319501e-05 1.845005e-06
-1.022420e-06 1.554722e-05 -1.689384e-06
-1.307231e-05 2.668209e-06 1.865379e-06
-1.592206e-05 3.513085e-06 7.110996e-07
-8.921522e-06 -1.361773e-05 -7.775388e-07
1.563532e-05 -3.829550e-21 -1.647346e-06
2.709878e-06 -1.196929e-05 -4.894993e-07
1.470698e-05 -7.022159e-06 -7.319408e-07
1.470698e-05 7.022159e-06 -7.319408e-07
-1.052576e-05 -1.118864e-05 -1.832515e-06
-9.595644e-06 -1.242984e-05 -1.591214e-06
2.010223e-06 -1.392997e-05 -2.092468e-06
-1.594439e-05 -3.444818e-06 6.905274e-07
-6.421619e-06 -1.396605e-05 -1.826748e-06
9.722345e-06 -8.372131e-06 -1.488487e-06
9.722345e-06 8.372131e-06 -1.488487e-06
1.621998e-05 -3.972750e-21 -9.142083e-07
1.269913e-05 -9.420019e-06 -1.489870e-06
1.269913e-05 9.420019e-06 -1.489870e-06
-2.547554e-06 1.212643e-05 -8.443276e-07
-1.361880e-05 1.362708e-06 2.009134e-06
-1.105624e-05 5.655122e-06 9.044547e-07
-1.624512e-05 -1.526703e-06 -6.776437e-07
-8.541347e-06 1.284591e-05 1.794204e-06
-8.622410e-06 8.918934e-06 8.761567e-07
-1.217767e-05 -1.079458e-05 7.941654e-07
1.286976e-05 8.187975e-06 -1.889684e-06
7.027755e-06 1.143258e-05 -1.904333e-06
1.286976e-05 -8.187975e-06 -1.889684e-06
-1.120713e-05 -7.952231e-06 -2.025698e-06
-7.978852e-06 -9.908516e-06 1.371051e-06
-7.124210e-06 1.467765e-05 6.818722e-07
-9.027667e-06 8.305394e-06 4.669315e-07
1.624633e-05 9.055594e-07 -7.983412e-07
1.624633e-05 -9.055594e-07 -7.983412e-07
-3.709488e-06 1.269272e-05 1.798368e-06
3.172317e-06 -1.224906e-05 -1.286835e-06
-9.471343e-06 -1.063205e-05 2.105412e-06
7.027755e-06 -1.143258e-05 -1.904333e-06
8.718446e-06 -8.732139e-06 -7.145421e-07
8.718446e-06 8.732139e-06 -7.145421e-07
-1.463793e-05 -2.708206e-06 -2.029943e-06
-5.392156e-07 -1.234336e-05 7.566748e-07
-3.623159e-06 -1.276267e-05 -1.824112e-06
1.405317e-05 -4.679829e-06 -2.049197e-06
1.405317e-05 4.679829e-06 -2.049197e-06
1.475411e-05 5.580570e-06 1.526258e-06
1.475411e-05 -5.580570e-06 1.526258e-06
-3.190576e-06 1.192386e-05 7.253214e-07
1.293236e-05 1.013185e-05 -5.160748e-22
-3.208183e-06 1.537006e-05 -1.592484e-06
6.054778e-06 -1.442670e-05 -1.638960e-06
3.137203e-06 -1.598220e-05 7.589943e-07
-1.151558e-05 -4.109554e-06 -2.275713e-07
1.067287e-05 -7.086015e-06 -1.468900e-06
1.067287e-05 7.086015e-06 -1.468900e-06
2.499063e-06 1.462097e-05 2.044033e-06
1.354731e-05 2.870291e-06 2.053127e-06
1.354731e-05 -2.870291e-06 2.053127e-06
1.045487e-05 1.254490e-05 -6.361749e-07
1.045487e-05 -1.254490e-05 -6.361749e-07
-1.467442e-05 7.145002e-06 -6.635109e-07
-3.548992e-06 -1.497988e-05 -1.813394e-06
-4.225492e-06 -1.475871e-05 -1.838080e-06
-9.777472e-06 -1.220049e-05 1.647665e-06
-1.177824e-05 -1.039843e-05 1.583516e-06
-1.439868e-05 1.398837e-07 2.105600e-06
-6.504319e-06 -1.210761e-05 2.026348e-06
-3.327092e-06 -1.520258e-05 1.702958e-06
[...]
POINT_DATA 1574
VECTORS 10.000GHz_fone_imag double
2.533763e-03 4.439265e-04 2.179856e-02
8.068954e-05 -4.409347e-04 2.455094e-02
3.179943e-04 6.023652e-04 2.397475e-02
2.680382e-02 2.583119e-02 -7.828099e-03
2.665771e-03 -9.043252e-03 2.269341e-02
2.036269e-03 -1.038910e-02 2.260159e-02
1.083445e-02 1.251532e-02 -5.814939e-02
2.220522e-02 2.092843e-02 1.059173e-02
2.138705e-02 -2.032068e-02 9.581113e-03
-2.443176e-02 3.293040e-03 -4.566859e-02
1.095583e-02 2.676214e-02 1.157362e-02
3.566590e-02 1.397106e-03 -3.452021e-02
2.080483e-02 8.641059e-03 1.743186e-02
-6.357107e-04 3.129797e-04 2.233474e-02
1.808383e-02 -3.355057e-02 -2.045569e-02
2.040669e-02 3.737873e-02 -2.207966e-02
-5.265031e-03 3.097169e-02 9.655588e-03
-2.211764e-02 2.807672e-02 -3.795879e-02
-2.310197e-02 -2.708024e-02 -4.086242e-02
5.499532e-03 -2.611579e-02 1.401802e-02
-1.669229e-02 1.447937e-02 1.656691e-02
-1.620445e-02 -1.490867e-02 1.596504e-02
-4.984921e-03 -3.881153e-03 -5.913827e-02
-1.393939e-02 3.474831e-02 -2.038501e-04
-3.138528e-04 -1.565226e-04 2.252436e-02
-2.310955e-04 -2.405199e-03 -5.567563e-02
-3.110266e-02 -1.924391e-02 -3.020760e-02
-4.136639e-02 -6.314221e-03 -9.933647e-03
-8.737133e-03 -2.947731e-02 5.792089e-03
-3.879943e-03 7.869727e-03 2.362881e-02
1.082430e-02 3.655356e-02 -1.035539e-02
1.290792e-03 -1.356118e-02 -6.038479e-02
-5.404123e-03 -7.668955e-03 2.290688e-02
-2.958991e-02 -2.255014e-02 2.151082e-03
-2.655188e-02 2.015906e-02 1.884945e-03
1.586973e-04 -3.346706e-04 2.425268e-02
2.043241e-02 1.812658e-02 1.429045e-02
1.895714e-02 -1.627808e-02 1.269897e-02
3.427647e-02 5.641511e-03 2.210174e-03
2.211927e-02 -1.260476e-02 1.570359e-02
-2.928071e-02 1.020342e-02 -5.003550e-02
1.727444e-02 -2.710862e-02 3.266386e-03
7.542982e-03 1.058267e-02 -5.695899e-02
-4.558533e-03 6.741416e-03 2.214995e-02
-2.570559e-02 -3.160299e-02 -2.705695e-02
3.401612e-02 -1.050329e-02 3.526525e-03
4.085514e-04 -2.703032e-04 2.365049e-02
3.614778e-03 1.368945e-02 -5.326192e-02
6.875814e-04 -1.022029e-02 -5.564013e-02
-1.583042e-02 3.938927e-02 -1.619450e-02
-2.575052e-02 -3.183579e-03 1.373165e-02
-1.652780e-02 -2.301737e-02 1.274048e-02
-1.502534e-02 2.041966e-02 1.244923e-02
-7.632407e-03 2.015835e-02 1.848427e-02
1.770291e-02 2.215367e-03 -5.756090e-02
-1.499497e-02 -9.795515e-03 -5.885740e-02
-8.538467e-03 5.311751e-03 1.998676e-02
-1.159031e-02 -6.316657e-05 2.313498e-02
-8.560632e-03 -5.336655e-03 1.997357e-02
1.266398e-02 2.327925e-02 1.214715e-02
3.235000e-02 1.534921e-02 -1.680032e-03
1.683179e-02 6.815323e-03 -5.257002e-02
2.315138e-02 1.099647e-02 1.310430e-02
2.317659e-02 -1.100924e-02 1.310137e-02
4.458852e-03 5.891607e-03 2.058646e-02
4.009383e-02 -2.724226e-04 -2.252209e-02
3.722616e-02 -1.272628e-03 -2.058599e-02
8.992751e-03 3.776845e-03 2.270321e-02
-2.372095e-02 -4.806635e-04 1.632737e-02
-1.488961e-02 3.682564e-02 -2.023527e-02
-1.456551e-02 -2.560398e-02 -4.052335e-02
1.909886e-03 1.121419e-02 -5.708641e-02
-1.705531e-02 8.399658e-03 -4.988601e-02
-1.709271e-02 -8.305349e-03 -4.986325e-02
-3.219081e-02 -2.204338e-02 -2.283718e-02
-3.407910e-02 2.534983e-02 -2.347340e-02
-8.171244e-03 1.622574e-03 2.112733e-02
-2.160026e-03 2.165854e-02 1.814909e-02
5.819867e-03 -2.342756e-02 1.648129e-02
-3.234894e-02 3.626311e-04 5.941685e-03
3.458983e-02 -1.001735e-02 -3.761205e-02
9.692773e-03 -4.910973e-03 2.292410e-02
-8.019056e-03 1.763537e-02 1.640059e-02
7.601096e-03 2.203434e-03 2.120768e-02
1.383551e-02 -8.071722e-03 -5.761490e-02
-3.488902e-02 -1.034677e-02 -2.626004e-02
1.961227e-02 1.382545e-02 -4.958957e-02
-2.831475e-02 -1.323817e-02 -4.678807e-02
-4.992121e-03 -8.890147e-03 2.113625e-02
2.468673e-04 1.008718e-02 2.137151e-02
-3.960878e-02 4.474386e-04 -1.230801e-02
-7.667222e-03 -5.544486e-03 -5.507920e-02
-7.120027e-03 7.639545e-03 -5.482642e-02
8.542834e-03 2.033441e-02 1.497714e-02
-3.467173e-03 -2.739419e-02 1.312555e-02
1.716928e-02 -1.808729e-02 1.365506e-02
7.087835e-04 2.063218e-02 1.715309e-02
-6.285549e-04 -2.187978e-02 1.767261e-02
7.556895e-03 -4.411140e-03 2.307223e-02
5.585133e-03 2.014179e-02 1.681741e-02
-1.513971e-03 -8.846367e-03 2.042850e-02
-3.955670e-02 -2.080631e-03 -3.126339e-02
1.427828e-03 9.291476e-03 2.293196e-02
3.509762e-03 -4.161178e-02 -1.303208e-02
-1.198439e-02 2.230296e-02 -5.591898e-02
1.857841e-03 -2.437869e-02 1.384381e-02
4.138070e-03 8.198574e-03 2.048021e-02
2.434196e-03 -2.961982e-02 1.111411e-02
-1.498582e-02 -2.325353e-02 1.276352e-02
-5.821529e-03 1.840848e-05 -5.790568e-02
1.479597e-03 1.068403e-02 -5.766118e-02
2.848980e-02 -1.033791e-02 1.013427e-02
8.644354e-04 -1.342733e-04 2.266770e-02
-2.429996e-02 1.577104e-04 -5.452863e-02
2.843986e-02 1.034477e-02 1.012568e-02
3.429797e-02 -1.284315e-02 -3.883723e-02
3.410173e-02 1.253973e-02 -3.945153e-02
-1.450870e-02 1.833696e-02 1.648302e-02
1.658991e-02 -1.168311e-02 -5.761840e-02
1.677294e-02 1.073236e-02 -5.599670e-02
-2.808114e-03 -1.946418e-02 -4.931954e-02
-1.758373e-03 2.866297e-02 -4.371517e-02
2.127287e-02 1.310557e-02 1.633655e-02
-1.864366e-02 9.909182e-03 -5.469610e-02
1.812706e-03 1.453402e-03 -5.534195e-02
2.138805e-02 -1.893646e-03 1.480851e-02
-8.183942e-03 6.528328e-03 2.084716e-02
-9.730577e-03 2.185606e-03 2.210839e-02
-1.717308e-02 9.255835e-03 -5.063976e-02
-1.700730e-02 -9.268756e-03 -5.066504e-02
-9.036420e-03 -5.686475e-04 2.328014e-02
-8.066529e-03 6.629683e-04 2.172182e-02
-3.422944e-03 -7.400016e-03 2.323117e-02
-1.199880e-03 -7.095675e-03 2.276307e-02
-5.280870e-03 -1.808446e-02 -5.427465e-02
2.391489e-02 -1.006451e-03 -5.459526e-02
-1.054412e-03 -1.618965e-03 -6.236982e-02
-2.360326e-03 9.688526e-04 -5.634096e-02
-1.149479e-02 3.237862e-03 -5.959697e-02
-1.769878e-02 -3.071568e-02 -3.917251e-02
-1.104740e-02 -3.525658e-02 5.896018e-04
1.112100e-04 -7.608968e-03 2.291528e-02
-1.698661e-03 1.769232e-03 -5.836583e-02
-2.724494e-03 -3.175016e-04 -5.611144e-02
2.038645e-03 8.116150e-03 2.244880e-02
-6.497682e-03 -6.749716e-03 2.251181e-02
4.031636e-02 -2.217416e-04 -3.279567e-02
-6.550908e-03 5.775602e-03 2.259697e-02
2.746867e-02 1.902922e-03 1.423653e-02
-3.552928e-02 2.038604e-02 -9.807778e-03
1.048381e-02 -7.423494e-05 2.167559e-02
1.000567e-02 3.516588e-02 -2.017065e-03
3.556258e-02 -2.060099e-02 -8.650834e-03
1.282013e-02 1.703950e-02 1.735855e-02
3.534314e-02 -1.440784e-02 -3.323006e-02
-1.087294e-02 -2.151991e-02 1.431541e-02
2.804856e-02 -2.383441e-02 -3.430656e-02
3.665603e-02 1.320228e-03 -9.717894e-03
2.424658e-02 1.391012e-02 1.292552e-02
-2.908580e-02 1.109053e-02 1.068515e-02
-3.926869e-02 1.570507e-02 -2.259266e-02
-3.932913e-02 -1.575762e-02 -2.258247e-02
-1.706788e-02 3.050207e-02 -3.360732e-02
1.487137e-02 -2.969570e-02 -4.608436e-02
1.450885e-02 3.152808e-02 -4.406703e-02
1.275699e-02 -3.848784e-02 -1.891346e-02
-2.806531e-02 -1.929953e-02 2.008546e-03
-1.379223e-02 -3.405211e-02 -3.230061e-02
3.514149e-02 -1.697750e-05 4.450532e-03
-7.181771e-05 -2.379453e-02 1.803048e-02
-5.115727e-03 7.553559e-03 2.298997e-02
-1.075411e-03 -8.196801e-03 2.095925e-02
9.648102e-03 -2.903389e-02 -4.775096e-02
-2.270620e-02 2.536175e-02 3.779465e-03
-5.450207e-03 -4.122427e-02 -2.500323e-02
-2.755208e-03 2.196426e-02 1.567961e-02
3.919018e-02 -7.881666e-03 -1.979705e-02
9.190394e-03 -2.192907e-03 2.052515e-02
-5.510961e-03 -7.520317e-03 2.228582e-02
2.365846e-02 -3.065032e-05 1.691995e-02
1.455203e-03 -1.316166e-02 -5.382690e-02
7.676183e-03 -3.546868e-03 2.136786e-02
7.671395e-03 3.540130e-03 2.136168e-02
-1.650524e-02 -1.816610e-02 1.308319e-02
-1.316621e-02 -1.704516e-02 1.828131e-02
3.419120e-03 -3.769757e-02 -7.162372e-03
7.718488e-03 8.229119e-04 2.097063e-02
-1.037187e-02 -2.174677e-02 1.271283e-02
2.708356e-02 -2.320852e-02 -3.328309e-02
3.001480e-02 2.455850e-02 -3.651582e-02
1.075913e-02 -4.724588e-05 2.190819e-02
1.669185e-02 -1.271635e-02 1.902918e-02
1.670123e-02 1.284294e-02 1.867196e-02
-5.479341e-03 2.227448e-02 -5.645594e-02
4.251162e-02 -3.191890e-03 -1.590311e-02
2.298823e-02 -1.070260e-02 -5.234458e-02
-7.751703e-03 -9.560517e-04 2.187633e-02
1.498005e-02 -2.290656e-02 1.361507e-02
1.298865e-02 -1.792372e-02 -5.550950e-02
7.815502e-03 6.748945e-03 2.115439e-02
2.390908e-02 1.364684e-02 1.103991e-02
2.218724e-02 3.602394e-02 -2.318137e-02
2.388901e-02 -1.376311e-02 1.107895e-02
-3.487041e-02 -2.411586e-02 -1.461281e-02
1.820770e-02 2.277375e-02 -4.048989e-02
3.303339e-03 -6.228030e-03 2.111101e-02
7.144442e-03 -3.699733e-03 -5.753270e-02
8.437190e-03 -1.887135e-04 2.235838e-02
7.748183e-03 -7.444528e-05 2.081533e-02
9.149463e-03 -4.026477e-02 -2.637091e-02
9.490437e-03 -3.128654e-02 -4.498839e-02
2.422612e-02 2.675786e-02 -3.309112e-03
2.171834e-02 -3.450696e-02 -2.258011e-02
1.428074e-02 -1.241989e-02 -5.766527e-02
9.258706e-03 1.284925e-02 -5.505809e-02
-3.086864e-02 -5.430028e-03 7.597248e-03
5.743918e-04 2.068921e-02 -5.685169e-02
-1.179866e-02 -3.879814e-02 -2.633881e-02
3.185086e-02 -1.056922e-02 6.483781e-03
3.177478e-02 1.062443e-02 6.456565e-03
-1.840822e-02 -7.239313e-03 1.726796e-02
-1.851126e-02 7.119270e-03 1.734687e-02
7.043541e-03 -1.471261e-02 -5.443291e-02
3.497131e-04 6.647552e-04 2.246692e-02
-4.485924e-03 1.893576e-02 1.741893e-02
9.741704e-03 -2.079168e-02 1.634770e-02
-1.569343e-03 8.135821e-03 2.212428e-02
-5.557669e-03 -1.951829e-03 -6.082380e-02
3.113210e-02 -1.979163e-02 -3.926370e-02
3.102075e-02 1.844395e-02 -3.948106e-02
-5.207462e-03 -3.068591e-02 7.064875e-03
-4.027113e-02 -8.664772e-03 -1.039066e-02
-4.009471e-02 9.599448e-03 -9.553034e-03
5.889730e-03 5.623181e-03 2.257683e-02
4.742159e-03 -5.092957e-03 2.086730e-02
-6.547680e-03 3.963501e-03 2.129117e-02
-5.353236e-03 -2.281233e-02 1.443354e-02
-6.320804e-03 -2.598146e-02 1.185786e-02
1.447037e-02 1.846279e-02 1.731607e-02
1.568872e-02 1.440698e-02 1.666304e-02
3.729010e-02 -2.215720e-03 -8.873525e-06
2.056608e-02 3.681013e-02 -1.464616e-02
5.041244e-03 2.376084e-02 1.687230e-02
-7.478226e-03 4.025653e-02 -1.028622e-02
-4.220281e-03 6.169079e-03 2.387268e-02
-4.077223e-02 2.756103e-03 -9.831780e-03
-1.000596e-02 -5.645665e-03 2.211503e-02
1.212172e-02 4.047266e-02 -2.104364e-02
5.243286e-03 -5.568954e-03 2.114795e-02
4.881699e-03 -3.234144e-02 -4.593712e-02
-2.317726e-02 -6.190754e-03 -5.554729e-02
-3.015745e-02 -2.907326e-02 -9.037752e-03
-3.705595e-02 -8.683995e-03 -1.237510e-02
1.670285e-03 3.496684e-02 -2.017703e-03
4.052437e-02 9.287782e-03 -9.594136e-03
4.055690e-02 -8.955999e-03 -9.212671e-03
-3.315425e-02 2.339135e-02 -2.935228e-02
-9.819904e-03 -2.685957e-02 1.046266e-02
8.083145e-03 1.233762e-03 2.289531e-02
8.007688e-03 -1.222408e-03 2.282451e-02
-8.739867e-03 -2.346540e-02 1.375081e-02
2.243731e-02 -2.857702e-02 2.137949e-03
2.919269e-03 -7.718576e-03 2.350132e-02
2.490526e-03 8.041765e-03 2.060310e-02
7.967065e-03 3.748322e-02 -1.362437e-02
1.118553e-02 -3.078009e-02 4.450718e-03
1.685994e-02 -3.754984e-02 -7.314827e-03
-1.793846e-02 -3.320704e-02 1.361789e-03
-1.631494e-02 2.159267e-02 -4.746928e-02
1.667621e-02 -1.422674e-02 1.643600e-02
-1.247808e-02 1.423434e-02 1.733883e-02
-1.231540e-02 -1.531963e-02 1.879315e-02
-3.740961e-03 2.058661e-02 1.630428e-02
2.247126e-02 2.046730e-03 1.723772e-02
2.100497e-02 -2.318274e-03 1.871149e-02
-1.704780e-02 -1.426361e-02 1.417745e-02
-1.905247e-02 1.701856e-02 1.487844e-02
-1.337664e-02 -2.191659e-02 1.201546e-02
-3.898780e-03 -8.144682e-03 2.269420e-02
-2.052803e-02 1.142470e-03 -4.923628e-02
3.638421e-03 7.000810e-03 2.346030e-02
3.658128e-02 -1.716411e-02 -7.212684e-03
3.656660e-02 1.714632e-02 -7.207560e-03
2.412525e-02 5.295530e-03 1.586223e-02
2.379066e-02 -5.570985e-03 1.589375e-02
-1.318852e-02 3.439965e-02 -2.675171e-02
-1.590638e-02 -3.663323e-02 -3.070953e-02
1.701136e-03 -7.978849e-03 2.335221e-02
-2.335044e-03 8.311938e-03 2.295020e-02
6.044280e-03 2.575298e-03 -6.246706e-02
-2.981422e-02 2.044930e-02 -7.219381e-03
-4.825636e-03 2.350696e-02 1.602143e-02
1.346201e-03 -2.658732e-02 -5.223429e-02
-6.596315e-03 6.656771e-03 2.260092e-02
-2.163916e-02 3.416958e-02 -4.072821e-03
7.109104e-04 2.378063e-02 1.403170e-02
2.659240e-02 -2.802937e-02 -1.066074e-02
-7.431231e-03 -2.919893e-03 2.145817e-02
-7.423779e-03 2.890175e-03 2.145515e-02
7.966355e-03 -1.875497e-03 2.249643e-02
2.711609e-03 9.896469e-03 -5.991772e-02
-3.024160e-02 -1.911918e-02 -7.499295e-03
1.864820e-02 3.609197e-02 -7.153389e-03
-2.647419e-02 2.041244e-02 5.203873e-03
-3.397744e-02 7.834528e-03 7.404502e-03
-6.931270e-03 -6.571470e-03 2.302757e-02
6.989951e-03 -3.257756e-03 2.322243e-02
-2.220275e-02 -7.480573e-03 1.617655e-02
8.127943e-03 -3.889955e-02 -6.667969e-03
-8.322561e-05 6.705331e-03 2.364014e-02
-3.968723e-02 1.126635e-02 -2.713341e-02
-3.108372e-02 7.880770e-03 -4.896748e-02
-5.498626e-03 -4.857807e-03 -6.014654e-02
-2.197834e-02 -3.342433e-02 -7.063007e-03
3.672045e-03 -8.552260e-03 -5.386463e-02
2.457809e-02 -2.572466e-03 -5.424067e-02
1.657599e-02 -2.131230e-02 1.064633e-02
4.085332e-02 -1.268403e-02 -1.062429e-02
-1.318226e-03 9.797651e-03 2.301353e-02
-6.089388e-03 4.471803e-03 2.325885e-02
-5.824878e-03 -4.414695e-03 2.325911e-02
4.214834e-03 -7.726502e-03 2.289096e-02
-2.790234e-02 3.023403e-02 -1.093471e-02
2.334354e-02 -1.437452e-02 1.019053e-02
-1.273970e-02 3.693294e-02 -1.174100e-03
-9.480858e-03 -2.571667e-04 2.135586e-02
1.554345e-02 3.197518e-02 -3.240594e-02
-1.810647e-02 3.341648e-02 -7.139889e-04
-1.846352e-02 2.519004e-03 -5.680925e-02
-1.812061e-02 -2.309616e-03 -5.064605e-02
-3.992404e-02 9.720340e-03 -1.497695e-02
-4.053872e-02 -1.012509e-02 -1.472764e-02
-8.466721e-03 -1.631153e-02 -5.646963e-02
2.863999e-03 -1.690611e-03 -5.854877e-02
1.708324e-03 9.823561e-04 2.306962e-02
2.331572e-02 1.431766e-02 1.022673e-02
-1.126448e-02 -3.335104e-02 3.500885e-03
3.872619e-03 4.149054e-02 -2.701194e-02
-6.602028e-03 -4.104751e-02 -1.421538e-02
2.026959e-02 1.351436e-03 1.789306e-02
8.495197e-03 4.373195e-03 2.262677e-02
1.535381e-02 -2.498073e-02 9.218415e-03
1.413436e-02 2.673864e-02 8.501837e-03
-1.513767e-02 -3.504777e-02 -2.449732e-03
4.747449e-03 -6.031232e-03 2.319371e-02
-2.452143e-02 -2.700365e-02 -3.689465e-02
-2.511514e-03 4.150563e-02 -2.947656e-02
-2.901548e-02 -2.936655e-02 -1.842324e-02
-2.877211e-02 3.073262e-02 -1.997870e-02
2.422427e-04 -3.051303e-02 -4.810271e-02
2.097895e-02 3.034715e-02 -7.579065e-03
-1.606447e-02 2.854465e-02 -4.570090e-02
5.880271e-03 4.965430e-03 2.223067e-02
5.783413e-03 -5.063958e-03 2.221385e-02
1.175440e-02 1.415745e-02 -5.379684e-02
2.222616e-02 3.356492e-03 1.797338e-02
1.197200e-02 3.299891e-02 -4.221497e-02
-2.428241e-03 -1.021829e-02 -5.744625e-02
-1.952770e-02 -2.247067e-02 -5.084773e-02
-1.721237e-02 2.093638e-02 -5.063695e-02
1.739676e-02 -6.577177e-03 1.973750e-02
1.738349e-02 6.598698e-03 1.973114e-02
3.455946e-02 2.108440e-03 -4.504823e-02
3.394636e-02 -2.224967e-03 -4.441645e-02
1.376593e-02 7.200261e-03 -5.927144e-02
1.386491e-02 -7.139561e-03 -5.924005e-02
-1.061917e-03 -2.220193e-02 1.820967e-02
-1.548602e-02 -1.748727e-02 -4.871367e-02
1.590389e-02 -2.533738e-02 -5.056685e-02
-2.031398e-02 -1.095420e-02 1.724920e-02
-2.032634e-02 1.094235e-02 1.725542e-02
-2.258755e-03 -8.310180e-03 2.301039e-02
-2.976962e-03 -7.694989e-03 2.298391e-02
-2.734749e-02 1.886453e-02 7.670521e-03
-3.200169e-02 1.040742e-02 8.082248e-03
-1.838813e-02 -8.350071e-03 1.874062e-02
-2.075398e-02 -3.558943e-02 -1.881551e-02
2.725007e-03 -3.995751e-02 -3.379576e-02
2.969359e-02 1.564061e-02 4.835336e-03
1.544371e-02 2.339309e-02 -4.603215e-02
2.971793e-02 -1.564486e-02 4.794294e-03
3.383778e-02 1.734273e-02 -8.614699e-03
-3.276540e-02 2.549067e-02 -2.827349e-02
-3.152991e-02 -2.591339e-02 -2.606471e-02
7.223256e-03 4.212220e-03 -5.419223e-02
-1.471933e-02 -3.401252e-02 -2.526434e-02
-1.154242e-02 -1.655390e-02 1.624925e-02
4.274025e-04 -2.970174e-03 -5.769691e-02
3.060561e-02 -1.194758e-02 7.583163e-03
-1.124756e-02 -3.870551e-02 -9.750300e-03
4.632140e-03 4.461755e-04 -6.312546e-02
-2.602606e-02 2.046104e-02 -4.551811e-02
-2.178774e-02 -2.732314e-02 1.285428e-03
-2.343098e-02 2.979421e-02 1.222050e-03
2.376475e-02 -4.360349e-03 -5.283425e-02
2.619398e-02 3.435209e-03 -5.176456e-02
-3.563313e-02 1.058269e-02 -4.113645e-02
-3.583749e-02 -1.077751e-02 -4.137444e-02
1.535299e-02 -3.407850e-02 -3.822220e-03
-8.923089e-03 2.866847e-02 -4.947023e-02
1.745923e-02 1.729425e-02 1.678740e-02
-1.565269e-02 -4.611717e-03 1.800135e-02
2.677193e-02 1.905746e-02 -4.337668e-02
1.029111e-02 -1.875171e-02 1.945692e-02
3.560371e-02 7.166190e-03 -5.905524e-03
2.025547e-02 -3.128805e-02 -3.551934e-02
-2.609207e-03 -6.321467e-03 2.197452e-02
1.055298e-03 3.646783e-02 -2.332745e-03
-1.895881e-02 1.506732e-02 -5.307154e-02
-2.167296e-02 -1.452448e-02 -5.369892e-02
8.759424e-03 3.175784e-02 4.503688e-03
-6.365453e-03 -4.060525e-02 -9.645363e-03
-1.479255e-02 4.172676e-03 1.846952e-02
3.239793e-02 2.163398e-02 -5.206463e-03
7.403201e-03 -9.790590e-03 -6.121666e-02
-8.909332e-03 -1.352648e-03 2.307150e-02
-8.181445e-03 9.096274e-04 2.113389e-02
-8.374092e-03 3.722892e-04 2.348742e-02
-8.423129e-03 -1.401517e-04 2.306311e-02
-7.669726e-03 3.502494e-02 6.138616e-03
2.133895e-02 -1.360351e-02 -4.767929e-02
-4.689738e-03 7.331366e-03 2.207370e-02
1.098453e-03 7.706171e-03 2.329069e-02
1.018534e-02 -2.604566e-02 -4.515955e-02
-1.412352e-02 2.758356e-02 1.024382e-02
-7.253530e-03 -2.553104e-03 2.195476e-02
-6.892325e-03 -4.396210e-03 2.254540e-02
1.865806e-02 -2.780616e-02 5.355969e-03
2.029200e-02 2.790027e-02 5.029476e-03
-9.402496e-03 -2.714563e-03 2.262696e-02
-9.052584e-03 2.919517e-03 2.244274e-02
6.180276e-03 2.123329e-02 1.785451e-02
-3.738206e-04 -5.679639e-03 2.344408e-02
1.991604e-02 2.347034e-02 -4.804678e-02
2.390756e-02 8.775863e-03 -4.780534e-02
2.162766e-02 -2.217173e-02 -4.987676e-02
2.512684e-02 -2.870058e-02 -3.317489e-02
-1.446061e-02 9.083027e-03 -5.302023e-02
-1.654762e-02 -1.099005e-02 -5.627634e-02
1.592350e-02 -1.709490e-02 -5.460886e-02
-1.313848e-02 1.543082e-02 1.696891e-02
-1.234197e-02 -1.508390e-02 1.809362e-02
1.642087e-02 -6.051211e-03 -5.323004e-02
2.283492e-02 -1.671397e-02 9.878684e-03
2.292333e-02 1.669171e-02 9.374668e-03
-6.695379e-05 3.742434e-04 2.364255e-02
8.918867e-04 2.929347e-02 -4.196524e-02
2.582100e-03 9.063867e-03 2.269409e-02
-2.265748e-02 -2.077326e-02 8.937250e-03
-2.561726e-02 -1.695772e-02 -4.216083e-02
-1.604447e-02 2.255170e-02 1.006415e-02
-1.887524e-02 1.410486e-02 1.737538e-02
-2.251032e-02 5.991062e-03 1.746484e-02
2.190347e-03 1.027452e-02 -5.647897e-02
5.879014e-03 2.079976e-02 -5.548057e-02
-5.069808e-03 3.001659e-05 -6.233755e-02
-8.205753e-04 -3.513351e-02 -2.907940e-02
1.198802e-02 2.381660e-02 -5.351544e-02
2.260876e-02 -3.517252e-02 -1.053343e-02
2.260649e-02 3.571118e-02 -9.880355e-03
-1.505201e-02 7.365219e-03 2.027533e-02
-3.559193e-02 -1.533881e-02 -5.373155e-03
-3.561145e-02 1.531010e-02 -5.430083e-03
-1.575450e-02 -5.504848e-03 1.736384e-02
-6.005910e-03 4.661697e-03 2.154225e-02
-6.090844e-03 -4.571161e-03 2.148221e-02
-3.707155e-02 -1.777451e-02 -1.628121e-02
-7.795071e-03 2.519453e-02 1.523874e-02
1.598239e-02 -5.093847e-03 1.892998e-02
-1.557845e-02 -3.151369e-02 -4.301821e-02
-2.635534e-02 -2.832646e-02 -4.904863e-03
-3.503516e-02 -1.934972e-02 -5.420639e-03
-2.817620e-03 -1.957938e-02 1.922519e-02
-7.571354e-03 -9.547660e-03 -5.852261e-02
-3.290552e-02 -5.887924e-03 -4.399844e-02
-3.259994e-02 4.645824e-03 -3.951714e-02
1.833112e-03 -9.192717e-04 -6.305259e-02
-2.044737e-02 -1.312541e-02 1.630276e-02
-2.072322e-02 1.299299e-02 1.634971e-02
1.613293e-02 5.204627e-03 1.892526e-02
-1.743840e-02 3.275291e-02 -3.876706e-02
4.679043e-04 1.933576e-03 -5.623622e-02
1.283870e-02 3.242751e-02 -3.487876e-02
-1.085356e-02 -1.573616e-02 1.833772e-02
1.304659e-02 2.707757e-02 7.632745e-03
-2.780823e-02 2.473738e-02 -2.477810e-03
-2.884221e-02 -2.535177e-02 -1.928544e-03
-1.677031e-03 1.972483e-02 1.841920e-02
1.749431e-02 3.619254e-02 -4.986965e-03
-5.818600e-03 1.089017e-03 2.275046e-02
-3.865524e-02 -9.945640e-03 -3.310831e-02
-4.737145e-03 -1.727346e-03 2.158668e-02