# vtk DataFile Version 2.0
Electric current density generated by TTH
ASCII
DATASET UNSTRUCTURED_GRID
POINTS 1523 double
1.555678e-05 -3.810313e-21 -5.302290e-22
1.303796e-05 8.486769e-06 -5.302290e-22
1.474171e-05 -3.610677e-21 1.692528e-06
-1.167433e-05 2.110364e-06 -1.533104e-06
-4.484953e-06 1.243736e-05 -2.158087e-06
-1.396986e-05 -3.871291e-06 -1.861935e-06
1.431482e-05 6.857996e-07 -1.950439e-06
1.431482e-05 -6.857996e-07 1.950439e-06
5.616561e-06 1.037080e-05 -1.460515e-06
-3.706551e-06 -1.494923e-05 8.041613e-07
1.259489e-05 3.871839e-06 2.154084e-06
1.259489e-05 -3.871839e-06 -2.154084e-06
-1.074304e-05 -6.545142e-06 -2.006712e-06
1.387368e-05 -3.398071e-21 2.110547e-06
-8.871777e-06 -1.113510e-05 1.992981e-06
-1.154940e-05 1.020752e-05 -7.739645e-07
5.089060e-06 1.371990e-05 1.773553e-06
1.277479e-05 8.645490e-06 -7.429721e-07
3.778931e-06 1.492415e-05 -8.207868e-07
1.265690e-05 3.031413e-06 -2.131727e-06
1.264897e-05 -3.045574e-06 2.130944e-06
-7.122159e-06 -8.782912e-06 5.851826e-07
-1.471660e-05 4.007420e-06 1.106781e-06
6.310875e-06 -9.623733e-06 1.067092e-06
1.291024e-05 -3.162097e-21 2.110547e-06
-7.307748e-06 -1.003578e-05 -1.931592e-06
-1.412233e-05 2.769567e-06 1.920337e-06
-1.201016e-05 4.340343e-06 -2.073667e-06
-8.850787e-06 -8.922212e-06 2.001685e-06
-1.237961e-05 -3.649010e-06 -2.109620e-06
-1.009364e-05 8.025610e-06 -2.107111e-06
-7.740441e-06 -1.334683e-05 -7.329057e-07
-1.451535e-05 -9.990495e-09 -1.850527e-06
-4.462813e-06 1.037288e-05 -5.266663e-07
-2.909985e-06 -1.226564e-05 2.017153e-06
1.204221e-05 -2.949492e-21 1.692528e-06
-9.237154e-06 1.237694e-05 -6.899579e-07
9.850936e-06 -9.831894e-06 -2.099972e-06
-5.403223e-06 -9.854325e-06 2.209485e-07
4.965778e-06 -1.053227e-05 -1.277435e-06
8.389604e-06 -1.292801e-05 -7.793104e-07
5.022532e-06 1.222176e-05 2.157458e-06
-7.301616e-07 -1.252321e-05 1.992045e-06
1.026847e-05 -7.152239e-06 -1.978726e-06
4.297131e-06 1.165466e-05 -1.935172e-06
-1.277485e-05 1.046511e-06 -2.087253e-06
1.144152e-05 -2.802364e-21 9.392820e-07
6.801634e-06 -1.326321e-05 -1.547761e-06
-1.302721e-05 -2.884963e-06 2.164267e-06
-1.420316e-05 -5.949355e-06 8.116935e-07
-1.535266e-05 -1.381431e-06 7.713839e-07
1.243531e-05 -6.574886e-07 -1.950439e-06
1.243531e-05 6.574886e-07 1.950439e-06
-9.301919e-06 9.507774e-06 -2.162923e-06
-1.433250e-05 5.665987e-06 7.788713e-07
1.326335e-05 -7.847612e-06 -7.807770e-07
1.330272e-05 7.771264e-06 7.929577e-07
1.122714e-05 -2.749855e-21 2.651145e-22
-1.179369e-05 -2.486619e-06 1.701059e-06
-1.300275e-05 1.806976e-06 2.148635e-06
3.143234e-06 -1.346434e-05 -2.120791e-06
-2.442445e-06 -1.459793e-05 1.643626e-06
-1.462344e-05 4.832126e-06 -8.060632e-07
-1.471471e-05 -6.401047e-07 1.702879e-06
1.168087e-05 -6.588516e-07 1.349746e-06
1.168087e-05 6.588516e-07 -1.349746e-06
-1.310294e-05 8.102752e-06 -7.940466e-07
1.084231e-05 -9.720989e-06 1.821358e-06
1.144152e-05 -2.802364e-21 -9.392820e-07
-5.050786e-20 1.544849e-05 -6.761304e-07
2.670645e-06 1.433926e-05 -1.805857e-06
7.606371e-07 1.460206e-05 -1.781520e-06
3.563998e-06 1.081040e-05 -8.059295e-07
-1.219094e-05 -3.901319e-06 2.082310e-06
-3.335243e-06 1.254109e-05 2.124683e-06
1.997243e-06 1.232204e-05 1.964684e-06
-1.966001e-06 1.452778e-05 1.754431e-06
-1.766672e-06 -1.452416e-05 -1.775028e-06
1.326698e-06 -1.330438e-05 -2.164716e-06
1.204221e-05 -2.949492e-21 -1.692528e-06
-1.318471e-06 -1.116020e-05 2.147525e-07
8.015309e-07 1.539526e-05 7.676400e-07
1.020863e-05 -8.172707e-06 -2.141797e-06
-1.103416e-05 -9.008899e-06 1.989777e-06
1.641996e-06 1.304654e-05 -2.151199e-06
9.788460e-06 6.484235e-06 1.400694e-06
5.512405e-06 -1.438472e-05 7.969251e-07
-1.089867e-05 2.718667e-06 -1.542250e-07
-1.128869e-05 7.400550e-06 -2.162213e-06
6.940179e-06 -1.375362e-05 7.951758e-07
1.291024e-05 -3.162097e-21 -2.110547e-06
1.039233e-05 4.315276e-06 -3.313706e-07
1.039251e-05 -4.314703e-06 3.310255e-07
1.538708e-05 8.089170e-07 7.878580e-07
1.538708e-05 -8.089170e-07 -7.878580e-07
-6.639973e-06 9.558345e-06 -1.269377e-06
-6.164585e-06 1.185387e-05 2.164603e-06
-1.428127e-05 9.119110e-07 -1.960361e-06
9.029128e-06 9.236199e-06 2.111936e-06
-1.481779e-05 -1.170224e-06 -1.587384e-06
9.189957e-06 1.169600e-05 -1.577479e-06
1.387368e-05 -3.398071e-21 -2.110547e-06
1.472458e-05 2.030189e-06 1.587426e-06
1.472458e-05 -2.030189e-06 -1.587426e-06
1.116677e-05 9.336124e-06 -1.825607e-06
9.208411e-06 -1.171121e-05 -1.555192e-06
1.003805e-07 -1.305931e-05 2.139174e-06
-1.257592e-05 -2.075046e-06 -2.066193e-06
-9.392651e-06 -8.294938e-06 1.986289e-06
-5.411135e-06 -1.361241e-05 -1.762840e-06
2.886772e-06 -1.085197e-05 -9.835482e-08
1.123075e-05 -1.055240e-05 7.823411e-07
1.246742e-05 9.304676e-06 -5.302290e-22
1.474171e-05 -3.610677e-21 -1.692528e-06
1.133915e-05 -1.825078e-06 -1.024842e-06
1.130877e-05 1.865422e-06 9.798619e-07
-1.031926e-05 7.937746e-06 2.132459e-06
-7.173027e-06 -8.987856e-06 -1.050855e-06
1.358983e-05 -4.313740e-06 1.984028e-06
1.358983e-05 4.313740e-06 -1.984028e-06
1.112443e-05 -6.115684e-06 2.049449e-06
4.302623e-06 -1.415409e-05 1.649806e-06
1.413205e-05 -6.255841e-06 6.566607e-07
1.413205e-05 6.255841e-06 -6.566607e-07
1.534240e-05 -3.757804e-21 -9.392820e-07
-1.737733e-06 1.111243e-05 2.961109e-07
-9.192070e-07 -1.539392e-05 7.537079e-07
-1.240180e-05 5.967745e-06 -2.132800e-06
7.554855e-06 -1.271260e-05 1.654518e-06
-5.071702e-06 -1.035348e-05 1.102566e-06
-6.867738e-06 1.034181e-05 1.931568e-06
1.145509e-05 1.035997e-05 -6.866427e-07
4.592028e-06 1.151212e-05 1.921170e-06
1.316849e-05 8.008854e-06 -7.766126e-07
-3.029012e-06 1.129890e-05 1.347776e-06
6.478217e-06 1.041554e-05 1.848866e-06
1.235799e-05 -7.561325e-06 1.867033e-06
-1.958603e-06 1.434278e-05 -1.873916e-06
-9.492883e-06 -1.119912e-05 -1.739121e-06
-1.026993e-05 -5.875955e-06 1.501089e-06
-2.343171e-06 -1.346144e-05 -2.147682e-06
-9.307708e-06 7.319782e-06 1.510439e-06
3.039921e-06 1.295224e-05 -2.163044e-06
1.469858e-05 2.175725e-06 -1.592181e-06
1.469858e-05 -2.175725e-06 1.592181e-06
-9.964039e-06 -1.180381e-05 6.804336e-07
6.514640e-06 -1.060570e-05 -1.947568e-06
-1.248289e-05 -7.501553e-06 1.820418e-06
3.649550e-06 1.273944e-05 2.160288e-06
-3.579136e-06 1.065874e-05 2.666425e-07
3.573652e-06 1.437538e-05 -1.633199e-06
2.071357e-06 1.104044e-05 -1.602249e-07
-5.682737e-06 -1.239272e-05 -2.151305e-06
9.120075e-06 -6.939504e-06 9.768023e-07
-1.291158e-06 -1.151141e-05 1.190075e-06
1.441000e-05 3.514754e-06 1.615998e-06
1.441190e-05 -3.511977e-06 -1.614937e-06
-4.950665e-06 1.437737e-05 1.181636e-06
-3.732881e-06 -1.069858e-05 -6.628355e-07
1.982545e-06 -1.107513e-05 3.217455e-07
1.520282e-06 -1.306279e-05 2.151368e-06
1.116004e-05 5.712639e-06 -1.988922e-06
-9.435141e-06 1.066690e-05 1.991402e-06
-1.082196e-05 -8.180285e-06 -2.157830e-06
2.892532e-06 -1.513433e-05 7.880078e-07
-1.310315e-05 -1.554009e-06 2.155844e-06
1.223991e-08 1.215161e-05 1.774263e-06
-8.413771e-06 -8.670707e-06 -1.723441e-06
-1.509105e-05 3.444433e-06 5.745718e-07
9.108812e-06 6.909391e-06 -9.210674e-07
-2.616831e-07 1.453839e-05 -1.834875e-06
-1.388867e-05 4.416606e-06 -1.813626e-06
-7.828080e-06 8.566437e-06 -1.221140e-06
-7.587933e-06 1.347314e-05 6.305020e-07
-6.733610e-06 9.357436e-06 1.101573e-06
8.943598e-06 8.166153e-06 -1.745096e-06
1.482235e-05 -4.399196e-06 -6.355018e-07
1.480465e-05 4.403153e-06 6.849691e-07
2.410389e-06 -1.127297e-05 -1.100602e-06
-1.069610e-05 -1.109115e-05 7.875637e-07
-3.718507e-06 -1.402999e-05 1.851105e-06
-1.048641e-05 -4.989756e-06 -1.233644e-06
-1.343139e-05 -6.152900e-06 1.666561e-06
-1.157170e-05 -3.301254e-06 1.685454e-06
-1.035397e-05 -4.488099e-06 -4.965173e-07
-1.263952e-05 9.115177e-07 2.041721e-06
6.137779e-06 1.413413e-05 7.854217e-07
-9.258447e-06 -9.746139e-06 2.164230e-06
-1.322730e-05 -4.679159e-06 -2.068497e-06
1.112258e-05 -1.954746e-06 5.300887e-07
-1.465400e-06 -1.208622e-05 1.790204e-06
1.112258e-05 1.954746e-06 -5.300887e-07
3.357091e-06 1.431673e-05 1.721114e-06
-1.437253e-05 5.578145e-06 -7.651617e-07
-7.004428e-06 -1.276938e-05 -1.819909e-06
7.749663e-06 1.007808e-05 -2.055656e-06
-1.324429e-05 -6.138967e-06 -1.797835e-06
1.039342e-05 7.070070e-06 2.002779e-06
-1.226976e-05 -8.497762e-06 1.528371e-06
-1.537292e-05 1.372028e-06 -7.186187e-07
-7.100108e-06 1.284040e-05 1.745345e-06
-1.110203e-05 -3.022765e-06 1.063154e-06
-1.223915e-05 6.796958e-06 2.077726e-06
5.954481e-06 1.340709e-05 -1.747379e-06
-1.082913e-05 4.004291e-06 -1.130479e-06
-7.576542e-06 -8.435834e-06 -6.861465e-07
1.315769e-05 4.819725e-06 2.073934e-06
1.316294e-05 -4.771397e-06 -2.077374e-06
1.262065e-06 -1.480001e-05 -1.596784e-06
8.089683e-06 1.099885e-05 -2.148969e-06
-6.061114e-06 -1.343280e-05 1.696325e-06
4.934502e-06 -1.229325e-05 2.159941e-06
-8.971726e-06 7.041418e-06 8.592733e-07
9.204011e-06 1.168105e-05 1.580349e-06
4.873273e-06 -1.467752e-05 -6.223600e-07
-4.261563e-06 -1.303480e-05 -2.140775e-06
1.151648e-05 -4.346875e-06 -1.874786e-06
1.151653e-05 4.346896e-06 1.874816e-06
9.051966e-06 -6.755535e-06 -5.375046e-07
9.051981e-06 6.755536e-06 5.375519e-07
-1.199207e-05 -8.593516e-06 -1.683262e-06
-1.526741e-05 2.437244e-06 -6.377042e-07
6.027957e-06 1.119810e-05 2.057062e-06
1.184565e-05 1.008435e-05 -5.302290e-22
1.063472e-05 7.077624e-06 -2.074925e-06
8.235674e-06 7.710185e-06 -4.823048e-07
-2.295559e-06 -1.099267e-05 1.072727e-07
-4.378967e-06 1.436355e-05 -1.431163e-06
-9.450746e-06 1.142083e-05 -1.623464e-06
-5.513710e-06 1.140649e-05 2.040614e-06
-1.003411e-05 -1.050628e-05 -1.842735e-06
-3.537515e-06 1.104760e-05 -1.214861e-06
3.256021e-06 -1.117919e-05 1.276750e-06
-1.021056e-05 -1.155993e-05 -7.475916e-07
-4.716577e-06 1.201297e-05 2.109510e-06
1.071903e-05 -6.994833e-06 2.082154e-06
-1.238378e-05 -5.977153e-06 -2.134878e-06
-9.734730e-06 5.701238e-06 4.814876e-07
-2.395950e-06 1.242633e-05 2.035598e-06
2.664193e-06 -1.250015e-05 -2.076795e-06
-1.571227e-07 -1.469490e-05 -1.728181e-06
1.092447e-05 -2.757891e-06 4.145933e-07
1.092447e-05 2.757862e-06 -4.145891e-07
[...]
POINT_DATA 1523
VECTORS 10.000GHz_fone_imag double
-2.262351e-04 -1.685079e-04 2.296022e-02
7.395406e-05 2.972791e-05 2.519141e-02
-2.538380e-02 7.101220e-04 1.758384e-02
-3.901234e-02 4.848978e-03 -4.551699e-02
-1.319210e-02 3.861675e-02 -6.889046e-03
-2.573750e-02 -8.471459e-03 1.214082e-02
2.973217e-02 1.205648e-03 1.152534e-02
-3.036918e-02 2.417079e-03 1.395975e-02
1.982196e-02 3.254303e-02 -4.608245e-02
2.665543e-03 9.209312e-03 2.415943e-02
-3.923538e-02 -1.201664e-02 -7.219581e-03
4.151811e-02 -1.258323e-02 -5.692754e-03
-3.775253e-02 -2.218432e-02 -1.703688e-02
-3.407262e-02 -5.152585e-04 6.144320e-03
1.822583e-02 2.371197e-02 1.230864e-02
-6.913647e-03 6.431963e-03 2.387671e-02
-9.358564e-03 -2.412947e-02 1.414663e-02
8.361900e-03 5.181886e-03 2.347774e-02
1.620459e-03 9.318885e-03 2.347258e-02
4.342679e-02 1.046429e-02 -1.204597e-02
-4.518825e-02 1.172720e-02 -1.141993e-02
8.388253e-03 1.226160e-02 -5.885419e-02
1.460495e-02 -3.797089e-03 2.206476e-02
-1.743066e-02 2.557024e-02 -5.728233e-02
-4.540495e-02 -1.397443e-04 -1.304972e-02
-2.562293e-02 -3.273197e-02 -2.523895e-02
2.871032e-02 -5.824545e-03 1.402827e-02
-4.291598e-02 1.515199e-02 -1.484253e-02
3.027767e-02 3.321542e-02 -1.780129e-02
-4.393161e-02 -1.109082e-02 -1.420122e-02
-3.574983e-02 2.726730e-02 -1.399548e-02
-4.772130e-03 -8.608037e-03 2.387275e-02
-2.606605e-02 1.527525e-03 1.456964e-02
-6.340730e-03 1.156015e-02 -6.193366e-02
1.284789e-02 4.462052e-02 -1.997477e-02
-3.961258e-02 -2.024769e-05 -3.566752e-02
-4.233075e-03 6.308638e-03 2.388220e-02
2.433627e-02 -2.491903e-02 5.246576e-03
4.772134e-03 3.268969e-03 -6.875874e-02
1.272544e-02 -3.088577e-02 -4.605070e-02
5.576497e-03 -8.734725e-03 2.394891e-02
-1.627967e-02 -3.881424e-02 -5.398189e-03
1.443987e-03 4.580894e-02 -2.328200e-02
3.812152e-02 -2.543983e-02 -2.447467e-02
1.641347e-02 4.206830e-02 -2.682140e-02
-4.234846e-02 5.308926e-03 -1.272145e-02
-2.638456e-02 -1.217456e-04 -5.960400e-02
1.026078e-02 -1.904732e-02 2.061927e-02
4.175585e-02 9.296181e-03 -2.152604e-03
8.022668e-03 3.722770e-03 2.191762e-02
9.820454e-03 7.731013e-04 2.441061e-02
4.316970e-02 -1.216747e-03 -1.945400e-02
-4.208777e-02 -4.057603e-03 -2.254608e-02
-2.902717e-02 2.943140e-02 -3.022771e-03
9.460442e-03 -3.942522e-03 2.097421e-02
9.149881e-03 -5.328437e-03 2.419644e-02
-9.188512e-03 -4.478930e-03 2.275927e-02
4.552780e-04 -1.580797e-03 -6.619008e-02
3.904531e-02 8.217024e-03 -3.207431e-02
4.528570e-02 -5.519305e-03 -8.824045e-03
9.795616e-03 -3.514778e-02 5.160964e-03
3.507608e-03 2.194488e-02 1.556846e-02
-8.967985e-03 2.877277e-03 2.161881e-02
2.339710e-02 -2.728307e-04 1.765339e-02
-3.822667e-02 1.568991e-03 -4.836422e-02
3.658627e-02 1.149270e-03 -4.426899e-02
-7.993325e-03 4.191329e-03 2.329918e-02
-1.954424e-02 1.680877e-02 1.431083e-02
2.615503e-02 2.894307e-03 -6.145198e-02
-1.582174e-03 8.566408e-03 2.321778e-02
4.612227e-03 2.605154e-02 1.581336e-02
1.124979e-03 2.616961e-02 1.761147e-02
6.846647e-03 2.373701e-02 -6.257533e-02
4.433206e-02 1.431024e-02 -1.608411e-02
1.268634e-02 -4.201541e-02 -1.046852e-02
-7.905236e-03 -4.258794e-02 -2.456808e-02
4.132008e-03 -2.437340e-02 1.468428e-02
-3.376269e-03 -2.742059e-02 1.634077e-02
4.623579e-03 -3.789765e-02 -5.042277e-03
4.389614e-02 -1.631408e-03 -3.451751e-02
1.137023e-03 7.197020e-03 -7.102209e-02
-7.103027e-04 -9.680250e-03 2.408660e-02
3.547585e-02 -2.927411e-02 -9.062907e-03
2.546886e-02 2.171212e-02 1.261866e-02
5.958001e-03 4.035415e-02 -9.049524e-03
-3.402354e-02 -2.219845e-02 -4.706671e-02
-4.248494e-03 9.329089e-03 2.419092e-02
-3.935730e-03 -2.471124e-03 -6.806531e-02
-3.476749e-02 2.285540e-02 1.036223e-03
-4.135982e-03 8.468763e-03 2.309149e-02
4.219467e-02 7.512755e-04 -1.304972e-02
6.409685e-03 1.528317e-03 -6.494257e-02
-9.293911e-03 4.011352e-03 -6.850401e-02
-9.982151e-03 1.002276e-03 2.324051e-02
1.013665e-02 1.022039e-03 2.289113e-02
-1.991581e-02 2.617759e-02 -4.848427e-02
1.966671e-02 -3.835573e-02 -3.026862e-03
-3.021641e-02 6.235242e-04 1.316945e-02
-2.993278e-02 -2.939208e-02 -1.093090e-02
-2.298917e-02 -2.215609e-03 1.957826e-02
1.413138e-02 1.787491e-02 1.917618e-02
3.694121e-02 9.230591e-04 4.391111e-03
-2.310521e-02 -1.945648e-03 1.734460e-02
2.080155e-02 -2.450751e-03 1.686751e-02
2.170725e-02 1.669267e-02 1.580795e-02
1.168106e-02 -1.565783e-02 1.934163e-02
1.179643e-03 4.054590e-02 -9.393568e-03
-4.514379e-02 -7.490753e-03 -1.588729e-02
3.288542e-02 2.707388e-02 -2.125658e-02
-1.019455e-02 -2.519660e-02 1.667303e-02
4.353973e-04 -5.062891e-03 -6.536635e-02
-7.092235e-03 6.388150e-03 2.392324e-02
6.328643e-04 -2.251905e-04 2.572909e-02
2.385844e-02 -1.299355e-03 1.665460e-02
2.445845e-02 -6.768127e-03 -5.801225e-02
-2.696880e-02 -5.598954e-03 -5.932804e-02
3.154371e-02 -2.624639e-02 -1.100507e-02
-1.890413e-02 -2.521559e-02 -5.775684e-02
-2.962612e-02 9.588546e-03 1.257715e-02
3.105651e-02 9.697412e-03 1.284913e-02
-3.784579e-02 2.400274e-02 -1.746034e-02
-6.202860e-03 2.134206e-02 1.617207e-02
-7.809851e-03 3.217654e-03 2.374032e-02
7.828480e-03 3.881822e-03 2.367779e-02
1.190409e-02 -9.138778e-05 2.387813e-02
-6.795975e-04 -8.325043e-03 -6.339783e-02
3.349102e-04 9.897460e-03 2.449253e-02
-3.286472e-02 1.744503e-02 5.985286e-03
-1.285679e-02 2.083828e-02 1.846755e-02
1.364928e-02 2.929369e-02 -5.668429e-02
2.571826e-02 -3.883581e-02 -2.567930e-02
4.715697e-03 4.800112e-03 2.197678e-02
-1.667206e-02 -3.905623e-02 -2.775126e-02
8.493442e-03 3.643240e-03 2.271897e-02
8.312194e-03 -3.640114e-02 -4.748184e-02
-2.119026e-02 -3.507658e-02 -2.819638e-02
-2.428204e-02 1.635799e-02 1.458798e-02
-4.641516e-03 2.701371e-02 1.391783e-02
-1.691087e-02 -1.857985e-02 1.624733e-02
3.323390e-02 2.007042e-02 -3.916110e-02
-4.796057e-03 -3.540523e-02 3.190508e-03
3.290355e-02 -2.516958e-02 -4.412860e-02
9.966162e-03 3.897427e-02 -1.769524e-03
2.261942e-02 3.728147e-03 1.980401e-02
-2.248398e-02 3.361758e-03 1.954887e-02
5.213759e-03 7.300165e-03 2.391494e-02
2.446004e-02 -3.692433e-02 -2.143493e-02
2.390722e-02 1.365396e-02 1.674371e-02
-1.122574e-02 -4.155392e-02 -4.454092e-03
1.243587e-03 -8.485400e-03 -6.865622e-02
5.371713e-03 2.282648e-02 1.892389e-02
2.648283e-04 2.028122e-03 -6.351021e-02
-1.452905e-02 -3.421830e-02 2.320474e-03
-1.757938e-02 1.485892e-02 -5.538926e-02
3.736926e-03 3.492252e-02 -4.551746e-02
-2.322859e-02 -5.786896e-03 1.885960e-02
2.098395e-02 -3.953766e-03 1.693374e-02
5.541481e-03 -1.499556e-02 2.160037e-02
-9.214777e-03 -2.067057e-02 -6.439435e-02
-5.738830e-04 1.131303e-02 -6.946926e-02
-5.771732e-03 4.316158e-02 -7.709962e-03
4.049264e-02 2.217119e-02 -2.187977e-02
1.947740e-02 -2.327034e-02 1.039442e-02
-2.947595e-02 -2.338831e-02 1.301466e-03
-1.935712e-03 8.955083e-03 2.202224e-02
4.360101e-02 5.162606e-03 -5.934431e-03
2.824952e-03 -4.272425e-02 -3.314148e-02
-3.003302e-02 -3.275792e-02 -3.595697e-02
7.176010e-03 -2.004333e-03 2.495512e-02
2.150302e-02 1.720151e-02 -6.238029e-02
1.102799e-03 2.732864e-02 1.528143e-02
-2.636370e-02 8.356867e-03 1.677058e-02
-2.329063e-02 2.571230e-02 -5.244305e-02
4.197522e-03 -5.155680e-03 2.296657e-02
1.821081e-02 -2.179467e-02 -5.179082e-02
3.058169e-02 3.090021e-02 -3.499689e-02
7.737311e-03 -2.243087e-03 2.393293e-02
-6.690559e-03 -1.933366e-03 2.308391e-02
4.649951e-03 -2.988068e-02 -5.173799e-02
7.253449e-03 7.592989e-03 2.429517e-02
7.059778e-03 2.716384e-02 1.476355e-02
-3.098601e-02 -1.573143e-02 -5.021557e-02
2.064347e-02 9.875197e-03 1.857795e-02
3.604476e-02 1.014904e-02 -3.516790e-02
-1.219432e-02 -5.793473e-03 -6.693833e-02
4.642410e-02 -2.680949e-03 -1.956973e-02
-3.032972e-03 -6.879733e-03 2.191120e-02
2.803702e-02 2.801825e-02 -3.406872e-03
-3.319753e-02 -1.160214e-02 9.420405e-03
-1.682479e-02 3.284619e-03 -6.696955e-02
5.053759e-03 4.300482e-02 -3.322835e-02
1.366069e-02 1.775585e-03 -6.235942e-02
-4.862530e-03 -2.559459e-02 1.670340e-02
-9.368896e-03 3.814993e-03 2.352869e-02
-1.292807e-02 -2.377831e-02 1.659868e-02
2.899734e-02 3.671611e-02 -1.826748e-02
-2.273131e-02 -1.280245e-02 1.520239e-02
-3.469822e-02 -2.336946e-02 -2.273157e-02
1.900330e-02 1.128222e-02 1.826939e-02
-9.895028e-03 7.845347e-04 2.228556e-02
1.047405e-02 -2.160333e-02 1.778494e-02
3.144560e-02 7.682038e-03 -5.643200e-02
3.076977e-02 -1.776082e-02 7.231050e-03
9.863677e-03 2.145230e-02 1.742377e-02
-2.970263e-02 8.025872e-03 -5.639798e-02
-1.047594e-02 -1.472525e-02 -6.498503e-02
-3.107347e-02 -1.413001e-02 8.616032e-03
3.329944e-02 -1.123497e-02 5.346829e-03
1.775443e-03 -2.241548e-02 1.963699e-02
2.322430e-02 3.087808e-02 3.539906e-03
9.802690e-03 2.303937e-02 1.824328e-02
-1.395169e-02 3.919454e-02 -6.075611e-03
1.758641e-02 -1.095111e-02 -6.237870e-02
-1.419695e-02 -1.773377e-02 1.910472e-02
1.258291e-03 -6.189946e-03 2.262358e-02
-1.224610e-02 -3.378498e-02 8.464953e-04
4.387707e-02 -1.643413e-02 -2.794762e-02
-3.786334e-02 -1.387710e-02 -2.962094e-02
1.230108e-02 -1.115537e-02 -6.650303e-02
-9.877084e-03 -9.933909e-03 -6.725636e-02
-2.027537e-02 -1.399498e-02 1.739020e-02
-8.455610e-03 1.354423e-03 2.403418e-02
-1.990451e-02 -3.813939e-02 -1.697714e-02
-1.001221e-05 7.751222e-04 2.487833e-02
3.570226e-02 2.219655e-02 -1.355010e-02
1.158306e-02 7.010990e-03 -6.413272e-02
2.993060e-03 6.221759e-03 -6.412824e-02
-5.666928e-03 1.900502e-02 2.039602e-02
-1.611071e-02 1.766673e-02 1.889704e-02
1.839180e-02 -4.006619e-02 -1.974058e-02
-1.904633e-02 -2.117945e-02 1.507821e-02
-9.527635e-03 3.381247e-02 -5.304920e-02
-9.495053e-03 3.563327e-02 -5.025831e-02
-5.932818e-03 -7.407023e-03 2.371115e-02
1.514537e-02 -3.960519e-02 -1.189914e-02
-3.582606e-02 2.322590e-02 -1.420059e-02
-3.463498e-02 -1.619527e-02 4.358344e-03
1.466014e-02 -9.099971e-03 -6.550991e-02
8.250584e-03 -4.073122e-02 -1.921611e-02
9.403995e-03 -4.476774e-02 -1.580728e-02
-4.665383e-04 -2.371287e-02 1.563675e-02
-1.202849e-02 2.245225e-03 -6.800912e-02
1.192375e-02 3.800023e-03 -6.688202e-02
-2.089756e-03 2.846690e-02 -6.071000e-02
-1.828479e-02 -2.587960e-03 -6.706001e-02
9.074750e-03 3.834288e-02 -2.823668e-03
-2.656479e-02 -1.421203e-02 1.184501e-02
2.277721e-02 1.541770e-02 1.578589e-02
1.972850e-02 2.585217e-02 -5.550785e-02
-1.835066e-02 8.316045e-03 1.976632e-02
-3.759141e-02 2.832999e-02 -1.789882e-02
-1.114116e-02 2.471570e-02 1.397596e-02
4.527140e-02 6.297489e-03 -1.505407e-02
-4.600129e-02 5.518308e-03 -1.805242e-02
-2.981546e-02 1.608906e-02 -4.336869e-02
-3.929443e-04 3.867859e-03 -6.598092e-02
-3.941319e-02 -9.482188e-03 -4.174207e-02
2.784521e-02 -1.588028e-02 1.265959e-02
3.393102e-02 -3.234696e-02 -3.100760e-02
-2.360461e-03 -7.006987e-03 2.220135e-02
-2.213407e-02 -4.359569e-03 -5.709007e-02
-1.470471e-02 -3.555228e-02 -3.894953e-02
-2.019792e-02 1.379080e-02 1.704406e-02
-7.744151e-03 -2.714004e-03 2.349525e-02
-3.143997e-03 -3.149660e-02 -4.881698e-02
-2.494416e-02 -5.854685e-03 -6.117556e-02
-3.645873e-02 5.457081e-03 1.340292e-03
3.588813e-02 4.893408e-03 -1.229291e-04
8.908090e-04 -3.391958e-03 -6.506532e-02
1.105131e-03 -5.731808e-03 2.244515e-02
2.392890e-02 3.461894e-02 -2.708014e-02
2.708564e-02 -2.282596e-02 6.516169e-03
-1.784619e-02 1.781143e-02 1.535254e-02
3.235463e-02 -1.829093e-02 -5.148298e-02
-4.160988e-02 -6.273572e-04 -3.038612e-02
-2.235780e-02 -1.558399e-02 -5.840579e-02
-3.485909e-02 -2.231914e-02 -6.669079e-04
-2.533380e-03 7.802803e-04 -6.932880e-02
-2.202040e-02 3.160633e-02 4.258332e-03
1.724928e-02 -3.084693e-02 -4.635253e-02
-1.802412e-02 -1.110036e-02 1.937876e-02
1.612686e-02 -8.943832e-03 1.814717e-02
-7.849749e-03 1.799196e-03 2.361562e-02
8.746333e-03 3.531385e-03 2.359597e-02
-2.315629e-02 -2.947195e-02 -5.118080e-02
2.311529e-02 -7.661247e-03 1.594506e-02
2.597279e-03 8.791483e-03 2.361807e-02
1.130709e-02 -9.830763e-03 -6.514729e-02
6.095901e-03 -5.118236e-03 2.437149e-02
-6.824891e-03 -5.777955e-03 2.452489e-02
-1.912367e-02 -3.344164e-02 -4.890258e-02
1.584807e-02 -7.804721e-03 -6.573598e-02
-1.595645e-02 -8.236011e-03 -6.513858e-02
-6.984740e-03 -1.522778e-04 2.323081e-02
-1.925595e-02 1.180231e-02 1.897689e-02
-1.712885e-02 -2.706293e-02 -5.656779e-02
3.380640e-02 2.471292e-02 -1.915518e-02
1.910152e-02 -6.508684e-03 2.038048e-02
1.173418e-02 3.553548e-02 4.640261e-03
2.878354e-02 -3.378084e-02 -1.007232e-02
-2.285230e-02 -3.590597e-03 1.952280e-02
4.597705e-03 6.884576e-03 -6.038395e-02
8.528944e-05 -8.630815e-03 2.431089e-02
1.844712e-02 -1.573617e-02 -5.669227e-02
-7.795194e-03 -3.234501e-02 -5.607317e-02
2.535062e-02 -3.133125e-02 1.943766e-04
3.959058e-03 5.721978e-03 -6.508023e-02
7.422125e-03 -3.359821e-02 1.130619e-02
-5.730612e-03 -5.945238e-03 2.283072e-02
6.318441e-03 -5.757493e-03 2.230032e-02
-4.584420e-03 5.030323e-03 2.358925e-02
2.889038e-02 3.454288e-02 -3.207849e-02
-2.284633e-02 4.856333e-03 -5.638545e-02
2.046246e-02 3.149895e-02 6.706404e-04
8.763430e-03 1.021202e-03 2.243963e-02
-7.784025e-03 1.816401e-03 2.178897e-02
-3.183550e-02 2.816890e-02 -3.560253e-02
-3.076812e-02 -2.564052e-02 -3.529958e-02
1.091392e-02 -3.802653e-02 2.319914e-03
-1.895957e-02 3.850426e-02 -4.394012e-03
5.114327e-03 6.258848e-03 2.435559e-02
-2.433406e-03 3.439099e-02 7.343828e-03
-1.019811e-02 -2.333185e-02 1.768393e-02
3.029211e-02 8.074331e-03 -5.709987e-02
7.510735e-03 2.233423e-02 1.485919e-02
-4.277874e-03 -7.263781e-03 2.237108e-02
-1.547620e-02 2.594292e-02 -5.892411e-02
-3.939484e-02 1.521947e-02 -4.150376e-02
3.804203e-02 1.570808e-02 -3.828323e-02
-1.747221e-02 -3.366366e-02 2.304140e-03
-7.874975e-03 5.311364e-03 2.379379e-02
-7.088772e-03 -2.017338e-03 2.399007e-02
1.968277e-02 9.803446e-03 2.049610e-02
-1.812525e-02 9.431828e-03 1.917693e-02
8.879083e-04 -6.372451e-04 2.403162e-02
-3.113687e-02 6.435059e-03 -5.613388e-02
-4.176237e-03 -1.931639e-02 2.111871e-02
-2.170006e-02 2.668298e-02 5.802078e-03
1.443772e-02 1.903764e-04 -6.614553e-02
-1.828063e-02 8.965603e-03 2.071091e-02
2.513848e-02 2.971138e-02 -4.187971e-02
3.732290e-02 1.432264e-03 6.612338e-03
2.593923e-02 2.760258e-02 4.121280e-03
1.322718e-02 -2.342010e-02 1.509179e-02
-5.659850e-03 6.882100e-03 -6.864056e-02
-6.622278e-03 -2.454507e-02 1.793805e-02
-1.283808e-02 2.955074e-02 -5.620592e-02
-4.120903e-03 1.885678e-02 2.097484e-02
-6.395673e-03 4.463120e-02 -8.454384e-03
4.123876e-02 -5.841143e-03 -4.303778e-02
-4.074695e-02 -5.521902e-03 -4.290844e-02
3.251371e-03 2.458829e-03 -6.550530e-02
2.580725e-02 2.572310e-02 -5.186431e-02
2.220622e-03 7.093891e-03 2.349833e-02
-2.825872e-02 -2.780756e-02 -3.842183e-03
5.870080e-03 -3.956676e-03 2.346619e-02
-1.636042e-03 -2.255883e-02 1.523871e-02
3.280152e-02 -5.779187e-03 -4.666471e-02
1.703172e-02 8.943404e-03 2.111818e-02
-3.247917e-03 -3.395788e-02 -5.271401e-02
-3.203146e-03 -8.380325e-03 2.198614e-02
3.258486e-03 6.945773e-03 2.422132e-02
-1.481647e-03 -4.373426e-02 -8.293358e-03
-8.305838e-03 2.407840e-02 1.671777e-02
6.380955e-03 4.134864e-03 2.203149e-02
1.326030e-03 8.547201e-03 2.481480e-02
6.333771e-03 4.100442e-03 2.458603e-02
-2.182456e-03 7.349210e-03 2.425215e-02
-3.245035e-02 -7.121704e-03 -4.704398e-02
3.002370e-03 -9.000635e-03 2.473221e-02
3.225474e-03 -8.362093e-03 2.376780e-02
-1.016744e-02 -1.440441e-02 -6.759899e-02
-2.520911e-02 -3.119662e-02 -3.146470e-02
-4.105073e-02 3.600853e-03 -3.348109e-02
-6.144940e-03 7.168401e-03 2.411287e-02
-4.220315e-04 -8.464991e-03 2.338492e-02
-2.902736e-02 3.058713e-02 -2.809557e-02
-3.229042e-02 2.343333e-02 -3.868434e-02
3.848932e-03 6.395085e-03 -7.006980e-02
-1.224412e-02 3.996663e-02 -3.123533e-02
-2.269791e-02 3.865068e-02 -1.309799e-02
-1.756424e-03 -7.333934e-03 2.449884e-02
-3.382106e-02 4.053578e-03 -5.541995e-02
-1.795982e-03 -3.831365e-03 -6.468890e-02
-1.682043e-02 9.083710e-03 2.105183e-02
-1.322010e-03 1.470381e-02 -6.114862e-02
-4.056916e-02 2.081525e-02 -1.013899e-02
6.163470e-03 -5.634101e-03 2.407557e-02
3.090567e-02 1.627098e-02 6.248725e-03
8.463773e-03 -8.963727e-05 2.213714e-02
4.223737e-02 -1.629991e-02 -2.594853e-02
-9.172717e-03 -8.479885e-04 2.399717e-02
9.034729e-03 -1.564913e-02 1.919297e-02
-1.484791e-03 4.389843e-02 -8.070653e-03
-3.692979e-03 -4.270681e-03 2.268370e-02
3.134111e-02 2.714940e-02 -4.179430e-02
1.354045e-02 1.020574e-02 1.875002e-02
-2.046431e-02 3.044233e-02 4.273353e-03
2.447869e-03 -1.880514e-02 2.053574e-02
1.986645e-02 -2.197048e-02 -5.109408e-02
3.846173e-02 2.614403e-02 -2.715587e-02
-1.991178e-02 3.211794e-02 -3.415464e-02
-1.487289e-03 -4.936584e-03 2.211594e-02
-5.827127e-03 -4.558770e-03 2.298929e-02
-2.916178e-03 -2.247176e-02 1.723418e-02
-2.296544e-02 -3.825360e-02 -8.008093e-03
-3.575382e-02 6.146824e-03 7.558592e-03
3.618470e-02 -1.738052e-02 -4.496782e-02
-3.327221e-03 -6.799377e-03 2.278580e-02
-4.995773e-03 -3.695580e-02 -4.394987e-02
-2.702437e-03 5.484114e-03 2.448613e-02
4.139272e-02 8.316282e-04 -1.635217e-02
1.883292e-02 3.567344e-02 -3.315366e-02
3.117197e-02 1.644511e-02 4.037093e-03
-3.709611e-02 -1.855934e-02 -2.418100e-02
3.711496e-02 -2.013544e-02 -2.531851e-02
1.194894e-04 -2.635686e-02 -6.020111e-02
-1.850197e-02 -2.905448e-02 9.080029e-03
-1.037603e-02 -1.888186e-02 2.003592e-02
5.806753e-03 -3.500057e-02 8.509311e-03
6.457421e-03 2.348966e-03 2.455944e-02
-2.982644e-03 1.932161e-02 2.069300e-02
4.447837e-02 1.268272e-03 -2.277692e-02
4.912959e-03 -4.458000e-02 -1.912260e-02
-3.570075e-02 8.638518e-03 -4.336706e-02
3.754776e-02 8.527173e-03 -4.728265e-02
-1.333712e-03 2.036341e-02 1.768153e-02
-2.497947e-02 -1.980802e-02 -5.718589e-02
1.947033e-02 3.346454e-05 2.040810e-02
-5.303394e-03 4.180563e-03 -6.658018e-02
7.460622e-03 -2.069727e-02 1.697635e-02
1.539409e-02 -3.391451e-02 2.214138e-03
3.128748e-02 3.390467e-02 -2.324277e-02
8.785071e-03 8.587311e-04 2.210149e-02
2.303201e-02 -3.709265e-02 -1.681865e-02
-1.039767e-02 -1.715820e-02 2.054437e-02
5.634364e-03 -2.112633e-02 1.934512e-02
-1.822539e-02 -3.373160e-02 5.479098e-03
6.114630e-03 3.222836e-03 -6.138521e-02
2.185055e-02 -4.058754e-02 -1.980032e-02
-1.393623e-02 9.590812e-03 -6.621290e-02
-1.672311e-02 2.370714e-02 1.381447e-02
-1.677988e-02 1.057645e-02 -6.571063e-02
-4.333461e-03 -2.471395e-02 -6.298479e-02
4.987502e-05 3.017253e-04 -7.017362e-02
1.427238e-03 2.266055e-03 2.314997e-02
9.475691e-03 -4.062173e-02 -3.577506e-02
-1.193293e-02 4.176952e-02 -1.979419e-02
-1.881864e-04 4.139053e-02 -4.198969e-02
1.439407e-02 -3.395591e-02 -4.346539e-02
6.372488e-03 3.882666e-02 4.619307e-03
-8.041033e-03 -1.326291e-03 2.433794e-02
8.167935e-03 -1.604244e-03 2.398449e-02
-2.299678e-02 -7.386099e-03 1.679065e-02
7.325240e-03 -7.786372e-03 -6.946271e-02
1.063044e-02 -1.611500e-02 2.091340e-02
-2.096711e-02 1.926527e-02 1.262483e-02
4.092979e-02 1.012590e-03 -3.268355e-02
2.073435e-02 4.079766e-02 -2.048589e-02
-1.275474e-02 -4.186739e-02 -3.057466e-02
-4.139277e-03 -4.511386e-03 2.208352e-02
3.905307e-03 7.061954e-03 2.177933e-02
-1.315523e-03 6.999804e-04 -6.629728e-02
-2.163906e-02 -3.649644e-02 -3.370274e-02
2.038136e-02 4.119247e-02 -2.530183e-02
-2.682651e-02 -3.562554e-02 -9.370626e-03
2.250143e-02 -3.286599e-02 -1.303845e-02
-2.717842e-02 -3.092447e-02 -3.256946e-03
-2.360339e-02 -2.126541e-02 -5.806681e-02
-1.257496e-02 -4.412025e-02 -2.228199e-02
-1.764667e-02 3.285994e-04 1.987849e-02
1.901520e-02 8.909745e-04 2.110782e-02
3.337970e-02 -8.491837e-03 1.005608e-02
-1.919527e-02 -3.969489e-04 2.132212e-02
1.814593e-02 -1.239485e-03 1.922032e-02
-8.221716e-03 -1.725290e-03 2.354120e-02
9.140773e-03 -1.701687e-03 2.441599e-02
5.645126e-03 -2.001868e-02 1.625815e-02
4.644088e-03 -4.943285e-03 2.427737e-02
2.175744e-02 3.074998e-02 -3.615972e-02
-3.952435e-03 -5.550172e-03 2.433757e-02
1.400869e-03 -3.981279e-02 3.007005e-03
-2.284671e-03 7.084612e-03 2.447371e-02
3.863203e-03 3.661900e-02 -5.205870e-02
1.946406e-02 -2.648449e-02 1.294441e-02
-6.126101e-03 -5.582657e-03 -6.814266e-02
-4.559683e-03 -6.733229e-03 2.466103e-02
-3.442144e-03 5.677096e-03 2.337132e-02
1.747723e-03 7.307692e-03 2.476398e-02
-3.989894e-03 2.256539e-02 1.909118e-02
1.190830e-02 3.392316e-02 -4.036021e-02
1.379921e-02 -1.644718e-02 1.833633e-02