# vtk DataFile Version 2.0
Electric current density generated by TTH
ASCII
DATASET UNSTRUCTURED_GRID
POINTS 2048 double
-2.973921e-06 -1.686595e-05 -5.047514e-22
9.864723e-06 1.253752e-05 -1.859765e-06
1.364286e-05 -8.784216e-06 -1.702719e-06
3.511310e-07 -1.333034e-05 1.119271e-06
-1.520715e-05 5.067586e-06 -1.821459e-06
1.446229e-05 2.256215e-06 -2.015848e-06
1.269373e-05 2.878655e-06 -2.176524e-07
-1.478309e-05 -3.832639e-06 -2.050432e-06
-1.693021e-05 7.984591e-08 8.765944e-07
-9.315190e-06 -1.319941e-05 -1.748897e-06
-1.482930e-05 9.851960e-07 -2.050748e-06
-1.988222e-06 -1.701033e-05 -5.047514e-22
4.832590e-06 1.544511e-05 1.731078e-06
1.250723e-05 8.691219e-06 2.054174e-06
-1.380152e-05 -4.827939e-06 2.012465e-06
6.248669e-06 1.478355e-05 -1.810397e-06
-6.101167e-06 -1.581554e-05 8.300656e-07
-5.065115e-06 1.405050e-05 2.056716e-06
1.318518e-05 4.682315e-06 1.759162e-06
5.018568e-06 -1.199855e-05 7.294828e-08
6.045889e-06 1.165471e-05 -7.068867e-07
1.498056e-05 -7.958594e-06 -8.026853e-07
-9.957959e-07 -1.709716e-05 -5.047514e-22
-1.679475e-05 -2.503873e-06 -7.612619e-07
-1.082370e-05 7.310393e-06 4.798860e-07
-1.169295e-05 6.382902e-06 1.098424e-06
5.809609e-07 -1.593743e-05 -1.862197e-06
-1.261822e-05 -6.189647e-06 -1.795915e-06
-6.456611e-06 1.281343e-05 -1.932017e-06
-1.288629e-05 -1.099221e-05 8.609234e-07
1.040191e-05 1.168607e-05 -1.977618e-06
-1.802455e-06 1.684664e-05 -8.497367e-07
2.596531e-06 -1.276343e-05 2.888694e-07
1.185425e-19 -1.712613e-05 -5.047514e-22
-1.367096e-05 5.031061e-06 -1.999726e-06
2.699132e-06 -1.291390e-05 -8.609089e-07
-5.196729e-06 1.255641e-05 1.438157e-06
-6.383029e-06 1.464505e-05 -1.848857e-06
-6.362211e-06 1.485227e-05 1.747535e-06
-1.584878e-05 -6.081350e-06 -7.734608e-07
4.096605e-06 -1.355560e-05 -1.851830e-06
-3.998853e-06 1.645484e-05 8.693757e-07
7.682294e-06 1.171000e-05 -1.767130e-06
-3.703443e-06 -1.431968e-05 2.042441e-06
9.957959e-07 -1.709716e-05 -5.047514e-22
3.953996e-06 -1.559486e-05 -1.788969e-06
1.495356e-05 8.062886e-06 -7.397303e-07
1.335490e-05 1.048673e-05 -7.618583e-07
-1.010200e-05 -9.805100e-06 -1.808900e-06
8.239615e-06 -1.006567e-05 1.202576e-07
7.623764e-06 -1.427860e-05 1.729178e-06
7.200502e-06 -1.294134e-05 -2.044881e-06
6.606115e-07 -1.437137e-05 1.945806e-06
-1.356705e-05 8.098292e-06 1.925315e-06
9.514983e-06 -8.988858e-06 5.856108e-07
1.988222e-06 -1.701033e-05 -5.047514e-22
1.005328e-05 1.006072e-05 -1.880684e-06
-1.130205e-05 -6.805355e-06 -8.604952e-07
1.327232e-05 -7.929297e-07 1.056564e-06
-2.996282e-06 1.322322e-05 1.405777e-06
-1.318198e-05 1.070888e-05 -7.529319e-07
5.841452e-06 -1.389704e-05 -2.060782e-06
-1.583677e-06 1.388876e-05 -1.751079e-06
1.502503e-05 7.952963e-07 -2.060714e-06
1.475039e-06 1.294870e-05 3.381068e-07
-1.054227e-05 -1.333287e-05 -7.174865e-07
2.973921e-06 -1.686595e-05 -5.047514e-22
2.635780e-06 -1.675606e-05 8.056956e-07
9.543503e-06 1.152065e-05 2.058114e-06
-1.201575e-05 1.201575e-05 -7.291055e-07
1.386225e-05 7.375257e-07 1.687099e-06
9.506856e-06 -1.093637e-05 -1.979110e-06
1.456823e-05 -2.227779e-06 2.034575e-06
1.140278e-05 -1.148411e-05 1.731023e-06
1.572784e-05 -2.303332e-06 -1.886145e-06
1.687027e-05 -1.609719e-06 -8.406054e-07
-1.216847e-05 -6.859774e-06 -1.744882e-06
3.949558e-06 -1.666449e-05 -5.047514e-22
4.215935e-06 -1.643062e-05 8.038660e-07
-4.327987e-06 -1.640715e-05 -7.907587e-07
-2.535801e-06 -1.677813e-05 -7.900512e-07
1.236586e-05 -1.023644e-05 1.808698e-06
1.369675e-05 8.019574e-06 -1.896441e-06
1.417429e-05 7.242978e-06 -1.876295e-06
1.692421e-05 8.649881e-07 -8.419284e-07
1.692421e-05 8.649881e-07 8.419284e-07
-7.183207e-06 1.540444e-05 -7.182463e-07
5.469428e-06 -1.606564e-05 7.840868e-07
4.911830e-06 -1.640665e-05 -5.047514e-22
2.463375e-06 1.681732e-05 -7.186063e-07
1.159411e-05 -1.100178e-05 -1.845107e-06
-5.598947e-06 -1.205448e-05 1.048696e-06
7.618838e-06 -1.064063e-05 -5.771947e-07
-1.539681e-05 -4.118194e-06 1.866888e-06
-1.323604e-05 -4.014751e-07 9.606461e-07
5.234562e-06 -1.314015e-05 1.843590e-06
6.361215e-06 -1.330301e-05 2.035864e-06
4.771792e-06 -1.533382e-05 1.805337e-06
1.041206e-05 1.344244e-05 7.010034e-07
5.857482e-06 -1.609330e-05 -5.047514e-22
1.014781e-05 -1.036207e-05 1.982733e-06
1.127109e-05 8.667312e-06 -1.878679e-06
-7.492183e-06 -1.062944e-05 -4.198953e-09
1.746013e-06 -1.575685e-05 1.904213e-06
-1.035070e-05 -1.223767e-05 -1.822122e-06
-1.240151e-05 3.928397e-06 1.332880e-07
1.509825e-05 4.808062e-06 -1.907485e-06
-1.152502e-05 -1.124870e-05 1.779534e-06
1.349074e-05 -1.027970e-05 8.085195e-07
1.806040e-06 -1.427501e-05 1.946593e-06
6.783314e-06 -1.572549e-05 -5.047514e-22
1.578452e-05 -7.554814e-07 -1.924410e-06
1.613959e-05 5.348079e-06 -7.027698e-07
-1.470387e-05 8.400747e-06 8.678852e-07
-6.678796e-06 -1.245347e-05 1.837012e-06
1.089178e-05 -1.198436e-05 -1.724039e-06
1.372234e-05 -8.090207e-06 1.870788e-06
1.162817e-05 1.232548e-05 8.449057e-07
-2.009638e-06 -1.558843e-05 1.954909e-06
-6.623884e-06 -1.124364e-05 4.292423e-07
1.277622e-05 6.639487e-06 -1.949911e-06
7.686193e-06 -1.530447e-05 -5.047514e-22
-1.378788e-06 1.547192e-05 2.006982e-06
1.571430e-05 -6.414604e-06 -7.792820e-07
8.885196e-06 -1.448852e-05 7.207107e-07
1.480118e-05 -6.829232e-07 2.045778e-06
1.223773e-05 6.894388e-06 1.791151e-06
1.199989e-05 -1.204067e-05 -7.118957e-07
-1.392359e-05 -4.979733e-06 -2.041963e-06
-8.472425e-06 9.908485e-06 3.637200e-07
9.925436e-06 8.712878e-06 -8.910960e-07
-1.452635e-05 -8.784859e-06 7.718782e-07
8.563065e-06 -1.483166e-05 -5.047514e-22
-8.916245e-06 -1.446765e-05 -7.247569e-07
-9.584446e-06 1.090269e-05 1.986394e-06
6.217910e-06 1.581586e-05 7.254240e-07
5.176343e-06 1.356438e-05 1.986931e-06
7.218055e-06 -1.534682e-05 8.117667e-07
-7.481652e-06 -1.521367e-05 8.250037e-07
1.393177e-05 9.755127e-06 -6.889856e-07
-1.062401e-05 -1.245013e-05 1.597756e-06
-5.870040e-06 -1.362956e-05 2.048436e-06
1.525709e-05 6.148923e-06 -1.526696e-06
9.410963e-06 -1.430867e-05 -5.047514e-22
7.514394e-06 -1.168572e-05 1.695034e-06
1.077872e-05 1.039304e-05 -2.058743e-06
-1.540586e-05 -5.238837e-06 1.670410e-06
1.391680e-05 5.722775e-06 -2.060727e-06
1.586265e-05 -2.994475e-06 1.756682e-06
-3.395304e-06 -1.307806e-05 1.353839e-06
-8.557421e-06 1.353247e-05 -1.830934e-06
-8.691359e-06 -1.049338e-05 -1.474257e-06
1.100568e-05 -7.193935e-06 -7.562438e-07
-1.670319e-05 2.820154e-06 -8.567601e-07
1.022702e-05 -1.373727e-05 -5.047514e-22
-1.474258e-05 1.711471e-06 -2.048622e-06
1.329977e-05 -7.666920e-07 -1.098732e-06
-1.361930e-05 -2.259807e-06 1.630880e-06
-4.620751e-06 1.335800e-05 1.838667e-06
-1.171473e-05 1.226059e-05 8.164515e-07
-4.688651e-06 -1.556081e-05 1.684961e-06
4.952167e-06 -1.622130e-05 -8.097385e-07
-8.931517e-06 1.448019e-05 -6.729122e-07
6.234904e-06 -1.143475e-05 -2.835146e-07
-1.582657e-05 3.424730e-06 -1.724977e-06
1.100846e-05 -1.311938e-05 -5.047514e-22
1.264278e-05 -9.364583e-06 1.949560e-06
5.948609e-06 -1.201906e-05 1.228305e-06
-1.261132e-05 -1.138425e-05 -7.376150e-07
-3.663163e-06 1.584585e-05 1.676506e-06
7.606877e-06 1.452732e-05 -1.571563e-06
8.259404e-06 1.329239e-05 1.976287e-06
1.048797e-05 1.008563e-05 1.995465e-06
1.487551e-05 -6.007848e-06 -1.814176e-06
3.715261e-06 -1.460614e-05 2.060796e-06
-1.458252e-05 -5.524767e-07 2.005941e-06
1.175266e-05 -1.245710e-05 -5.047514e-22
-1.274696e-05 -9.849973e-06 1.776851e-06
-1.243276e-05 -4.558551e-06 -9.606524e-07
-1.360129e-05 -1.285565e-06 -1.509080e-06
8.836891e-06 1.446075e-05 8.401527e-07
-1.825288e-06 -1.688211e-05 -7.609474e-07
1.061890e-05 1.325564e-05 -7.508034e-07
-5.191515e-06 1.556398e-05 1.564243e-06
1.188540e-05 -6.109547e-06 1.162537e-06
-1.442235e-05 7.117128e-06 -1.792089e-06
-7.271253e-06 -1.423694e-05 1.843565e-06
1.245710e-05 -1.175266e-05 -5.047514e-22
-1.616765e-05 1.947302e-06 -1.661484e-06
1.292496e-05 -1.015887e-05 -1.535759e-06
-6.306207e-06 1.156175e-05 -8.085169e-07
-7.178187e-06 -1.538975e-05 -7.584482e-07
-6.974666e-06 -1.369032e-05 -2.038959e-06
-2.259496e-06 -1.423496e-05 1.954892e-06
-4.059531e-06 -1.553539e-05 -1.806500e-06
1.288476e-05 -1.843852e-06 -2.173810e-07
1.448233e-05 8.932832e-06 6.656147e-07
2.382567e-07 -1.697479e-05 7.710127e-07
1.311938e-05 -1.100846e-05 -5.047514e-22
6.178917e-06 1.486673e-05 1.782439e-06
-1.638409e-05 -4.434652e-06 7.779700e-07
9.949345e-06 8.493800e-06 5.591322e-07
-4.868124e-06 -1.536446e-05 -1.772117e-06
-1.504238e-05 6.240246e-06 -1.660835e-06
1.666524e-05 3.441095e-06 -6.623389e-07
-2.700657e-06 -1.512638e-05 -2.038814e-06
-1.659998e-05 -3.596712e-06 -7.491027e-07
8.938439e-06 1.367630e-05 -1.620707e-06
1.354750e-05 2.407616e-06 1.594507e-06
1.373727e-05 -1.022702e-05 -5.047514e-22
-1.274078e-05 -2.980649e-06 5.695446e-07
1.384112e-05 -9.859500e-06 -7.268045e-07
1.062305e-05 7.754641e-06 -7.663806e-07
-7.790938e-06 1.508845e-05 7.592449e-07
4.084041e-06 -1.272529e-05 1.163796e-06
-8.125436e-06 -1.397362e-05 1.743316e-06
-7.992960e-06 1.301042e-05 2.050662e-06
5.482452e-06 1.609460e-05 -7.023738e-07
-1.616830e-05 -2.254587e-06 -1.631192e-06
7.019381e-06 -1.162215e-05 -1.425843e-06
1.430867e-05 -9.410963e-06 -5.047514e-22
1.470605e-05 -7.498339e-06 -1.472227e-06
1.505947e-05 -5.787222e-06 1.762551e-06
4.609013e-06 1.552924e-05 -1.721105e-06
1.607341e-05 -3.156268e-06 -1.586689e-06
-1.375454e-05 -7.266488e-06 -2.001536e-06
1.225910e-05 6.177221e-06 -1.567506e-06
1.002336e-05 -8.537551e-06 -8.009204e-07
1.047290e-05 8.797736e-06 1.523694e-06
-2.848970e-06 -1.277102e-05 -5.700793e-07
1.239025e-05 -5.264931e-06 -1.295272e-06
1.483166e-05 -8.563065e-06 -5.047514e-22
-1.398737e-05 -9.637032e-06 -7.473452e-07
1.399224e-05 3.440555e-06 1.953508e-06
8.681413e-06 -1.107596e-05 1.806050e-06
-4.434963e-06 1.642622e-05 -6.693694e-07
-1.691853e-05 -1.607080e-06 7.242028e-07
3.114941e-06 1.601477e-05 -1.638752e-06
1.357600e-05 9.064967e-06 -1.631567e-06
-2.434335e-06 -1.588822e-05 -1.797286e-06
8.558416e-06 -1.375188e-05 -1.721911e-06
8.634069e-06 -1.050739e-05 -1.448762e-06
1.530447e-05 -7.686193e-06 -5.047514e-22
[...]
POINT_DATA 2048
VECTORS 10.000GHz_fone_imag double
-3.087449e+10 6.923247e+09 3.316134e+09
2.617744e+10 -2.025426e+10 7.885476e+08
-1.949358e+10 -3.030116e+10 2.319099e+06
-7.768391e+10 -2.134984e+09 -1.455344e+09
9.332424e+09 3.421326e+10 5.510829e+08
8.343499e+09 -4.291218e+10 4.681381e+08
1.764507e+10 -6.323599e+10 8.851447e+08
-1.312474e+10 5.095285e+10 -4.381552e+08
-1.689657e+08 2.572111e+10 1.250945e+09
-2.876825e+10 2.072227e+10 3.394008e+08
9.769029e+08 4.858633e+10 9.528197e+08
-2.978802e+10 3.296773e+09 -1.569303e+09
3.609902e+10 -1.140418e+10 -8.637353e+08
2.435517e+10 -3.558908e+10 1.323671e+09
-2.293091e+10 5.389076e+10 4.627110e+08
3.824578e+10 -1.776915e+10 -4.044415e+08
-2.723271e+10 1.047832e+10 -1.262749e+09
4.658211e+10 1.882664e+10 5.555231e+08
2.476518e+10 -6.182120e+10 -1.222803e+09
-7.829041e+10 -3.228856e+10 -1.612187e+09
7.150788e+10 -3.183293e+10 2.856096e+09
-1.390649e+10 -2.608120e+10 -6.240009e+08
-3.441664e+10 1.831765e+09 3.759322e+08
-5.287812e+09 3.183089e+10 9.432841e+08
4.136896e+10 6.199733e+10 -2.891578e+09
3.175103e+10 5.546863e+10 7.822493e+08
-4.276375e+10 -7.143671e+09 3.516017e+09
-3.220089e+10 6.279151e+10 -7.136311e+08
4.793008e+10 2.951518e+10 -1.589615e+09
-1.884804e+10 2.306537e+10 1.339527e+09
3.176806e+10 -2.457171e+10 -8.080094e+08
3.143849e+10 2.590067e+09 2.152784e+08
-6.762730e+10 -1.882337e+10 -9.564059e+08
-2.802720e+10 -3.544732e+08 -3.219789e+08
1.667947e+10 4.184827e+10 -2.652513e+08
-8.733643e+10 -2.135038e+10 9.027455e+08
6.087899e+10 2.260831e+10 -2.575539e+09
4.018906e+10 1.860730e+10 1.081469e+09
3.021906e+10 1.333295e+10 -1.440974e+09
-1.037986e+10 2.663211e+10 -3.896218e+08
-6.374608e+10 -1.771069e+10 6.364895e+08
3.494002e+10 9.540829e+09 1.418103e+09
4.731903e+10 -3.242856e+10 -1.756954e+09
-5.602447e+10 1.660634e+10 -5.785053e+08
-2.859461e+10 -1.431187e+09 -1.079952e+09
-3.149969e+10 -7.381724e+09 -4.198327e+08
1.786240e+10 -3.063093e+10 2.855674e+09
1.972241e+10 -2.215614e+10 -6.571142e+08
-3.291233e+10 3.806657e+10 -1.473062e+08
-5.979330e+10 -5.018709e+10 6.804502e+09
-3.852359e+10 -2.047118e+10 6.723678e+08
-5.014717e+10 -3.130100e+10 9.895098e+08
-4.298322e+10 -1.183089e+09 -3.746067e+09
1.589393e+10 3.458598e+10 -3.541781e+08
-4.028129e+10 -4.298344e+10 7.494458e+07
-2.966354e+10 -3.370045e+09 2.877385e+09
4.725030e+10 -4.221316e+10 1.403195e+08
-3.645192e+10 5.323992e+10 -4.046906e+09
-4.671427e+09 -5.366990e+10 -2.464222e+09
6.019033e+10 1.260688e+10 -1.949636e+09
2.101498e+10 2.727962e+10 1.043249e+09
-3.957746e+10 -1.773316e+10 5.273414e+04
6.862708e+10 7.779205e+09 2.046153e+08
3.167882e+09 -4.088691e+10 -1.545502e+09
6.077407e+10 -5.847082e+09 1.621841e+09
-3.138538e+10 2.534488e+10 2.555912e+08
-2.622940e+10 -5.117671e+09 -1.392439e+08
-2.646754e+10 -6.486355e+09 -7.751708e+08
3.420896e+10 -3.023270e+10 8.504861e+08
2.353330e+10 2.422572e+10 5.745581e+08
1.688769e+09 -5.578158e+10 1.334257e+09
-5.046570e+10 -3.639143e+10 -4.456256e+07
-8.561846e+09 -5.538275e+10 -1.864012e+09
-2.258817e+10 -2.264474e+10 -1.954051e+08
-7.085658e+09 -4.954403e+10 2.353895e+08
-4.692696e+09 -4.115759e+10 -9.071389e+08
-3.794303e+10 6.379854e+10 -2.131822e+09
-3.132169e+10 -6.020935e+09 5.502976e+08
-2.591272e+10 -5.821417e+09 -5.069666e+08
-2.762336e+10 6.422758e+09 1.277799e+09
-3.997806e+10 5.570298e+09 1.021543e+09
-2.305822e+10 -3.415552e+10 -1.160312e+09
1.639421e+10 -2.936179e+10 3.393909e+08
1.535458e+10 -2.921176e+10 -1.436167e+09
7.403710e+07 -3.592561e+10 -3.781965e+09
4.392548e+08 -3.459616e+10 3.207298e+09
3.134868e+10 1.234084e+10 9.668800e+08
-3.088865e+10 -9.302322e+09 2.051265e+09
-2.732665e+10 -7.888809e+09 -2.589676e+09
2.723204e+10 -4.324562e+09 -1.062476e+09
-3.101444e+10 -3.184006e+10 -7.392887e+08
-6.313226e+10 2.534251e+10 5.160090e+09
-5.366176e+10 -3.618797e+10 9.340867e+08
-9.894268e+09 3.695841e+10 -4.194417e+07
-2.314964e+09 7.016726e+10 2.349941e+09
-5.032819e+10 -2.102284e+10 3.524219e+08
-4.511187e+10 -2.395167e+10 2.106689e+09
-3.977141e+10 -1.080847e+10 1.264578e+09
2.127723e+10 -1.695138e+10 5.222720e+08
-3.123894e+10 -1.117324e+10 6.795642e+08
-4.286280e+10 -3.825173e+10 1.175061e+09
3.559685e+10 -4.326927e+10 -6.502505e+08
-5.769147e+10 4.052252e+10 3.688626e+09
-4.818013e+10 -6.838321e+09 -1.136697e+09
-2.538471e+10 2.162597e+10 -7.747060e+08
2.389930e+10 7.341920e+10 1.248506e+09
1.220176e+10 -4.270423e+10 -3.500061e+08
-3.224529e+10 3.332934e+10 -4.384704e+08
-1.855437e+10 -2.194998e+10 -6.424484e+08
-5.650558e+10 -5.835714e+09 4.276443e+08
-3.194602e+10 -1.409003e+10 -4.706965e+07
-2.983495e+09 -3.553444e+10 -5.462926e+08
9.372173e+09 -3.026917e+10 -6.950621e+08
1.316970e+10 2.445705e+10 6.566112e+08
-5.077778e+10 2.695126e+10 7.458591e+08
-2.574407e+10 -2.416999e+10 -1.312939e+09
-1.867000e+10 -3.625276e+10 2.703711e+08
2.798275e+10 -2.476699e+10 -9.580823e+08
-4.432182e+10 1.193651e+10 2.402126e+09
-7.110020e+10 4.119862e+10 7.227390e+09
2.511678e+10 -4.989222e+10 -3.917359e+09
-3.085863e+10 -1.576291e+10 4.920816e+08
4.322504e+10 4.729658e+09 1.415598e+08
-1.266329e+10 -2.842493e+10 -3.540268e+09
-3.185780e+10 -2.002507e+10 -3.119867e+08
4.864396e+08 -5.472020e+10 6.846179e+08
2.972439e+10 -5.182511e+10 -1.653177e+08
-1.981632e+10 -2.224631e+10 9.008116e+08
-1.783851e+10 4.459896e+10 7.749076e+08
4.135432e+10 3.952059e+10 -8.451951e+08
4.692392e+10 -5.521674e+10 1.766757e+09
-1.971676e+10 3.124849e+10 -6.578860e+08
-2.578693e+10 -1.491351e+10 -1.858123e+09
-3.010337e+10 1.824509e+10 2.718448e+09
4.222041e+10 3.853893e+10 -1.309615e+09
3.251189e+10 -1.124533e+10 -1.069249e+09
4.537909e+10 -1.885745e+10 -2.322282e+09
-3.361889e+10 -1.426699e+10 3.310193e+09
-2.632586e+10 1.165051e+10 4.903605e+06
2.338472e+10 -3.291897e+10 1.920635e+09
-2.879248e+10 2.730475e+10 -1.373287e+09
-4.295398e+10 1.977136e+10 -1.632518e+09
1.473453e+10 -4.267152e+10 -2.175030e+09
-2.603783e+10 -1.760677e+10 3.379861e+09
-3.662833e+10 -2.784417e+10 3.620174e+08
3.145588e+10 -3.570070e+10 -2.881445e+08
-9.681402e+09 3.653664e+10 1.836671e+09
2.030966e+10 -4.719866e+10 -2.986032e+08
-5.074488e+09 -3.344351e+10 2.733959e+08
-5.631548e+10 1.375100e+10 2.684255e+08
3.175099e+10 2.231200e+10 1.216733e+09
-6.328673e+10 5.020354e+10 -1.410775e+09
-4.807998e+10 -7.203929e+10 1.452800e+09
6.818577e+09 4.130235e+10 -1.077153e+08
-2.605075e+10 -1.915232e+10 1.222833e+09
1.081671e+10 4.940531e+10 -6.509226e+08
-5.343144e+09 -7.093588e+10 -5.586007e+08
-6.837224e+09 5.008629e+10 1.699188e+09
4.887940e+10 1.800104e+10 9.516165e+08
1.916741e+10 1.926018e+10 -4.320621e+08
-4.038176e+10 1.406095e+10 1.646881e+09
-2.889758e+10 -7.861840e+09 -1.834267e+09
2.409301e+10 1.345455e+10 -6.626413e+08
-7.550182e+10 -4.198018e+10 -3.587724e+09
8.147226e+09 3.801888e+10 -6.336764e+08
-2.390370e+10 -1.983273e+10 -7.725265e+08
-2.955372e+10 -3.683429e+10 2.839685e+08
-6.283320e+10 -2.048060e+10 -3.257063e+09
-1.940473e+10 2.192195e+10 3.567057e+08
3.125304e+10 8.756706e+09 4.196620e+08
2.475524e+10 -1.490940e+10 4.626583e+08
3.046635e+10 -1.986466e+10 -1.102052e+09
3.296957e+10 -3.350088e+10 -1.652622e+09
-1.461213e+10 -4.257363e+10 2.156536e+09
-5.612375e+10 -1.678606e+10 -7.523697e+08
-4.865167e+09 4.629988e+10 -4.456549e+08
-1.914858e+10 -1.921285e+10 -3.345371e+08
-2.855192e+10 3.253330e+10 7.764999e+08
-2.571248e+10 6.927855e+10 -2.823036e+09
-7.707541e+09 7.182149e+10 -2.810987e+08
3.192771e+10 -1.872478e+10 -7.419492e+08
-3.195232e+10 1.431295e+09 -2.450393e+08
2.990402e+10 -2.374241e+10 -1.638884e+09
3.205764e+10 8.541307e+09 1.688406e+09
-4.030530e+10 -7.261470e+10 -3.378048e+09
1.913042e+10 3.318498e+10 6.098848e+08
-3.565249e+10 1.893640e+10 1.313655e+09
-1.787175e+10 -1.863927e+10 7.045373e+06
7.023733e+09 3.984089e+10 2.130497e+09
-2.074465e+10 -2.639998e+10 8.457812e+08
6.215166e+10 3.533359e+10 -3.946444e+09
-3.011832e+10 1.450196e+10 1.759170e+09
-3.269152e+10 1.660736e+10 -1.620892e+08
-4.729187e+10 4.548141e+09 -1.234927e+08
-4.470638e+10 1.209984e+10 3.430578e+06
-1.093699e+10 -7.016297e+10 -3.672420e+09
1.462499e+10 -2.377114e+10 7.790301e+08
-3.251210e+10 -9.973956e+08 1.106591e+09
-2.053919e+10 -2.299596e+10 1.672672e+09
3.642961e+10 -1.236367e+10 -1.808011e+09
-8.513089e+09 3.514842e+10 6.990712e+08
3.983739e+10 -4.521115e+10 -2.379207e+09
-3.316658e+10 1.024932e+10 1.636846e+09
1.232089e+10 3.576956e+10 9.936098e+08
7.208926e+09 -3.312804e+10 -1.571516e+08
-4.684407e+10 9.425024e+09 2.463753e+09
-6.461747e+09 2.917489e+10 -1.364084e+09
3.922040e+10 -2.463618e+10 6.212846e+08
1.268421e+10 -7.429905e+10 -5.139758e+08
-1.997901e+10 -2.729271e+10 -3.507122e+09
-1.411470e+10 5.875490e+10 5.772307e+07
-1.842579e+10 -2.601888e+10 9.833841e+06
4.061092e+10 -5.803319e+10 2.292488e+09
2.894593e+10 1.727184e+10 -3.574336e+09
-7.706344e+10 -1.886388e+10 -3.843712e+09
-3.081405e+10 1.985869e+10 -4.912968e+08
4.577972e+10 2.768865e+10 -1.887487e+09
3.057888e+10 -1.151514e+10 -3.167997e+09
-4.931270e+09 4.400658e+10 -2.697897e+09
-4.862612e+10 -2.597650e+10 -3.814989e+08
-1.836360e+10 -2.711778e+10 1.489349e+09
-1.819732e+10 -3.617707e+10 1.386999e+09
-1.497384e+10 -3.461116e+10 5.352472e+08
3.808226e+10 -7.882065e+09 3.014261e+09
-6.823472e+09 -3.629159e+10 4.142096e+07
-2.520684e+10 4.354902e+10 5.114829e+08
2.045420e+10 -4.711791e+10 6.607379e+08
-4.343545e+10 -5.245507e+10 -2.651414e+08
4.668904e+10 -4.694841e+10 4.538692e+09
-6.851834e+10 1.414386e+10 2.928228e+09
-3.152374e+10 -6.042577e+10 3.695102e+09
-1.479669e+10 -2.647518e+10 -1.385926e+09
-2.099020e+10 3.008345e+10 6.875554e+08
1.049999e+10 -4.873975e+10 -2.194207e+08
-5.258961e+10 -3.842605e+10 -2.070990e+09
3.598266e+10 9.435341e+09 -7.155068e+07
-2.590627e+09 3.651535e+10 1.848540e+09
3.772367e+10 -8.166825e+09 -1.286037e+07
2.115059e+10 -2.846923e+10 3.291314e+09
-4.263869e+10 7.451307e+09 1.655238e+09
-2.977172e+10 -2.472680e+10 1.766274e+09
-4.746005e+10 -3.797531e+10 -2.993507e+09
-1.658444e+10 -3.173156e+10 4.739263e+08
-3.635925e+10 1.041875e+10 -1.582980e+09
4.351448e+09 3.329993e+10 4.170439e+09
7.622428e+10 2.913858e+09 5.632262e+09
1.520532e+10 -3.785518e+10 4.334193e+08
4.936637e+10 -1.790526e+09 -6.577769e+08
-3.409498e+10 3.872841e+10 -2.531391e+09
1.670942e+10 3.400964e+10 -1.433925e+09
-2.347164e+10 3.534807e+10 -2.189532e+09
-3.701330e+10 -1.356761e+09 3.204453e+08
6.189362e+10 4.777872e+10 3.207640e+09
-1.092127e+10 -2.603611e+10 -1.066764e+08
3.642038e+10 -4.816494e+10 1.026090e+09
3.920898e+10 6.066583e+10 3.404581e+09
-1.997351e+10 6.409562e+10 -9.842766e+08
-2.372333e+10 -1.899645e+10 6.087521e+07
-3.514952e+10 -4.347034e+10 -1.659466e+08
8.790600e+10 1.591264e+10 -1.896773e+09
1.213421e+10 4.449418e+10 3.178075e+08
2.292777e+10 -2.853964e+10 -9.634200e+08
3.383812e+10 4.457798e+10 4.900721e+08
1.034199e+10 -2.641175e+10 1.230961e+09
-1.028100e+10 -2.807270e+10 7.708049e+08
-5.668382e+10 -7.550914e+09 3.981466e+08
-3.151665e+10 3.439339e+10 -1.835727e+09
-7.262992e+10 8.383244e+09 2.377875e+09
-1.206610e+09 4.423793e+10 2.266888e+09
6.110505e+10 -1.435344e+10 6.621958e+06
4.447261e+10 7.463616e+08 -6.844494e+08
2.682690e+09 -8.003658e+10 3.094706e+09
-1.414389e+10 -3.543039e+10 -1.108398e+09
1.412115e+10 -5.239902e+10 2.317099e+09
3.182690e+10 1.911807e+10 1.085747e+09
-1.005643e+10 -3.134060e+10 2.309007e+09
-3.265930e+10 1.067198e+10 -3.602209e+07
-1.256558e+09 -4.081820e+10 9.773958e+08
-3.339520e+10 -3.543432e+10 -1.441535e+09
-2.376721e+10 -1.721602e+10 -1.216181e+09
5.336483e+09 7.267476e+10 1.672591e+09
-5.104159e+09 6.722207e+10 -1.973373e+09
1.669796e+10 -5.061498e+10 1.850866e+07
-2.371701e+10 -3.598303e+10 1.331448e+09
-4.847837e+10 2.206580e+10 -8.127057e+08
-5.055302e+10 5.591712e+10 4.633753e+09
-7.302763e+09 -2.903540e+10 -6.688762e+08
6.461891e+10 -1.208050e+10 6.942868e+09
7.015822e+09 -2.853326e+10 6.967406e+08
3.909153e+10 7.242507e+10 -7.796148e+09
-1.073404e+10 4.393614e+10 -5.745714e+09
-4.579286e+10 -3.832638e+10 4.446001e+08
4.009986e+10 6.709687e+09 -1.907352e+09
6.209558e+10 -2.092635e+10 5.150104e+08
-4.578547e+10 1.127402e+10 8.778039e+08
-5.604576e+09 2.968932e+10 1.850011e+09
3.876872e+10 -5.091403e+10 1.297189e+09
-5.461812e+09 -3.390215e+10 -2.921595e+09
-3.478311e+10 -1.879359e+10 1.612639e+08
2.840850e+10 -1.779359e+10 -8.657919e+08
-2.302268e+10 3.984598e+10 -6.666735e+08
3.960188e+10 7.003192e+10 -3.789965e+09
-4.514979e+10 3.512950e+09 6.833254e+08
3.305189e+10 7.290579e+08 3.150111e+09
-4.319933e+10 7.585420e+09 -2.800967e+09
-4.909197e+10 -5.179996e+10 1.681397e+09
1.395512e+10 5.987797e+10 9.290418e+07
-3.786049e+10 -7.548163e+09 2.553012e+09
-2.620666e+09 -2.991505e+10 -1.492290e+08
-2.561020e+10 3.372799e+10 1.224843e+08
-5.964343e+10 2.353359e+10 -6.303003e+09
6.352094e+10 -2.769572e+10 -1.680158e+09
-2.935824e+10 -6.810041e+10 -2.472321e+09
-5.389809e+10 3.808037e+10 6.908691e+08
2.827650e+09 3.412677e+10 -5.566694e+08
2.587362e+10 1.867834e+10 4.157561e+09
-1.235328e+10 -7.147798e+10 -1.438332e+09
-1.088148e+10 -4.519095e+10 -3.443749e+08
7.377812e+10 -5.700303e+09 3.381686e+09
-2.654218e+09 -2.892521e+10 -6.884772e+08
5.407894e+10 -5.694753e+10 2.977953e+09
-1.183146e+10 -7.033211e+10 7.216044e+09
-3.965069e+10 -1.194742e+10 2.241358e+09
9.318626e+09 -3.639729e+10 5.145545e+07
-3.795822e+10 -2.974687e+10 8.717922e+07
-9.456701e+09 -4.801249e+10 7.504721e+08
1.131643e+10 5.172636e+10 2.227796e+08
-7.134256e+09 -5.553958e+10 -2.288577e+09
-1.195573e+10 -4.438697e+10 1.683165e+09
9.226505e+09 8.304689e+10 -5.752921e+09
4.620139e+08 -3.535625e+10 -8.450822e+08
4.119007e+10 1.543496e+10 2.258585e+09
-6.067359e+10 3.247331e+10 -3.302128e+09
9.172936e+08 3.965741e+10 4.515484e+08
-3.247375e+10 1.818378e+10 5.557700e+08
-3.490781e+10 1.490537e+10 -2.513400e+09
-2.035083e+10 3.584727e+10 -1.753017e+09
2.759156e+10 -3.008315e+10 -2.958374e+09
-4.266767e+10 3.984308e+10 4.509664e+08
-1.084617e+10 -3.777139e+10 1.617912e+09
3.831684e+10 -2.710974e+09 -2.388945e+09
1.322191e+09 -3.940244e+10 -1.561544e+09
4.826212e+10 -7.792597e+09 1.769825e+08
-1.267504e+10 -3.163782e+10 4.150599e+08
-1.955978e+10 -5.418881e+10 -2.260747e+09
6.948543e+10 -3.824434e+10 -9.606819e+08
2.726315e+10 -4.922148e+10 4.767572e+09
2.085783e+10 -5.133009e+10 1.872157e+09
2.391651e+10 2.727287e+10 3.372177e+09
2.461954e+10 7.001534e+10 -3.343553e+09
3.577393e+09 -3.679773e+10 1.095849e+08
-5.386347e+10 5.465336e+10 -7.366947e+09
7.283764e+08 -3.733333e+10 -3.333803e+08
2.326367e+10 2.257890e+10 2.221024e+09
-7.484809e+10 -1.977535e+10 5.879903e+09
-5.982711e+10 -5.376636e+09 1.936675e+09
-1.298448e+10 2.708406e+10 -1.961224e+09
-9.520366e+09 3.188025e+10 1.390507e+09
6.242092e+10 1.159829e+10 -2.009276e+08
6.680047e+10 4.959389e+10 -1.142738e+08
6.254579e+10 4.753189e+10 1.700173e+09
8.700627e+09 5.599189e+10 3.210678e+09
-1.353066e+10 -2.242290e+10 -1.984916e+08
-5.468627e+08 -6.757332e+10 -9.684671e+08
-3.906322e+10 1.655280e+10 3.591233e+08
4.756559e+10 5.716656e+10 5.072010e+08
-1.522977e+10 -5.452752e+10 1.222697e+09
5.102829e+10 6.375551e+10 1.337326e+09
-8.389746e+09 -4.897951e+10 -1.901613e+09
-2.596753e+10 4.796361e+10 1.999620e+09
-2.539170e+10 1.917287e+10 -2.193217e+09
-3.900793e+10 2.131350e+10 2.108906e+09
6.638168e+10 -2.828944e+10 -3.057208e+08
-2.780342e+10 -1.867809e+10 -8.231019e+07
5.834627e+09 -7.120430e+10 4.203648e+09
6.342662e+10 1.497428e+10 4.844213e+08
-6.099373e+09 -2.850600e+10 -3.436991e+09
-6.134783e+10 6.307702e+09 7.829341e+08
8.462747e+09 -4.963017e+10 3.911381e+09
-3.040998e+10 -6.670375e+10 5.142067e+09
3.879018e+10 -9.311555e+09 -2.765648e+09
3.512439e+10 4.013450e+08 -1.939660e+09
2.353657e+10 -5.138111e+10 1.622381e+08
3.189908e+10 -6.839239e+09 3.233328e+09
3.121710e+10 5.542058e+10 -1.190096e+09
1.145322e+09 -6.373594e+10 -8.604095e+07
-2.955177e+10 -1.158484e+10 2.238823e+09
4.085909e+08 4.019703e+10 9.904863e+08
-6.498528e+10 -1.574685e+10 -2.296239e+09
-3.572293e+10 1.167739e+09 1.620837e+09
-2.025220e+10 1.887725e+10 -7.804714e+08
-3.043536e+10 2.891334e+10 3.200093e+09
4.288351e+10 2.728966e+10 -2.275619e+09
4.810057e+10 3.688795e+10 9.875617e+08
-2.650535e+10 6.079961e+10 2.207193e+08
-7.020164e+09 6.214009e+10 -1.033959e+09
4.844495e+08 -7.954629e+10 7.037639e+09
-9.644297e+09 -2.731985e+10 -4.247275e+08
3.433351e+10 3.877954e+10 6.135536e+08
4.534595e+09 2.750008e+10 7.674910e+08
-4.255905e+09 -3.753866e+10 -9.708279e+08
1.310319e+09 -3.888047e+10 -2.137058e+08
1.243350e+09 -3.811634e+10 2.067619e+08
-4.028568e+09 5.267915e+10 -1.882528e+09
2.259145e+09 6.627474e+10 -1.029635e+09
-4.472146e+10 -5.713753e+10 2.979038e+09
-5.761854e+10 2.382459e+10 -1.293418e+09
2.625944e+09 -6.259665e+10 1.213625e+09
-2.964461e+10 7.414396e+10 1.187965e+09
-3.416493e+10 4.871754e+10 5.629765e+08
-3.522419e+10 2.120764e+10 3.264666e+08
-1.356578e+10 -6.333207e+10 1.514336e+09
-3.123966e+10 -8.644702e+10 1.192252e+09
-4.430048e+10 -2.857624e+10 5.473463e+08
6.157754e+10 -2.913395e+10 4.552508e+08
-7.449423e+10 -2.908189e+10 1.711021e+09
1.068593e+10 -3.685641e+10 -1.513791e+09
3.987334e+10 -6.130627e+10 5.068455e+08
7.809429e+09 -6.418099e+10 -2.003706e+09
1.592859e+10 3.859568e+10 3.268579e+09
4.236827e+10 -1.987967e+10 -8.880224e+08
2.735334e+10 7.196536e+10 6.042340e+09
3.305502e+10 2.510134e+10 -3.851672e+08
2.621415e+09 -3.521341e+10 -2.105451e+09
-3.513766e+10 7.491645e+10 -5.117692e+09
-1.758414e+09 2.907369e+10 -4.311945e+08
2.940218e+10 -1.996360e+10 -1.521264e+09
-3.965679e+10 3.226492e+10 7.383186e+08
-7.932896e+09 3.641332e+10 -5.855986e+07
-6.419283e+09 -4.652950e+10 -1.353141e+09
4.994544e+10 6.786110e+09 -2.985027e+08
-4.847472e+10 5.843209e+10 -1.266778e+09
1.986079e+10 7.692278e+10 2.283734e+09
-4.994369e+10 -6.350805e+09 -6.747048e+08
-2.628346e+10 4.669995e+10 -2.561260e+09
6.056307e+10 1.309704e+10 1.277526e+09
-3.982824e+10 1.050203e+10 -1.927144e+09
1.268241e+10 3.288089e+10 1.389060e+08
5.524819e+10 -3.649209e+10 3.246243e+09
-5.883219e+10 -9.577499e+07 -1.348646e+09
-9.440755e+08 -3.532990e+10 -1.168510e+08
-4.517166e+10 -3.210285e+10 5.696989e+07
-8.314809e+09 -6.416653e+10 1.611366e+09
-7.188285e+10 -1.865135e+10 -3.674025e+08
3.506114e+10 3.412629e+09 2.997308e+08
-5.329560e+10 5.546512e+10 -1.024444e+09
-3.129165e+10 1.513837e+10 -4.313064e+08
1.938387e+10 3.391550e+10 -2.156041e+09
-6.876882e+10 4.681499e+10 -2.589093e+09
2.753199e+10 -2.935685e+10 -2.226719e+09
5.937289e+10 -1.114969e+10 4.954102e+08
1.858632e+09 -3.963679e+10 1.735968e+09
3.644610e+09 9.019512e+10 -1.162524e+09
-4.846602e+10 -4.209769e+10 2.688528e+07
2.080550e+10 -3.097879e+10 1.909972e+08
1.751110e+10 -4.959762e+10 -3.271938e+08
-2.674229e+10 -2.993248e+10 3.525684e+08
1.621926e+10 4.755463e+10 -7.177784e+08
3.070724e+10 5.799533e+10 -3.216049e+08
-2.407385e+09 -6.041394e+10 1.032148e+09
-3.011432e+10 -2.957609e+10 6.119661e+08
-3.052704e+10 -5.483503e+10 -3.114827e+08
9.509814e+10 5.140876e+09 2.586480e+09
-5.671221e+10 -1.540715e+10 -2.408257e+09
8.172052e+10 -7.799914e+08 -7.256150e+09
6.128916e+08 5.120421e+10 5.158990e+07
-7.093324e+10 -2.982868e+10 -2.175417e+09
2.663467e+10 -5.105174e+10 -9.750508e+08
-3.264960e+10 1.452091e+09 5.985794e+08
-3.008497e+09 -3.442061e+10 -1.944420e+09
3.308067e+10 -1.476997e+10 -5.625126e+08
2.699556e+10 -3.037938e+10 -1.828485e+08
-1.703355e+10 2.481124e+10 1.699372e+08
-5.289117e+10 -2.601001e+10 1.070014e+08
3.236283e+10 1.583936e+10 5.098374e+08
-6.257179e+10 -3.822292e+10 -4.172890e+09
-3.455154e+10 -4.496855e+10 5.915454e+08
-2.450055e+10 2.164669e+10 3.588354e+09
-6.029660e+10 1.051129e+10 -1.965903e+09
5.818068e+10 -4.500635e+10 1.291544e+09
1.969829e+10 -2.185743e+10 -6.641422e+08
4.862061e+10 1.978062e+10 -1.602246e+09
5.221407e+10 2.631105e+10 -5.495097e+08
3.986227e+10 -1.019079e+10 1.139801e+09
3.067087e+10 -3.052219e+10 -7.519137e+08
5.448331e+09 4.027683e+10 -3.494433e+09
-5.688087e+10 -4.356369e+09 6.286714e+07
3.244489e+10 -2.653343e+10 -5.226339e+07
-3.909876e+10 6.825130e+09 -1.148752e+08
7.402635e+10 -2.224014e+10 2.521546e+09
3.404654e+10 8.389262e+09 5.329616e+08