# vtk DataFile Version 2.0
Electric current density generated by TTH
ASCII
DATASET UNSTRUCTURED_GRID
POINTS 2341 double
-2.392892e-05 1.065384e-05 -3.575476e-22
-2.053864e-05 -1.138788e-05 7.552949e-07
-2.497687e-05 1.681445e-06 -1.428696e-06
-1.247104e-05 -2.270291e-05 -8.743070e-07
1.969641e-05 -1.242245e-05 -1.923795e-07
1.596921e-05 -1.835988e-05 -1.403773e-06
2.413518e-05 -1.077629e-06 1.342022e-06
-1.617837e-05 -1.709257e-05 8.331712e-07
2.339244e-05 -7.088272e-06 1.430525e-06
-1.141260e-05 2.037746e-05 4.818574e-07
5.165567e-07 -2.586704e-05 -9.136538e-07
-2.428616e-05 9.812246e-06 -3.575476e-22
-1.938245e-05 1.288447e-05 -3.159930e-08
9.199635e-06 -2.264951e-05 1.431284e-06
-2.110878e-05 -9.802688e-06 2.360307e-09
1.717159e-05 1.650589e-05 -1.137093e-06
1.700422e-05 1.768126e-05 -1.445663e-06
1.172864e-05 -2.035148e-05 -7.631340e-07
-1.844855e-05 -1.597448e-05 -1.421981e-06
2.320674e-05 1.141756e-05 9.245612e-07
-1.176134e-05 2.308294e-05 8.690690e-07
-4.097349e-06 2.337357e-05 -1.060009e-06
-2.461381e-05 8.958693e-06 -3.575476e-22
2.511368e-05 -6.182439e-06 9.244133e-07
-2.020783e-05 1.344148e-05 1.384183e-06
-2.206052e-05 -1.119711e-05 1.459787e-06
-4.043401e-06 2.408175e-05 1.425446e-06
-1.573688e-05 1.748420e-05 -8.161335e-07
2.367673e-05 3.463011e-06 -1.217763e-06
6.537339e-06 -2.358132e-05 1.435919e-06
-2.557546e-05 3.699527e-06 -9.504712e-07
2.065208e-05 -1.347311e-05 1.457854e-06
-2.348343e-05 -1.095050e-05 8.629468e-07
-2.491147e-05 8.094227e-06 -3.575476e-22
-1.433905e-06 2.453451e-05 -1.451300e-06
6.237601e-06 -2.360487e-05 -1.424617e-06
2.546899e-05 -4.896886e-06 -8.286517e-07
2.582465e-05 -2.133578e-06 8.608415e-07
4.059245e-06 -2.562906e-05 -8.093931e-07
1.847862e-05 1.457351e-05 -8.316745e-07
5.593910e-06 2.373432e-05 -1.417456e-06
-2.226532e-05 -6.784853e-06 8.134156e-08
-4.613985e-06 -2.392281e-05 1.412139e-06
-1.963417e-05 -1.685409e-05 9.090589e-07
-2.517878e-05 7.219898e-06 -3.575476e-22
2.273186e-05 5.615300e-06 6.265012e-07
-1.451168e-05 1.819878e-05 -8.358029e-08
1.959835e-05 1.564308e-05 1.419114e-06
-1.358971e-05 2.036273e-05 -1.437773e-06
-2.392186e-05 -1.003781e-05 -8.183768e-07
-3.547112e-07 2.591032e-05 -8.606904e-07
-1.276307e-06 2.454402e-05 1.451387e-06
-1.838573e-06 -2.322798e-05 -2.782256e-07
-2.428924e-05 -8.956138e-06 8.938314e-07
1.336772e-05 2.036711e-05 1.411735e-06
-2.541541e-05 6.336773e-06 -3.575476e-22
-2.345995e-05 6.062699e-06 -1.370404e-06
7.184715e-06 -2.484648e-05 9.232800e-07
-2.175254e-05 1.111115e-05 -1.427013e-06
-5.812497e-06 -2.404142e-05 1.459799e-06
-1.787144e-05 -1.667125e-05 -1.429978e-06
1.566928e-05 -1.939071e-05 -1.446479e-06
-1.990590e-05 -1.520741e-05 -1.425079e-06
2.458311e-05 -8.179942e-06 -8.667360e-07
1.865802e-05 1.447579e-05 9.379151e-07
-1.041660e-06 2.328639e-05 -3.213530e-07
-2.562108e-05 5.445928e-06 -3.575476e-22
-1.921239e-05 1.504473e-05 1.421633e-06
-1.524882e-05 1.918575e-05 -1.442178e-06
1.677910e-05 1.641116e-05 7.317239e-07
-2.072396e-05 -1.105877e-05 -7.643598e-07
-2.077547e-05 1.496292e-05 1.172784e-06
3.144815e-06 -2.454901e-05 -1.459712e-06
-1.393867e-05 -1.877912e-05 5.629563e-07
2.584591e-05 2.166272e-06 -8.271234e-07
-1.611294e-05 1.860188e-05 1.454559e-06
-2.211187e-05 -8.562064e-06 1.042381e-06
-2.579553e-05 4.548448e-06 -3.575476e-22
-1.761840e-05 1.577892e-05 -9.794963e-07
1.706201e-05 1.952008e-05 -8.425551e-07
-2.443046e-05 2.573940e-06 1.450101e-06
1.615555e-05 -1.834457e-05 1.430837e-06
-1.529647e-05 -1.755543e-05 -1.771030e-07
2.468860e-05 2.040718e-06 1.459275e-06
1.870356e-05 -1.670560e-05 -1.418635e-06
-1.171328e-05 -2.046188e-05 8.909824e-07
1.744672e-05 -1.912988e-05 -8.898065e-07
-2.174873e-05 1.412379e-05 -8.331264e-07
-2.593855e-05 3.645426e-06 -3.575476e-22
2.546571e-05 4.997172e-06 -8.050992e-07
1.665777e-05 1.814863e-05 1.456421e-06
-9.778733e-06 2.121609e-05 4.973637e-07
2.412142e-05 4.777253e-06 -1.452706e-06
2.217877e-06 2.437749e-05 -1.437267e-06
-2.296104e-06 -2.584696e-05 8.090791e-07
1.088834e-05 -2.349046e-05 8.893736e-07
-2.458374e-05 8.213061e-06 8.515121e-07
-8.687304e-06 2.293027e-05 1.444186e-06
2.199212e-05 8.087275e-06 6.607662e-07
-2.604998e-05 2.737963e-06 -3.575476e-22
1.474084e-05 -1.952539e-05 -1.434851e-06
2.086813e-05 1.140196e-05 -1.105144e-06
-1.967433e-05 -1.692773e-05 -8.006217e-07
-1.670356e-05 -1.814333e-05 -1.458014e-06
2.071070e-05 1.091839e-05 6.208688e-07
2.357613e-05 4.418763e-06 1.254183e-06
1.091570e-05 2.208077e-05 1.456222e-06
-1.098707e-05 2.191060e-05 -1.442721e-06
-1.187371e-05 2.137838e-05 -1.432846e-06
3.760686e-06 2.299285e-05 2.663319e-07
-2.612966e-05 1.827164e-06 -3.575476e-22
-9.266394e-06 2.269681e-05 -1.443409e-06
-6.877413e-08 -2.329072e-05 -2.218137e-07
-1.753707e-06 2.351429e-05 -8.939437e-07
2.890415e-06 -2.346674e-05 9.714978e-07
-8.268273e-06 2.456301e-05 8.544330e-07
-5.037343e-06 -2.544060e-05 8.300532e-07
-2.319022e-05 -4.172597e-06 -8.715754e-07
-1.836146e-05 1.833438e-05 -8.103643e-07
2.061530e-05 1.340628e-05 1.452814e-06
-9.594111e-06 -2.260915e-05 -1.449498e-06
-2.617751e-05 9.141388e-07 -3.575476e-22
2.004870e-05 1.442030e-05 -1.459314e-06
1.676369e-05 1.974627e-05 8.746340e-07
-2.378037e-05 1.555261e-06 1.147399e-06
-3.169761e-06 -2.344757e-05 9.899927e-07
2.477450e-05 8.212536e-07 -1.458784e-06
-1.126206e-05 -2.195199e-05 -1.458510e-06
-1.624686e-05 -2.022281e-05 8.209569e-07
-9.702082e-06 2.401039e-05 8.825091e-07
6.717685e-06 2.507074e-05 7.993821e-07
1.090606e-05 -2.353873e-05 -8.183582e-07
-2.619347e-05 1.427946e-19 -3.575476e-22
-6.938534e-06 2.495196e-05 8.795855e-07
2.177773e-05 1.412947e-05 7.922143e-07
6.592683e-06 2.509115e-05 -8.179189e-07
-2.482797e-05 -7.521786e-06 -8.186059e-07
-2.236237e-05 -1.105372e-05 -1.444399e-06
-2.593601e-05 5.240588e-07 -8.201351e-07
-1.913166e-05 -1.329982e-05 -2.767080e-07
8.378174e-06 -2.455114e-05 -8.201128e-07
9.361140e-06 -2.419416e-05 -8.190855e-07
-2.526162e-05 -5.902700e-06 -8.190023e-07
-2.617751e-05 -9.141388e-07 -3.575476e-22
-2.584931e-05 -2.192680e-06 -8.189058e-07
-2.593690e-05 -5.213215e-07 -8.189059e-07
-2.574033e-05 -3.229607e-06 -8.189041e-07
-2.547851e-05 -4.882605e-06 -8.189115e-07
-2.450501e-05 -8.512808e-06 -8.197954e-07
1.184021e-05 -2.308208e-05 -8.195179e-07
-1.733269e-05 -1.923343e-05 -8.896378e-07
-1.396269e-05 1.913375e-05 -1.017228e-06
-4.217503e-06 -2.429353e-05 -1.457779e-06
-1.391116e-05 1.898298e-05 8.325118e-07
-2.612966e-05 -1.827164e-06 -3.575476e-22
-1.637141e-05 -1.705764e-05 -9.701626e-07
-2.253334e-05 1.046969e-05 1.455405e-06
1.247660e-05 2.274248e-05 8.219977e-07
1.546464e-05 -2.079793e-05 8.543527e-07
1.260906e-05 -2.117265e-05 1.456971e-06
-6.419257e-06 -2.252625e-05 6.428498e-07
4.566263e-07 -2.597287e-05 7.651345e-07
2.498933e-05 -8.457915e-07 1.434618e-06
-2.354495e-05 1.090044e-05 -8.134956e-07
-1.260151e-05 2.268804e-05 -8.030347e-07
-2.604998e-05 -2.737963e-06 -3.575476e-22
2.336654e-05 -2.037827e-06 -7.047126e-07
2.375113e-05 1.778272e-06 -1.136594e-06
2.497183e-05 -1.906814e-06 -1.426317e-06
-1.329604e-05 2.057502e-05 1.440530e-06
2.255672e-05 -6.136244e-06 5.375985e-07
2.314384e-05 -1.183207e-05 -7.383413e-07
1.403584e-05 -2.060666e-05 -1.446168e-06
-1.752847e-05 1.908481e-05 8.605130e-07
2.298356e-05 5.697072e-06 -1.009422e-06
8.508337e-06 2.453066e-05 -7.852052e-07
-2.593855e-05 -3.645426e-06 -3.575476e-22
2.585480e-05 -2.125561e-06 -8.190835e-07
3.612188e-06 -2.299926e-05 -1.460265e-07
1.705685e-05 -1.843471e-05 1.409050e-06
-2.126409e-05 -1.486896e-05 -8.116681e-07
-2.327147e-05 5.865941e-07 1.205798e-07
-1.815403e-05 -1.694634e-05 1.456320e-06
4.790363e-06 2.306116e-05 8.591098e-07
-9.603890e-06 -2.405461e-05 -8.766229e-07
-1.028484e-05 2.251202e-05 1.459706e-06
1.097650e-05 2.060027e-05 4.411484e-07
-2.579553e-05 -4.548448e-06 -3.575476e-22
-2.024934e-05 -1.401642e-05 1.455906e-06
-2.106544e-05 -1.274425e-05 1.455405e-06
2.378624e-05 -8.703372e-07 -1.123967e-06
-2.267309e-05 7.716495e-06 1.231762e-06
-6.799825e-06 -2.254208e-05 -8.478680e-07
1.255589e-05 1.961155e-05 1.919591e-07
8.900312e-06 2.326861e-05 -1.448776e-06
1.032556e-05 -2.149952e-05 1.162338e-06
-1.245910e-05 -2.275980e-05 8.119565e-07
-1.822858e-05 1.447041e-05 7.588061e-09
-2.562108e-05 -5.445928e-06 -3.575476e-22
-1.946886e-05 1.713609e-05 -8.277221e-07
-2.171748e-05 8.690187e-06 5.744040e-07
1.951814e-05 1.711721e-05 7.908644e-07
-2.099701e-05 -1.356894e-05 -1.435334e-06
-1.195151e-05 2.173864e-05 1.457936e-06
1.603779e-05 1.827514e-05 -1.398303e-06
-1.879188e-05 -1.432293e-05 -9.531233e-07
1.717559e-05 -1.597171e-05 7.027149e-07
-1.067276e-05 -2.069723e-05 -1.951439e-07
1.769710e-05 -1.731858e-05 1.459538e-06
-2.541541e-05 -6.336773e-06 -3.575476e-22
-2.216819e-05 -8.125033e-06 -9.321963e-07
2.236688e-05 6.881839e-06 -5.972692e-07
4.246662e-06 -2.559476e-05 8.151689e-07
-2.202845e-05 8.740244e-06 -1.029835e-06
2.834037e-06 2.464988e-05 1.457682e-06
-2.084763e-06 2.344292e-05 8.338232e-07
-2.126962e-05 1.274213e-05 -1.458538e-06
2.533012e-05 5.847919e-06 -7.324631e-07
1.267295e-05 -2.170443e-05 -1.404014e-06
-2.123949e-05 -1.406073e-05 1.259349e-06
-2.517878e-05 -7.219898e-06 -3.575476e-22
-1.325223e-06 2.593997e-05 7.701247e-07
-2.118181e-05 -1.025044e-05 -8.284102e-07
6.006816e-06 2.420353e-05 1.445459e-06
2.485363e-05 7.476590e-06 8.013539e-07
7.710224e-06 2.207394e-05 -5.507599e-07
2.480980e-05 -3.453801e-06 -1.425323e-06
-7.168880e-06 -2.359828e-05 1.458096e-06
-8.610147e-06 -2.176345e-05 6.041553e-07
-1.415964e-05 -2.180394e-05 7.293331e-07
1.004693e-05 -2.115674e-05 -6.389148e-07
-2.491147e-05 -8.094227e-06 -3.575476e-22
-2.870756e-06 2.484744e-05 1.432878e-06
1.177025e-05 2.158071e-05 1.451880e-06
-1.560880e-05 -1.831688e-05 1.297850e-06
-2.204345e-05 7.575961e-06 -3.182914e-07
-1.896303e-05 -1.393140e-05 8.265617e-07
-3.168788e-06 -2.580771e-05 7.235794e-07
1.949953e-05 -1.713799e-05 7.912928e-07
-1.545048e-05 1.822412e-05 1.192852e-06
-1.447138e-05 -2.049552e-05 1.415745e-06
2.330058e-05 8.033692e-06 -1.457203e-06
-2.461381e-05 -8.958693e-06 -3.575476e-22
[...]
POINT_DATA 2341
VECTORS 10.000GHz_fone_imag double
7.196731e+09 1.977772e+10 1.217335e+09
-1.436959e+10 2.548508e+10 -1.038815e+09
2.222837e+09 2.387357e+10 3.591211e+08
-1.732115e+10 1.050086e+10 7.468529e+08
-1.755694e+10 -2.728857e+10 3.173384e+08
-1.807029e+10 -1.617043e+10 8.717838e+08
-7.082452e+08 -2.470936e+10 -6.314919e+08
-2.335176e+10 2.194910e+10 -1.353718e+09
-6.762061e+09 -2.986027e+10 -1.046205e+09
3.115213e+10 1.442095e+10 -2.318328e+08
-2.078268e+10 5.881953e+08 3.772382e+08
7.610107e+09 1.981362e+10 1.338360e+09
2.004450e+10 3.040207e+10 5.427090e+07
-2.509375e+10 -9.968781e+09 -1.332791e+08
-1.315437e+10 2.911662e+10 4.066346e+08
2.097401e+10 -1.967728e+10 7.571838e+08
1.819223e+10 -1.867675e+10 2.568067e+08
-2.751067e+10 -1.553107e+10 4.146487e+08
-1.599588e+10 1.861980e+10 -9.594787e+08
8.874199e+09 -1.864867e+10 2.779111e+08
2.771481e+10 1.487159e+10 -1.543772e+08
2.832132e+10 5.030977e+09 -6.370944e+08
6.629951e+09 1.869588e+10 -8.954886e+08
-4.470649e+09 -2.183547e+10 -5.107840e+08
1.736407e+10 2.723052e+10 -2.543815e+08
-1.065779e+10 2.200829e+10 4.068360e+08
2.823694e+10 6.236816e+09 -6.380861e+08
2.193514e+10 1.900868e+10 -1.719776e+08
4.649110e+09 -2.757552e+10 1.332331e+09
-2.605799e+10 -7.165264e+09 -5.008534e+08
3.173159e+09 2.014518e+10 2.085312e+08
-1.573516e+10 -2.049589e+10 -1.760787e+09
-8.633205e+09 1.867569e+10 1.434345e+08
6.934131e+09 1.921445e+10 -6.820977e+07
2.961563e+10 1.292784e+09 -3.313651e+08
-2.437566e+10 -6.835630e+09 7.631773e+08
-3.431060e+09 -1.943751e+10 3.007640e+08
-1.299746e+09 -2.110995e+10 -6.250787e+08
-2.180356e+10 -3.762444e+09 -1.230254e+09
1.808911e+10 -2.309785e+10 -4.498676e+08
2.802746e+10 -9.056765e+09 -1.607876e+09
-9.686731e+09 3.029329e+10 -2.611705e+08
-2.555241e+10 4.939527e+09 7.772189e+08
-1.351498e+10 1.533074e+10 -1.710007e+08
7.445829e+09 2.152741e+10 2.240331e+09
7.147186e+09 -3.006564e+10 8.274928e+08
2.298409e+10 1.847531e+10 -2.335275e+08
1.538587e+10 -1.788332e+10 6.539334e+08
2.259039e+10 1.673376e+10 2.779225e+09
-7.600767e+09 1.868506e+10 -2.764424e+08
2.131157e+10 -9.612748e+07 7.962092e+08
2.601845e+10 1.642573e+09 -5.470331e+08
-3.202241e+10 6.350536e+09 2.766888e+09
-8.125117e+09 1.875331e+10 8.908827e+08
3.234596e+10 -1.894363e+10 7.199762e+08
3.474820e+09 1.868776e+10 -5.179233e+08
9.113477e+09 4.086237e+10 -8.887606e+08
-1.953464e+10 -6.523163e+09 5.102087e+08
1.939155e+10 3.373338e+10 -1.972381e+08
-2.363651e+10 5.660400e+09 3.625934e+08
-1.863493e+10 1.805900e+10 1.096901e+09
-1.837364e+10 -1.504430e+10 -9.602999e+08
-1.409998e+10 1.921801e+10 -1.528346e+07
-8.663836e+09 -2.168906e+10 2.018744e+09
1.862429e+10 -2.277638e+10 -6.779035e+08
3.074835e+10 -8.824493e+07 1.115977e+09
4.473892e+09 2.037370e+10 7.201645e+08
1.838397e+10 2.114985e+10 -5.020150e+08
1.976547e+10 1.523862e+10 -2.261913e+08
1.984272e+10 -2.005043e+10 1.353865e+09
-1.359631e+10 2.753573e+10 1.599325e+09
1.144563e+10 1.623455e+10 -9.550895e+07
-2.383389e+10 -2.926505e+09 8.011671e+08
-2.584234e+10 1.825656e+10 3.845697e+08
2.646205e+09 -2.180926e+10 1.424367e+09
1.928091e+10 1.575897e+10 -1.544855e+09
-1.099120e+10 2.746971e+10 4.445388e+08
2.336142e+09 1.916016e+10 3.318192e+07
2.045932e+10 2.073544e+10 2.670930e+08
1.566377e+10 -1.411433e+10 6.012453e+08
2.853941e+09 2.720219e+10 -2.684956e+07
-2.239475e+10 -2.168086e+10 -1.338380e+09
-2.653593e+10 2.295228e+10 3.477983e+08
4.087889e+09 -2.596616e+10 -2.461957e+08
-1.571812e+10 -1.714148e+10 -4.696888e+08
-2.662414e+10 1.458508e+10 -7.096052e+08
-1.742499e+10 -1.484087e+10 -9.487265e+08
1.231109e+10 1.974776e+10 -5.314252e+08
3.954725e+09 1.911160e+10 -7.836149e+08
2.833050e+09 -2.023569e+10 -2.008798e+07
1.840587e+10 -1.802833e+10 1.123867e+09
3.108813e+10 1.329727e+10 -5.014916e+08
3.675970e+09 -2.491720e+10 3.919802e+08
2.454664e+10 -2.803975e+09 1.666377e+08
-1.876307e+10 1.254107e+09 9.749074e+08
-1.892168e+10 -8.408617e+09 -1.784171e+08
7.929266e+09 1.926241e+10 3.337459e+08
2.359268e+10 9.624514e+09 1.234016e+09
9.559467e+09 -2.749164e+10 -4.790036e+08
1.560202e+09 2.007226e+10 -1.238482e+09
-2.059360e+10 -1.548699e+10 -1.385561e+08
1.427636e+10 -2.315981e+10 7.759664e+08
-1.357417e+10 1.541701e+10 -1.681716e+08
-2.576051e+10 2.539143e+10 3.403241e+08
1.567550e+10 -2.806091e+10 2.013285e+08
6.218070e+09 -2.967400e+10 1.657605e+08
2.249582e+10 -1.097925e+10 -5.772726e+08
2.633967e+10 1.516146e+10 2.036354e+09
2.768301e+10 1.224531e+10 -2.386304e+09
3.235129e+10 -4.475460e+09 -2.583673e+08
1.758456e+09 1.957800e+10 1.515121e+09
2.569313e+10 9.512859e+09 1.605842e+09
-2.958331e+10 1.310837e+09 1.480744e+08
2.911669e+10 6.049851e+09 -3.087027e+09
-2.765571e+10 -4.655735e+09 -3.106267e+09
2.148072e+10 7.321863e+09 -1.875298e+08
-1.991577e+10 3.973590e+09 -6.705208e+08
-5.916091e+09 3.311001e+10 -4.703230e+08
1.450905e+10 1.489503e+10 -7.504207e+07
1.336987e+10 -2.046253e+10 5.752410e+08
-2.562641e+10 8.501668e+09 -5.874105e+08
1.979601e+09 2.083135e+10 -2.245868e+09
1.475101e+10 -2.124379e+10 -2.152044e+08
1.685745e+10 -1.338206e+10 1.589210e+09
2.065553e+09 2.843650e+10 -1.426476e+09
-3.059488e+10 3.341129e+09 -1.606190e+09
-4.384329e+07 -2.494203e+10 -3.368533e+08
-2.235279e+10 1.122117e+10 -4.743638e+08
-1.521365e+10 1.200084e+10 1.192487e+08
2.067638e+10 6.483831e+09 -6.555354e+08
3.062563e+10 -9.436273e+09 5.430752e+08
-1.871828e+10 -8.827373e+09 1.834963e+08
-1.640870e+09 2.069119e+10 2.267705e+09
2.074859e+10 5.460808e+09 1.129299e+09
1.067135e+10 -1.719478e+10 9.135373e+08
1.764160e+10 -4.787264e+09 -1.037701e+08
-5.342803e+09 1.925210e+10 -1.646389e+08
-1.128063e+10 2.104793e+10 -1.578134e+08
6.044458e+07 1.923691e+10 -6.800804e+08
-1.668290e+10 2.623985e+10 -8.368409e+07
-1.929028e+10 -6.448708e+09 -6.005208e+08
-1.929872e+10 -6.833302e+09 5.938536e+08
-4.914343e+09 2.311928e+10 2.449983e+06
8.926083e+08 2.662080e+10 1.782730e+07
-3.769368e+09 2.479725e+10 -1.871895e+09
2.216882e+09 2.462384e+10 -1.061236e+07
-1.618069e+09 2.041955e+10 -1.939361e+09
-2.627077e+09 2.108332e+10 -6.896901e+08
-6.240965e+09 1.945474e+10 1.764140e+08
-2.007393e+10 -9.845008e+09 4.715680e+08
-2.355547e+10 1.904123e+10 1.377718e+09
2.600825e+10 1.767971e+10 -1.360111e+09
-2.591081e+10 5.826869e+09 -4.524514e+08
2.613832e+10 1.485663e+10 4.008546e+08
-1.864450e+09 3.120334e+10 -2.072087e+09
-2.249746e+10 2.200732e+10 3.525139e+09
9.275666e+09 2.416528e+10 1.549137e+09
1.893247e+10 -1.011221e+10 6.302811e+08
-1.631870e+10 -1.270338e+10 4.376378e+08
-2.250394e+10 -1.419560e+10 -9.739445e+08
-2.969257e+10 9.322279e+09 -8.127955e+08
-2.017009e+10 -8.759124e+08 2.767436e+08
-3.443372e+09 -2.837006e+10 -1.145991e+09
7.790643e+09 2.246713e+10 -1.192519e+08
1.941475e+10 1.277376e+10 -1.580458e+08
-4.579058e+09 2.225840e+10 -6.322818e+08
-2.676259e+09 -3.023389e+10 -1.667715e+09
1.378716e+09 -2.809678e+10 5.387445e+08
-5.100541e+08 -2.436635e+10 3.721156e+09
2.389049e+10 1.506830e+10 1.215011e+08
-1.305652e+10 -3.437279e+10 -5.588824e+08
-9.416629e+09 -1.871286e+10 3.201710e+07
-2.105575e+10 -1.408189e+10 -3.692865e+08
1.438380e+10 1.443591e+10 1.333244e+09
8.319624e+09 -2.766607e+10 -3.144304e+08
2.005226e+10 -6.172575e+09 5.553029e+08
-3.595373e+09 1.974585e+10 -9.773661e+08
-1.690281e+09 -2.126859e+10 2.107883e+08
-2.961271e+10 -4.623833e+09 -2.465723e+08
-1.854916e+10 -1.590183e+10 3.007188e+09
-1.129343e+10 1.623880e+10 -8.309283e+08
1.594239e+09 2.763917e+10 -1.088486e+09
-1.799603e+10 1.872064e+10 -6.127294e+08
3.040839e+10 -6.166267e+09 -1.498465e+09
-1.974605e+10 7.512037e+09 -2.038420e+08
2.204163e+10 1.195853e+10 2.849473e+08
2.512167e+10 -1.404880e+10 9.114094e+08
-4.395363e+09 1.893266e+10 4.524188e+08
-1.379918e+10 2.047056e+10 -3.104296e+08
-1.426404e+10 2.398160e+10 -9.035801e+07
3.789100e+08 -3.843356e+10 -2.231540e+09
1.022695e+10 2.895479e+10 -1.105046e+08
-2.783817e+10 9.873344e+09 1.064336e+09
3.502193e+10 -2.227501e+10 -2.706438e+08
2.457180e+10 -1.027657e+10 1.116942e+08
-2.665335e+10 -1.068038e+10 1.126563e+09
-1.896689e+10 9.144742e+09 -5.921181e+08
2.112375e+10 2.642210e+10 3.337881e+08
-4.061605e+09 1.984036e+10 -6.410069e+08
1.362818e+10 1.518696e+10 -1.121372e+09
1.077907e+10 2.910370e+10 -9.039863e+08
1.368448e+10 -1.592986e+10 -1.135683e+08
-1.170842e+10 2.333294e+10 -3.374657e+08
2.314715e+10 1.538745e+10 1.199901e+09
1.966905e+10 -1.733050e+10 2.567101e+08
-1.654887e+10 2.392997e+10 9.134257e+08
-2.140901e+10 -2.248536e+10 2.128114e+08
-2.854457e+10 1.551525e+10 -7.416103e+08
-1.642140e+10 -1.729326e+10 -1.527946e+08
-4.666761e+09 1.929048e+10 1.292838e+08
-9.337496e+09 2.714100e+10 -1.166661e+09
9.699738e+09 -2.884154e+10 -1.804036e+08
-2.257669e+10 -3.249726e+09 -4.423371e+08
9.322761e+09 2.699415e+10 1.723570e+09
2.697728e+10 -2.823806e+09 -1.328730e+08
4.129412e+10 4.226803e+09 3.093063e+09
1.389440e+10 2.331412e+10 8.355593e+08
4.306271e+09 -2.243682e+10 -7.585757e+08
-2.130916e+10 -1.328694e+10 2.773201e+08
-1.215485e+10 1.835848e+10 -6.581288e+08
-4.852447e+09 1.902250e+10 -6.017262e+08
2.248789e+10 -3.270382e+08 2.086274e+09
-1.295614e+10 2.663094e+10 9.179006e+08
2.908100e+10 -5.755600e+09 2.092441e+09
5.284524e+09 -1.930441e+10 -3.075193e+06
2.790711e+10 -1.028324e+10 -2.225790e+08
-2.331900e+09 -2.391568e+10 -1.479018e+08
-2.337230e+10 7.350644e+09 1.614443e+09
-2.757311e+10 9.383528e+09 4.474784e+08
-1.714511e+10 1.155458e+10 -7.993833e+08
-2.739066e+10 -1.189327e+10 8.313542e+07
-6.260682e+09 1.957667e+10 -9.946318e+08
2.633406e+10 1.654035e+09 2.700236e+09
2.249732e+10 -1.152221e+10 -1.424924e+08
-2.496452e+10 1.967185e+10 2.748698e+08
9.857518e+09 3.148638e+10 -1.237704e+09
-1.751507e+10 2.286803e+10 -5.607559e+08
-2.349825e+10 3.245913e+09 1.012352e+09
-1.297976e+10 -1.542020e+10 1.225806e+08
2.304317e+10 1.894190e+10 3.407883e+08
-2.011014e+10 1.334088e+10 2.391112e+09
8.260754e+09 -2.555049e+10 4.434314e+08
-6.963982e+09 1.802256e+10 -2.658287e+08
-1.769764e+10 -9.238338e+09 4.018322e+08
3.046360e+10 1.327688e+10 -1.567070e+09
3.098172e+10 -2.614365e+09 2.002896e+09
-1.917888e+10 -3.996338e+09 -1.328424e+09
2.924353e+10 -1.084802e+10 -1.467645e+09
-4.003754e+09 3.744315e+10 1.761836e+08
9.024399e+09 -2.402530e+10 -1.109868e+09
2.197699e+10 6.073489e+09 -2.056163e+07
1.873281e+10 -1.505311e+10 4.937156e+08
1.805783e+10 2.497265e+10 -9.049909e+08
-7.432297e+09 1.775627e+10 -1.394004e+09
9.830913e+09 -1.772388e+10 -4.244379e+08
-9.857694e+09 1.854544e+10 -3.446439e+08
-1.226542e+10 1.695017e+10 5.379695e+08
8.874794e+09 -2.005974e+10 -3.913542e+08
1.139280e+10 -1.641072e+10 3.355810e+08
1.263982e+10 -2.118766e+10 1.876406e+09
-2.617475e+10 -2.577345e+08 2.887606e+09
5.785397e+09 -1.885336e+10 -3.288702e+08
-1.682216e+10 -1.090227e+10 6.298024e+08
1.160862e+10 -1.727182e+10 1.216575e+08
-7.892538e+09 1.773645e+10 -5.670401e+08
2.696383e+10 7.805452e+09 5.329721e+08
2.459615e+10 7.304230e+09 7.950752e+08
3.738197e+09 -2.224732e+10 -1.793545e+09
8.711888e+09 1.874892e+10 6.507630e+08
4.019502e+09 -2.512051e+10 -1.179285e+09
7.690577e+09 -2.500971e+10 -3.296367e+07
9.990693e+09 -1.777981e+10 3.393695e+08
2.813355e+10 6.469643e+09 -5.095466e+08
-3.131001e+10 2.562166e+09 2.005900e+08
2.773637e+10 -5.142304e+09 -1.119851e+09
-8.219887e+09 1.779188e+10 1.694945e+08
-1.964602e+10 -4.148510e+09 -6.117515e+08
-5.294521e+09 -1.864416e+10 -3.778532e+08
1.181640e+10 -2.909497e+10 -1.704459e+09
-1.796344e+10 -2.051948e+10 1.253134e+08
2.163321e+10 3.775205e+09 -1.308007e+09
2.953587e+10 -3.780300e+09 -4.173227e+08
-1.178430e+09 -3.409237e+10 7.275090e+08
1.596719e+10 1.500626e+10 -7.261775e+08
-6.440116e+09 3.032037e+10 -1.008639e+09
2.243509e+10 -2.019168e+10 -4.796265e+06
-9.570557e+09 1.808949e+10 2.445744e+07
-8.219264e+09 -2.558798e+10 3.777307e+09
-3.307499e+09 -1.984546e+10 -4.960919e+08
-1.637335e+10 -2.139682e+10 -1.069049e+08
2.087409e+09 -2.595595e+10 1.520093e+09
-2.000176e+10 -8.291249e+09 -1.210222e+09
-7.076183e+09 -3.257442e+10 -2.182024e+08
-3.084343e+10 -6.773615e+09 2.380348e+07
-2.422085e+10 -1.576221e+10 6.261234e+08
4.559274e+09 3.005721e+10 -6.477616e+08
-2.040786e+10 -1.779040e+09 2.893422e+08
-1.061742e+10 1.740778e+10 -7.660378e+08
-2.864627e+10 -1.701941e+09 1.484122e+08
2.381433e+10 3.654124e+09 5.560652e+06
1.793438e+10 -1.441445e+10 4.631102e+08
-1.705615e+10 1.156773e+10 -2.338539e+09
-1.175830e+10 -2.429221e+10 -1.080312e+08
1.533077e+10 -1.255232e+10 6.705294e+08
3.191762e+10 1.565630e+10 -1.742155e+09
1.178939e+10 2.391022e+10 1.835628e+09
-1.949100e+10 8.586362e+09 1.092932e+09
1.620740e+10 -1.887688e+10 7.411853e+07
-1.177508e+10 1.631493e+10 7.174691e+08
-6.723596e+08 2.348755e+10 3.106878e+09
1.735677e+10 -1.505622e+10 -6.169513e+08
2.131220e+10 -1.144720e+10 -1.292591e+09
1.767789e+10 1.602990e+10 -5.886941e+08
1.205939e+10 2.042323e+10 -7.386052e+08
-4.111443e+09 1.969856e+10 1.905540e+09
1.352225e+10 2.670137e+10 1.063763e+09
8.050931e+09 -1.865658e+10 1.283335e+08
2.317921e+10 9.963118e+09 -2.020829e+08
1.755048e+10 -2.427042e+10 -2.215162e+08
-1.036712e+10 1.622778e+10 5.110243e+08
1.181687e+10 2.201773e+10 -1.146627e+09
-1.986407e+10 1.809613e+10 -5.375470e+08
4.094371e+09 -3.302418e+10 -8.989642e+08
-7.933659e+09 2.420905e+10 -5.756292e+08
3.717368e+09 2.470152e+10 2.489431e+08
-9.910163e+09 2.266295e+10 1.182809e+09
1.444491e+10 -1.756714e+10 -1.612481e+09
2.034535e+10 -2.218070e+09 2.092672e+08
-1.516999e+10 1.333110e+10 -2.678237e+08
-9.044395e+09 2.167029e+10 -2.231404e+08
-1.218514e+10 1.650589e+10 8.892925e+08
-1.549778e+10 -2.725464e+10 4.727557e+08
-5.558187e+09 -2.553609e+10 3.895633e+07
-1.891079e+10 9.198704e+09 3.674695e+07
-1.732808e+09 -2.485660e+10 -2.561562e+08
-3.341610e+09 2.821192e+10 -1.786980e+08
-2.782715e+09 2.476433e+10 -3.311000e+08
-7.371303e+09 2.328992e+10 -4.386452e+08
1.489733e+10 1.384384e+10 -9.331248e+07
-1.232634e+10 -2.851008e+10 3.386520e+08
-2.239674e+10 1.589585e+09 -4.358215e+08
-1.222728e+10 1.578634e+10 5.996319e+08
-1.067634e+10 -1.675362e+10 -3.727333e+08
4.931458e+09 2.769299e+10 1.374863e+09
1.798115e+10 -1.434408e+10 3.362719e+08
1.811456e+10 9.286149e+09 -3.480148e+08
-2.265477e+10 -1.025307e+10 2.479500e+07
1.556548e+10 -2.189606e+10 4.367316e+08
-2.269105e+10 -1.075445e+10 -2.756158e+08
-2.130157e+10 -9.094716e+09 1.022407e+09
-6.452916e+09 2.302907e+10 1.057851e+09
1.275156e+09 2.833533e+10 1.827897e+09
-1.238314e+10 1.461064e+10 2.768738e+08
-5.388013e+09 2.606689e+10 2.926026e+08
6.592396e+09 -2.486749e+10 2.143914e+09
-2.313745e+10 7.963648e+09 2.782558e+08
2.535199e+10 -1.205405e+10 -5.311640e+08
1.687522e+10 1.670348e+10 -4.106697e+08
1.209574e+09 2.585572e+10 -2.242841e+08
-2.175943e+10 -7.149833e+09 2.050355e+08
2.421450e+10 -6.652557e+09 1.878160e+09
3.598099e+09 2.004000e+10 6.947591e+06
-2.668914e+10 2.200542e+10 1.377154e+08
-1.450636e+10 1.600364e+10 -8.839416e+08
1.609557e+10 1.038655e+10 7.144411e+08
2.623810e+10 -9.365449e+09 -1.925433e+09
2.190745e+10 2.220784e+10 2.642671e+08
-1.302549e+10 -2.582442e+10 -5.659032e+08
-2.014063e+10 -1.357053e+10 1.440256e+09
-4.330302e+09 2.357214e+10 3.405760e+08
-1.654395e+10 1.733958e+10 8.310194e+06
1.476605e+10 -2.036779e+10 -8.391359e+08
-2.379057e+10 9.145163e+09 -1.848538e+08
4.665814e+09 2.768634e+10 4.459744e+09
-1.366460e+10 1.444916e+10 -6.401821e+08
1.539260e+10 -2.272765e+10 6.455138e+07
8.813002e+08 -2.845280e+10 1.915556e+08
-2.254010e+10 3.212769e+09 4.541489e+09
-2.026394e+10 2.768637e+09 -2.148055e+08
1.920388e+10 -1.114982e+10 6.040952e+08
1.352415e+10 2.194495e+10 -3.315141e+08
-2.089627e+10 1.255868e+10 -2.367464e+08
-2.042888e+10 2.108241e+10 -5.104180e+08
2.605142e+10 5.728013e+09 -1.257844e+08
-7.438381e+09 -1.578562e+10 -2.421517e+08
-1.374380e+10 1.617045e+10 1.821248e+09
2.075969e+10 9.932674e+09 -7.786954e+08
-9.810205e+09 -2.177465e+10 1.635854e+08
1.307971e+10 -1.530645e+10 1.056842e+08
5.132304e+09 -3.025698e+10 -3.234747e+08
-1.720818e+10 1.152746e+10 -3.125973e+07
-1.330293e+10 1.924377e+10 7.531277e+08
2.352647e+10 -9.429341e+09 -1.109418e+09
2.135940e+10 -5.058068e+09 7.480145e+08
-2.385084e+10 5.206897e+09 8.942121e+08
1.968718e+10 4.792207e+09 -2.384924e+09
-1.705042e+10 1.388534e+10 -2.509466e+09
-1.905178e+10 5.232798e+09 1.658397e+08
-2.279055e+10 5.708999e+09 1.204715e+08
1.563069e+10 1.360195e+10 -1.095015e+08
2.922086e+10 -9.019465e+09 9.151210e+08
3.662215e+09 2.017126e+10 6.743043e+08
2.217099e+10 -1.754279e+10 2.328867e+09
-2.175714e+10 -1.279846e+10 -5.048297e+08
-1.844815e+10 -2.373832e+10 -1.331166e+08
-2.030427e+10 1.914166e+10 -8.212742e+07
1.736023e+10 1.104764e+10 -1.718864e+09
-1.609977e+10 1.366376e+10 2.618862e+09
-3.303303e+09 2.282209e+10 7.619158e+08
-1.313188e+10 -1.512164e+10 1.425088e+08
-1.618362e+10 -1.302397e+10 5.120410e+08
6.665645e+09 -2.279463e+10 7.527768e+08
-1.397817e+10 -1.131728e+10 -8.323445e+08
1.591144e+10 1.651787e+10 -2.622719e+08
1.660413e+10 1.316619e+10 1.531080e+09
-1.668675e+10 2.326684e+10 2.038995e+08
-4.543109e+09 -3.210054e+10 -3.479323e+08
-1.939448e+10 2.215337e+10 -1.819461e+08
-1.719614e+10 1.196068e+10 -2.029600e+09
-2.865164e+10 -5.461484e+09 -1.597169e+09
5.811757e+09 2.607705e+10 2.142768e+09
2.613415e+10 2.049678e+10 2.661371e+09
-9.602616e+09 2.960706e+10 -3.848312e+08
1.540847e+08 -2.904539e+10 1.296536e+09
-5.152709e+09 -2.294071e+10 -2.864239e+09
9.866188e+09 1.830989e+10 2.085852e+09
1.924337e+10 3.514181e+09 -3.859061e+08
2.154992e+10 -1.311201e+10 -2.065824e+09
-3.291844e+10 9.296648e+07 9.844564e+08
-1.635624e+10 1.060742e+10 1.342664e+09
2.458245e+10 -1.781470e+10 -1.037280e+09
-1.114135e+10 1.723892e+10 1.820382e+08
-1.078333e+10 1.954658e+10 7.551264e+08
-1.778712e+10 -9.705813e+09 -1.141530e+09
-2.179307e+09 -3.205050e+10 -1.138275e+09
1.461002e+10 1.975932e+10 -4.359791e+08
-7.150875e+09 -2.836160e+10 -3.564605e+08
1.119308e+10 2.931169e+10 3.897502e+08
1.820179e+10 3.083174e+10 -9.735533e+08
2.454837e+10 7.779405e+09 2.995468e+08
-1.579568e+10 1.190863e+10 -5.167726e+08
2.930425e+10 -1.193719e+10 -1.034529e+09
-2.715721e+10 9.424566e+09 4.816407e+07
1.826982e+10 -1.156072e+10 1.350198e+09
-2.047304e+10 9.468340e+09 1.763908e+08
-2.085058e+10 1.033717e+10 4.514425e+08
-8.823577e+09 -3.135782e+10 -2.679239e+09
-1.375412e+10 -1.973087e+10 -8.973620e+08
1.023366e+10 -2.597227e+10 7.407431e+08
-1.356580e+10 -1.617169e+10 6.878475e+08
2.145134e+10 -6.442181e+09 -6.070928e+07
-1.826849e+10 1.111873e+10 -4.724657e+08
-1.108180e+10 -2.102800e+10 -1.079631e+09
1.907036e+10 1.089578e+10 -3.033796e+08
1.229040e+10 1.704895e+10 -2.781088e+08
-2.318914e+10 -4.503192e+09 -6.869350e+08
2.159831e+10 9.242975e+09 1.372580e+09
2.422699e+10 -1.953487e+10 1.441855e+08
-1.468230e+10 -1.487964e+10 -1.069518e+09
-8.609784e+09 3.009562e+10 -9.910516e+08
-3.171555e+10 -6.066529e+09 -1.610169e+09
-2.151732e+10 -5.509705e+09 1.089686e+09
-1.671862e+10 1.000878e+10 -1.737514e+08
-1.361617e+10 -2.651017e+10 -2.699423e+08
2.682364e+10 6.743237e+09 5.215590e+08
1.974754e+10 2.592627e+09 -1.946037e+09
2.420169e+10 -5.650450e+09 1.315583e+09
2.708099e+10 3.265621e+09 3.834086e+08
4.303260e+09 -3.072573e+10 1.442424e+08
1.145070e+10 -1.883788e+10 6.881472e+08
-4.339456e+09 -2.445402e+10 1.278304e+09
1.926631e+10 4.780874e+09 1.165805e+09
-1.749181e+10 -1.761623e+10 3.464448e+08
-1.675726e+10 1.004732e+10 -2.756649e+08
3.464375e+10 -7.256418e+09 1.033697e+09
-2.697137e+10 2.318224e+10 -1.380809e+08
-1.794088e+10 -2.798918e+10 -4.225135e+08
6.324499e+08 -2.089160e+10 -4.314808e+08
-1.111181e+10 2.096093e+10 -1.021594e+09
8.795427e+09 -2.145721e+10 -1.832890e+09
2.302460e+10 -1.260466e+09 4.986354e+08
3.246016e+10 2.548635e+09 4.790990e+09
-1.682315e+10 1.562072e+10 2.903067e+08
1.515218e+10 -1.388268e+10 -1.680450e+09
-1.902011e+10 9.416852e+09 -1.956705e+09
1.246431e+10 -2.182004e+10 -8.465938e+08
2.936862e+09 -1.994851e+10 1.160566e+09
-2.233305e+10 -2.269544e+10 1.378203e+08
2.496687e+10 -8.501287e+09 -3.051969e+09
1.931597e+10 8.591299e+08 -1.472836e+09
2.540169e+10 -5.254612e+09 2.064957e+09
1.647679e+10 -2.495999e+10 6.571759e+08