# vtk DataFile Version 2.0
Electric current density generated by TTH
ASCII
DATASET UNSTRUCTURED_GRID
POINTS 10397 double
3.242315e-05 2.396345e-05 -1.282494e-22
3.922086e-05 -2.259072e-06 1.265254e-07
2.979702e-05 2.635960e-05 -5.046178e-08
-3.878151e-05 -8.696389e-06 -6.980814e-08
-3.875263e-05 8.760789e-06 1.450462e-08
-2.946227e-05 -2.674134e-05 1.145058e-08
-1.595608e-06 -3.974482e-05 -1.034738e-08
-2.172713e-05 -3.334008e-05 1.279753e-08
-3.753818e-05 -1.322769e-05 2.871173e-09
3.731847e-05 1.382446e-05 3.520090e-09
3.724699e-05 -1.404860e-05 -3.768755e-08
-4.015159e-07 -3.977824e-05 7.665186e-09
3.922086e-05 2.259072e-06 1.265254e-07
-3.463077e-05 -1.950232e-05 1.148196e-09
-3.589776e-06 3.968451e-05 1.974054e-08
-2.847166e-05 -2.784236e-05 -2.584359e-08
-2.086513e-05 -3.391858e-05 -1.022079e-08
2.275844e-05 -3.266860e-05 5.780025e-09
-2.957460e-05 2.669107e-05 3.296670e-08
6.919357e-08 3.980386e-05 2.100930e-08
-3.522154e-05 -1.853997e-05 -3.335800e-08
1.209843e-05 3.791403e-05 4.063923e-09
-1.848346e-05 3.523145e-05 -4.104826e-08
3.730814e-05 1.226377e-05 -4.270818e-08
-3.946377e-05 -5.471450e-06 6.238777e-09
7.236477e-06 -3.917859e-05 6.242927e-09
7.236485e-06 3.917861e-05 6.239933e-09
-3.346773e-05 -2.150853e-05 -7.213568e-09
-1.445827e-05 -3.704318e-05 4.033267e-08
-3.952625e-05 -4.266192e-06 4.167102e-08
6.038822e-06 -3.929523e-05 4.240358e-08
6.039199e-06 3.929581e-05 4.220619e-08
8.431843e-06 -3.889826e-05 -2.238083e-08
8.436710e-06 3.889961e-05 -2.331512e-08
2.891191e-05 2.662252e-05 -1.796270e-07
-3.923697e-05 6.679090e-06 2.474970e-08
-3.923787e-05 -6.677964e-06 -2.246111e-08
3.978818e-05 -3.281123e-09 3.742555e-09
3.653929e-05 -1.582961e-05 6.557605e-10
1.351194e-05 -3.743352e-05 3.750204e-08
2.205687e-05 -3.321375e-05 -4.782753e-08
2.206717e-05 3.319483e-05 -3.905547e-08
-1.648924e-06 3.974001e-05 -3.301262e-08
-2.640921e-05 -2.977464e-05 -1.537565e-08
-3.845551e-05 1.022228e-05 -8.216969e-10
2.888960e-05 -2.665329e-05 -1.913750e-07
-3.974148e-05 -4.922387e-07 -2.244620e-08
-3.707168e-05 1.439340e-05 -2.685559e-10
3.327339e-05 2.191033e-05 -2.984756e-08
-3.279758e-05 -2.245837e-05 -2.488635e-08
-3.950534e-05 4.821212e-06 4.942567e-08
-3.699957e-05 -1.459767e-05 -4.076454e-08
-3.059644e-05 -2.542517e-05 5.025572e-09
3.837904e-05 -1.038072e-05 -3.127876e-09
-2.534075e-06 3.971838e-05 2.458523e-09
2.944814e-05 -2.676012e-05 -4.116601e-08
2.815901e-05 -2.757683e-05 -3.595825e-07
3.695343e-05 1.474024e-05 -1.075894e-08
-3.160249e-05 2.416276e-05 -1.632251e-08
-1.190491e-05 3.790051e-05 1.760206e-08
1.203975e-05 -3.792175e-05 2.867420e-08
-2.210190e-05 3.301273e-05 1.944813e-08
3.170946e-05 -2.407690e-05 3.806488e-09
3.977453e-05 -1.667239e-06 2.690972e-08
3.977664e-05 1.614347e-06 9.178732e-09
1.675066e-05 -3.610046e-05 1.028615e-08
-3.815281e-05 1.133439e-05 2.565195e-08
-3.640161e-05 -1.493781e-05 -2.733528e-07
3.513035e-05 -1.866355e-05 2.497843e-08
-2.885871e-05 2.740470e-05 -1.652409e-08
-3.595432e-05 1.700617e-05 5.781218e-09
1.928005e-05 3.482121e-05 7.035274e-09
-3.831024e-05 1.077603e-05 -3.574089e-08
1.689027e-05 3.603284e-05 9.026792e-10
1.461233e-05 3.702141e-05 1.666015e-08
-3.963622e-05 -3.546241e-06 3.025979e-08
3.174500e-05 2.397914e-05 1.092826e-09
-2.514843e-05 3.083560e-05 6.668295e-09
-3.640314e-05 1.491686e-05 2.623804e-07
3.782495e-05 -1.243515e-05 2.863583e-09
-3.248022e-05 -2.291514e-05 -3.686011e-08
-2.442169e-06 -3.975389e-05 -1.137440e-08
3.048903e-06 3.967871e-05 -4.460182e-08
1.824994e-05 -3.537011e-05 3.454048e-08
2.250277e-05 3.283412e-05 3.575535e-08
3.954377e-05 4.753774e-06 -1.407652e-08
1.857596e-06 -3.973007e-05 -6.280471e-09
1.889488e-06 3.971481e-05 -1.255069e-10
3.826716e-05 1.088776e-05 1.251920e-08
3.402179e-05 -1.979605e-05 2.959088e-07
-3.504584e-05 1.878951e-05 -1.119718e-08
-3.316506e-05 -2.197112e-05 7.678211e-09
3.869653e-05 -9.339039e-06 -2.735664e-08
3.409781e-05 -2.052226e-05 -1.916938e-08
-1.131053e-06 3.983490e-05 -1.921282e-08
-8.971343e-06 3.878100e-05 3.669368e-08
6.817556e-07 3.979066e-05 3.655485e-08
-7.986618e-06 -3.899511e-05 -4.069247e-08
-3.626035e-05 -1.635596e-05 -2.249754e-08
1.146648e-06 -3.975595e-05 2.208406e-08
-3.921246e-05 -3.688671e-06 -3.276950e-07
3.245266e-05 -2.299316e-05 2.578451e-08
3.869832e-05 9.388252e-06 3.564273e-09
3.954467e-05 -4.749478e-06 -2.566696e-09
3.464413e-05 -1.963748e-05 -1.658084e-08
-3.073108e-05 2.528393e-05 1.592472e-08
-3.977849e-05 6.174205e-07 6.534543e-09
-3.600384e-05 -1.690039e-05 -5.140920e-08
-3.217379e-05 2.345409e-05 -2.472198e-08
-3.420689e-05 -2.028967e-05 3.362139e-08
3.356917e-05 2.131348e-05 -2.206647e-08
3.222654e-05 2.422722e-05 -1.282494e-22
5.444197e-06 -3.900749e-05 -3.277065e-07
1.039905e-05 -3.844156e-05 -2.794037e-09
-3.972034e-05 2.678548e-06 -3.073589e-10
1.779621e-05 3.561353e-05 -1.329550e-08
-2.355356e-05 -3.201578e-05 4.438079e-08
-2.843264e-05 2.782171e-05 1.608218e-08
9.387154e-06 -3.869488e-05 1.928473e-08
-3.963169e-06 -3.957957e-05 -9.009252e-09
-1.139152e-05 -3.811608e-05 6.702810e-09
-1.661373e-05 3.612515e-05 -1.352782e-08
2.376965e-05 3.193222e-05 1.368836e-08
5.444197e-06 3.900749e-05 -3.277065e-07
-3.962585e-05 3.803508e-06 2.373447e-08
1.931789e-05 -3.480813e-05 2.500974e-08
1.728887e-05 -3.584481e-05 2.908933e-08
3.825708e-05 -1.105704e-05 -1.245368e-09
2.472445e-05 -3.120059e-05 7.206111e-09
2.137526e-05 3.357862e-05 -2.139968e-08
2.133110e-05 -3.358333e-05 9.874223e-09
3.899112e-05 -7.729080e-06 -7.752800e-09
2.319585e-05 -3.234746e-05 2.172492e-08
3.901182e-05 7.700351e-06 1.012178e-08
3.818470e-05 -1.003700e-05 4.203876e-07
-2.661839e-05 2.957533e-05 8.685690e-08
3.961329e-05 4.171738e-06 2.207744e-08
1.561116e-05 3.666454e-05 -2.203142e-08
-3.571384e-05 1.755112e-05 1.884605e-08
-7.366450e-06 -3.911084e-05 -8.214865e-09
2.473598e-05 3.113594e-05 9.691541e-09
3.280517e-05 -2.253721e-05 -2.917127e-09
-3.475444e-05 1.939474e-05 -1.483987e-08
-2.702623e-05 2.912978e-05 8.072845e-08
-1.771227e-05 3.558068e-05 -1.930479e-08
3.815856e-05 1.004858e-05 4.028454e-07
2.736135e-05 2.892822e-05 2.509546e-08
1.879622e-05 -3.510158e-05 -4.093853e-08
2.019215e-05 -3.433049e-05 -4.477319e-08
-3.119901e-05 -2.471951e-05 5.583709e-08
-3.821578e-05 -1.113881e-05 -4.574810e-08
3.128674e-05 -2.463240e-05 8.680831e-09
-1.719078e-05 3.586599e-05 8.704117e-08
3.048852e-06 -3.967874e-05 -4.461866e-08
-2.875078e-05 -2.743325e-05 4.312468e-08
1.360329e-05 3.742886e-05 -8.332723e-09
3.267185e-05 -2.217048e-05 4.219508e-07
-2.727044e-05 -2.902621e-05 -1.223001e-08
3.602798e-05 -1.687533e-05 -3.381262e-09
-2.292109e-05 -3.252567e-05 2.915116e-08
-4.801444e-06 3.950031e-05 -5.799253e-09
-2.161587e-05 3.343284e-05 8.300257e-09
-1.132795e-05 3.813302e-05 1.602884e-08
-3.968678e-05 -2.822485e-06 3.199185e-08
-9.069998e-06 -3.875367e-05 -2.676076e-08
-3.758084e-05 1.289929e-05 -3.510765e-08
-1.195744e-05 -3.796602e-05 2.507184e-08
-3.702053e-05 1.372198e-05 4.203842e-07
-1.286761e-05 -3.764093e-05 3.704733e-08
2.018335e-05 3.434422e-05 -5.803883e-08
2.767085e-05 -2.855805e-05 -3.086002e-08
-9.630284e-06 -3.856509e-05 -1.546643e-08
-3.284445e-05 2.246074e-05 5.422288e-08
3.398305e-05 2.078885e-05 -2.873862e-08
3.849819e-05 9.987432e-06 -1.147629e-08
3.614800e-05 1.668321e-05 -8.640692e-10
1.652721e-07 -3.977146e-05 4.438922e-09
3.944211e-05 5.362684e-06 2.545945e-08
3.684458e-05 1.440889e-05 4.693540e-07
3.251518e-05 2.294954e-05 2.738689e-09
2.978993e-05 -2.635095e-05 -2.795697e-08
3.960796e-05 -4.165721e-06 1.638692e-08
-2.990576e-05 -2.622631e-05 5.781328e-08
2.826194e-05 2.798848e-05 5.385252e-08
-1.021012e-05 -3.845587e-05 -2.033493e-08
1.540644e-05 -3.664486e-05 -1.743809e-08
-3.194963e-05 -2.374909e-05 -4.490347e-08
9.492322e-06 3.860715e-05 1.409740e-08
-1.500321e-05 -3.685158e-05 1.144599e-08
3.631530e-05 1.545188e-05 4.081422e-07
-3.679120e-05 -1.515315e-05 -2.427068e-08
-1.341321e-05 3.744895e-05 9.790615e-09
3.974675e-05 2.256240e-06 4.965986e-08
3.973604e-05 -2.267712e-06 5.732303e-08
2.776265e-05 2.845426e-05 -3.308345e-09
-3.981338e-05 1.714797e-06 2.325376e-08
3.344564e-05 -2.158076e-05 -6.742718e-09
-3.927950e-05 6.115952e-06 2.979768e-08
-2.591405e-05 -3.020646e-05 -1.434004e-08
-1.967143e-05 3.458487e-05 -1.230853e-08
3.694474e-05 1.386872e-05 -4.049964e-07
-1.917482e-05 -3.486271e-05 -1.222868e-08
2.547086e-05 -3.051956e-05 3.489890e-08
-3.349783e-05 2.143632e-05 -1.251597e-08
-3.797906e-05 -1.171232e-05 -1.606729e-08
3.760239e-05 -1.300980e-05 1.614910e-08
-3.781391e-05 -1.227400e-05 3.729342e-08
-3.153529e-05 -2.426314e-05 -1.507415e-08
-1.606319e-05 -3.642565e-05 -2.394545e-08
3.894798e-05 -8.282862e-06 -3.034328e-08
-3.728084e-05 -1.372899e-05 -2.019467e-08
2.837298e-05 2.750213e-05 -4.427836e-07
3.699620e-05 -1.467063e-05 -3.621121e-08
3.086869e-05 2.506197e-05 -1.766691e-08
-2.037604e-05 -3.418000e-05 -1.736270e-08
-1.811739e-05 -3.540665e-05 -3.335515e-09
-2.492583e-05 -3.102037e-05 -2.199144e-08
-2.363832e-05 3.201107e-05 -2.253224e-08
-7.181336e-06 3.917052e-05 4.868660e-08
-1.042398e-05 3.841229e-05 6.244749e-09
-3.929489e-05 -6.070448e-06 1.496795e-08
7.827470e-06 3.898318e-05 1.495891e-08
3.202777e-05 2.448938e-05 -1.282494e-22
3.882657e-05 7.548615e-06 -4.651677e-07
7.827315e-06 -3.898295e-05 1.495319e-08
2.397736e-05 -3.178760e-05 5.436800e-08
-2.071612e-05 3.398426e-05 -1.529380e-08
-1.391685e-05 -3.729701e-05 -1.012608e-08
3.944235e-05 -5.357099e-06 6.746030e-09
3.978242e-05 5.343214e-07 -1.593664e-08
3.896333e-05 8.275024e-06 -3.803063e-08
1.259143e-05 -3.774577e-05 1.249639e-08
1.006397e-05 3.848464e-05 -1.483141e-08
3.289112e-05 2.241659e-05 -1.816899e-08
3.882660e-05 -7.548609e-06 -4.651819e-07
3.784450e-05 1.239102e-05 1.590540e-09
2.516939e-06 -3.972769e-05 7.075815e-09
2.517811e-06 3.972726e-05 7.101656e-09
3.380063e-05 -2.097608e-05 -2.826320e-08
-3.651430e-05 -1.575131e-05 2.775276e-08
2.908352e-05 -2.725148e-05 -2.625994e-08
3.967472e-05 2.949456e-06 1.701702e-08
-1.470883e-05 3.695326e-05 6.248617e-09
3.803556e-05 -1.173532e-05 -1.527029e-09
[...]
POINT_DATA 10397
VECTORS 10.000GHz_fone_imag double
4.432681e+10 -5.878434e+10 -5.895751e+08
-3.897211e+09 -7.923262e+10 1.180394e+08
5.024057e+10 -5.630151e+10 -1.780354e+07
-1.727092e+10 7.453294e+10 -1.744349e+08
1.693617e+10 7.436734e+10 1.109213e+08
-5.101727e+10 5.617348e+10 4.425312e+08
-7.552606e+10 2.528860e+09 -9.170814e+08
-6.366173e+10 4.060939e+10 -1.596696e+08
-2.548710e+10 7.083194e+10 4.467339e+08
2.640473e+10 -7.066179e+10 -3.879488e+07
-2.694165e+10 -7.063075e+10 -2.608563e+08
-7.560689e+10 5.187591e+08 6.827858e+07
3.842860e+09 -7.877788e+10 -2.225947e+08
-3.764797e+10 6.585160e+10 4.687738e+08
7.507418e+10 6.969562e+09 2.887749e+08
-5.221802e+10 5.368254e+10 2.598717e+08
-6.352892e+10 3.986197e+10 9.275240e+06
-6.205562e+10 -4.272268e+10 4.517177e+08
4.903027e+10 5.619641e+10 9.542224e+08
7.523755e+10 3.408189e+07 2.042721e+08
-3.491181e+10 6.661497e+10 -4.002472e+08
7.153655e+10 -2.283982e+10 -2.537161e+06
6.644523e+10 3.516442e+10 5.778644e+08
2.553762e+10 -7.436624e+10 -6.491591e+08
-1.045580e+10 7.422279e+10 2.140175e+08
-7.367746e+10 -1.379030e+10 2.136889e+08
7.367855e+10 -1.378593e+10 -2.132643e+08
-4.073938e+10 6.368704e+10 3.484458e+08
-7.059377e+10 2.752638e+10 3.822462e+08
-8.382915e+09 7.535263e+10 1.807539e+08
-7.488712e+10 -1.173538e+10 1.633862e+08
7.488549e+10 -1.173538e+10 -1.624485e+08
-7.374645e+10 -1.546766e+10 -3.952038e+08
7.376366e+10 -1.540537e+10 3.623566e+08
5.266726e+10 -5.890153e+10 4.604604e+08
1.208541e+10 7.438034e+10 -5.317057e+08
-1.214346e+10 7.436364e+10 -3.911803e+08
-8.489177e+07 -7.536359e+10 9.299394e+07
-3.021906e+10 -6.948942e+10 -3.063836e+08
-7.125328e+10 -2.554320e+10 4.737012e+08
-6.279648e+10 -4.080288e+10 6.930881e+08
6.299004e+10 -4.082442e+10 -9.119117e+08
7.569705e+10 3.379190e+09 6.457315e+08
-5.627675e+10 5.017998e+10 -1.642560e+07
1.951169e+10 7.276894e+10 2.231347e+08
-5.192227e+10 -5.737973e+10 -5.306370e+08
-9.886250e+08 7.633981e+10 -3.291095e+08
2.756355e+10 7.023767e+10 -2.374575e+08
4.160113e+10 -6.319602e+10 2.784071e+08
-4.282165e+10 6.265737e+10 2.337166e+08
8.844326e+09 7.557787e+10 3.445669e+08
-2.808360e+10 7.028468e+10 6.724868e+08
-4.834621e+10 5.784991e+10 -6.789417e+08
-2.020048e+10 -7.357791e+10 2.479632e+08
7.528645e+10 5.093269e+09 -8.318210e+08
-5.038839e+10 -5.607317e+10 8.291052e+07
-5.431771e+10 -5.509144e+10 3.992810e+08
2.799541e+10 -6.997788e+10 -1.811798e+08
4.601966e+10 5.973647e+10 -5.653485e+08
7.279099e+10 2.251168e+10 7.426900e+07
-7.197083e+10 -2.281328e+10 1.476837e+08
6.337608e+10 4.233186e+10 -1.433818e+08
-4.580532e+10 -6.004183e+10 3.014459e+08
-3.604272e+09 -7.554189e+10 2.943032e+08
3.275471e+09 -7.559722e+10 1.372185e+07
-6.833258e+10 -3.161146e+10 -1.352247e+08
2.152029e+10 7.282971e+10 1.673546e+08
-2.995463e+10 7.291705e+10 -1.402587e+09
-3.541893e+10 -6.599413e+10 4.320298e+08
5.213818e+10 5.460979e+10 -1.131466e+08
3.213273e+10 6.855110e+10 -5.884610e+08
6.549689e+10 -3.642358e+10 -3.284571e+08
2.032075e+10 7.250132e+10 6.709675e+07
6.788615e+10 -3.170136e+10 -5.760338e+08
6.995877e+10 -2.754563e+10 -1.697506e+08
-6.956307e+09 7.564083e+10 -4.930453e+07
4.556802e+10 -6.075254e+10 -1.655028e+08
5.874386e+10 4.822357e+10 -7.549596e+07
2.945896e+10 7.155336e+10 6.824168e+08
-2.355124e+10 -7.219368e+10 -2.365012e+08
-4.401310e+10 6.155849e+10 -1.092638e+09
-7.442402e+10 5.557591e+09 1.779971e+09
7.582797e+10 -5.827494e+09 -1.708697e+08
-6.738292e+10 -3.445751e+10 2.872634e+08
6.218314e+10 -4.310871e+10 2.528909e+08
9.126299e+09 -7.464727e+10 1.114960e+08
-7.582083e+10 -3.530988e+09 9.506266e+07
7.575109e+10 -3.727943e+09 -1.573155e+08
2.119321e+10 -7.223009e+10 4.056205e+08
-3.956708e+10 -6.890350e+10 -1.761657e+09
3.556315e+10 6.716975e+10 -1.757484e+08
-4.214481e+10 6.279292e+10 2.626099e+07
-1.688912e+10 -7.335097e+10 -5.555159e+08
-3.866521e+10 -6.473326e+10 1.727354e+08
7.551750e+10 1.886018e+09 1.510216e+08
7.335143e+10 1.623427e+10 -6.109351e+08
7.535313e+10 -1.291774e+09 -3.598729e+08
-7.419342e+10 1.506078e+10 -1.822489e+08
-3.107708e+10 6.920841e+10 4.106297e+08
-7.607538e+10 -2.906193e+09 -1.780916e+08
-8.637671e+09 7.852692e+10 8.168613e+08
-4.309588e+10 -6.216720e+10 5.050061e+08
1.785163e+10 -7.362079e+10 -2.293276e+08
-8.916480e+09 -7.474224e+10 -1.192776e+08
-3.714220e+10 -6.523825e+10 -5.035248e+08
4.808189e+10 5.829217e+10 1.095564e+09
1.757178e+09 7.526082e+10 1.027161e+08
-3.207099e+10 6.867125e+10 -1.445254e+08
4.463436e+10 6.075893e+10 7.961425e+08
-3.781955e+10 6.579951e+10 -9.984141e+08
4.086255e+10 -6.423106e+10 -6.866715e+07
4.461592e+10 -6.034706e+10 1.656363e+09
-7.831770e+10 -1.255191e+10 5.533778e+08
-7.263742e+10 -2.004426e+10 1.215649e+07
5.558225e+09 7.515446e+10 5.345621e+08
6.748714e+10 -3.377717e+10 -1.472350e+08
-6.110416e+10 4.513197e+10 5.707399e+07
5.309009e+10 5.358663e+10 3.422582e+08
-7.308060e+10 -1.782754e+10 9.128049e+08
-7.538834e+10 6.930959e+09 -1.037051e+09
-7.248327e+10 2.180377e+10 -9.262268e+07
6.870622e+10 3.221413e+10 -8.889413e+08
6.065441e+10 -4.485932e+10 -2.630933e+08
7.832396e+10 -1.255551e+10 -5.498372e+08
7.161644e+09 7.555042e+10 -1.022125e+08
-6.558207e+10 -3.696917e+10 -7.791954e+08
-6.798421e+10 -3.245241e+10 3.891230e+08
-2.046562e+10 -7.243388e+10 1.797996e+07
-5.955575e+10 -4.631655e+10 -2.712099e+08
6.303119e+10 -4.086113e+10 2.039771e+08
-6.306381e+10 -4.093465e+10 -6.050377e+08
-1.395748e+10 -7.487988e+10 -2.709767e+08
-6.089375e+10 -4.430497e+10 -2.379354e+08
1.357952e+10 -7.469016e+10 1.179154e+08
-2.113796e+10 -7.418095e+10 1.142844e+09
5.635279e+10 5.142907e+10 -8.339375e+08
7.433193e+09 -7.501044e+10 -1.663116e+08
6.939963e+10 -2.951919e+10 4.611739e+08
3.373082e+10 6.807070e+10 3.873683e+08
-7.414199e+10 1.373963e+10 -1.300316e+08
6.017042e+10 -4.766670e+10 -8.963982e+07
-4.291139e+10 -6.193829e+10 2.092481e+08
3.632337e+10 6.620256e+10 -2.551875e+07
5.619811e+10 5.204809e+10 1.351252e+09
6.822959e+10 3.314776e+10 2.627667e+08
1.896394e+10 -7.500917e+10 -7.582145e+08
5.410583e+10 -5.224247e+10 1.997940e+08
-6.675903e+10 -3.573767e+10 -1.007088e+08
-6.524492e+10 -3.775695e+10 -3.687010e+07
-4.690306e+10 5.926435e+10 9.015358e+08
-2.148543e+10 7.292734e+10 -4.541903e+07
-4.670113e+10 -5.898278e+10 -6.832825e+08
6.879653e+10 3.316990e+10 -3.196683e+08
-7.582836e+10 -5.835932e+09 1.679089e+08
-5.233189e+10 5.518979e+10 1.415687e+08
7.069727e+10 -2.603741e+10 5.107979e+07
-4.253598e+10 -6.461284e+10 2.315564e+08
-5.432819e+10 5.167212e+10 6.163322e+08
-3.201982e+10 -6.836406e+10 3.563600e+08
-6.185132e+10 4.350342e+10 -1.928607e+08
7.519088e+10 9.178251e+09 -8.693185e+07
6.353559e+10 4.053345e+10 -1.749445e+08
7.172964e+10 2.174552e+10 7.218202e+06
-5.614985e+09 7.553478e+10 -1.107542e+08
-7.351935e+10 1.764358e+10 4.559018e+08
2.497079e+10 7.215800e+10 -4.406059e+08
-7.182242e+10 2.307718e+10 8.456192e+07
2.591528e+10 7.350874e+10 -5.866862e+08
-7.140450e+10 2.384822e+10 -6.908142e+08
6.530840e+10 -3.800640e+10 1.818655e+08
-5.458572e+10 -5.249777e+10 -2.638310e+08
-7.396278e+10 1.842373e+10 -3.708775e+08
4.258198e+10 6.231443e+10 4.934626e+08
3.943889e+10 -6.422752e+10 -2.057826e+08
1.850283e+10 -7.359267e+10 -8.817600e+07
3.118191e+10 -6.840848e+10 3.124559e+08
-7.519036e+10 4.903569e+08 4.226949e+07
1.028656e+10 -7.465696e+10 3.005451e+06
2.756098e+10 -7.167934e+10 -1.128124e+09
4.363570e+10 -6.204305e+10 -2.462698e+08
-4.999643e+10 -5.671234e+10 -2.203705e+08
-7.756798e+09 -7.482175e+10 -7.115501e+06
-5.029285e+10 5.750807e+10 3.764652e+08
5.336620e+10 -5.378077e+10 8.607933e+07
-7.288666e+10 1.947213e+10 6.025095e+07
-7.047801e+10 -2.871404e+10 6.209011e+08
-4.490139e+10 6.056118e+10 5.637029e+08
7.373064e+10 -1.855266e+10 -6.576529e+08
-6.978954e+10 2.821210e+10 -3.466453e+08
3.145347e+10 -7.130510e+10 4.794630e+08
-2.869216e+10 6.967180e+10 -1.927328e+08
7.097511e+10 2.545273e+10 1.996660e+07
4.523415e+09 -7.541838e+10 -1.969791e+07
-4.674387e+09 -7.551768e+10 -1.310212e+08
5.427471e+10 -5.327593e+10 -9.616655e+06
3.252992e+09 7.508821e+10 -3.926711e+08
-4.117339e+10 -6.336665e+10 2.178720e+08
1.198658e+10 7.492086e+10 7.253960e+08
-5.745079e+10 4.914713e+10 -9.397540e+07
6.520533e+10 3.755501e+10 5.173556e+08
2.749497e+10 -7.250862e+10 7.787893e+08
-6.613798e+10 3.586948e+10 5.106103e+08
-5.817403e+10 -4.861911e+10 -5.747736e+07
4.059587e+10 6.376464e+10 1.702251e+08
-2.288751e+10 7.271362e+10 -3.175109e+08
-2.474028e+10 -7.108619e+10 -2.299150e+08
-2.341435e+10 7.248668e+10 -3.893611e+08
-4.606498e+10 5.989671e+10 -6.980233e+08
-6.878818e+10 3.036141e+10 -3.992189e+08
-1.560553e+10 -7.416061e+10 -5.263057e+07
-2.600565e+10 7.169127e+10 -8.973545e+08
5.608713e+10 -5.633212e+10 -2.156250e+08
-2.777999e+10 -7.083774e+10 7.300455e+08
4.799651e+10 -5.914064e+10 1.967508e+08
-6.475659e+10 3.834813e+10 -1.979078e+08
-6.740319e+10 3.445632e+10 2.184292e+08
-5.881280e+10 4.748041e+10 -6.489619e+08
6.073128e+10 4.500897e+10 6.140427e+08
7.438597e+10 1.292154e+10 7.653715e+07
7.205361e+10 1.994316e+10 -2.846224e+08
-1.195092e+10 7.490456e+10 2.361952e+08
7.429097e+10 -1.529494e+10 -2.497890e+08
4.359427e+10 -5.926012e+10 6.421429e+08
1.355937e+10 -7.614027e+10 1.443631e+08
-7.429206e+10 -1.529760e+10 2.451561e+08
-6.060673e+10 -4.507587e+10 -2.605559e+07
6.420685e+10 3.965390e+10 1.091386e+08
-7.089958e+10 2.671023e+10 1.132868e+08
-1.047350e+10 -7.468014e+10 -1.624862e+08
8.058812e+08 -7.512269e+10 -1.040126e+08
1.602519e+10 -7.445001e+10 6.204043e+08
-7.145562e+10 -2.362806e+10 3.136100e+08
7.307236e+10 -1.854893e+10 4.150911e+08
4.284543e+10 -6.221502e+10 -2.386007e+08
-1.438958e+10 -7.699257e+10 1.752476e+08
2.372360e+10 -7.196644e+10 -5.317185e+08
-7.536900e+10 -4.704914e+09 2.510275e+08
7.537280e+10 -4.659170e+09 -2.531408e+08
-3.994347e+10 -6.457463e+10 -1.429394e+08
-3.032955e+10 6.994965e+10 -1.606809e+08
-5.144366e+10 -5.535689e+10 6.798330e+08
5.714122e+09 -7.557177e+10 3.425879e+08
7.002926e+10 2.813046e+10 1.516761e+08
-2.263127e+10 -7.231866e+10 4.036535e+08
-6.324797e+10 -4.001372e+10 -3.621272e+08
-2.777440e+10 7.213659e+10 1.574121e+09
2.095233e+10 -7.282502e+10 3.354663e+08
4.682868e+10 5.979466e+10 -1.960696e+08
2.262588e+10 7.198586e+10 3.576243e+08
-3.812045e+09 7.570978e+10 -2.866718e+08
4.979228e+10 -5.719948e+10 3.291535e+08
-4.986683e+10 -5.704040e+10 -1.970966e+08
7.540140e+10 8.231063e+09 1.197649e+08
6.631048e+10 -3.555193e+10 2.793888e+08
1.718786e+10 7.390203e+10 -8.690535e+08
-7.507088e+10 1.014247e+10 -2.453442e+07
3.455745e+10 6.823273e+10 -1.325213e+09
3.770426e+10 -6.600328e+10 -8.432138e+07
5.609433e+10 -5.120367e+10 4.809146e+08
-7.570442e+10 -7.480238e+09 -5.051572e+08
7.570487e+10 -7.478831e+09 5.046516e+08
-5.345519e+10 -5.406716e+10 1.770725e+08
3.504276e+10 6.758332e+10 -3.271963e+08
3.652124e+10 -6.716133e+10 -2.167195e+08
3.103372e+10 -6.995096e+10 1.094686e+09
-3.420518e+10 6.811585e+10 3.148260e+08
2.482095e+10 -7.152749e+10 -1.408375e+08
3.397244e+10 7.035981e+10 -8.199935e+08
5.038264e+10 -5.648147e+10 1.435073e+08
-1.445145e+10 7.403356e+10 8.612026e+08
1.444853e+10 7.404243e+10 7.084242e+08
2.643551e+10 7.087882e+10 2.156192e+08
6.860448e+10 -3.100769e+10 5.293859e+08
-4.039026e+10 6.399425e+10 3.948114e+08
1.780635e+09 7.567859e+10 1.028525e+08
-2.881206e+10 -6.996808e+10 2.604800e+08
-7.639804e+10 6.242085e+09 -1.103277e+09
7.146702e+10 -2.382465e+10 -7.863151e+07
-3.481415e+10 7.077260e+10 -4.760254e+08
5.708738e+10 -5.028495e+10 -4.282618e+08
-7.090335e+10 -2.678872e+10 6.196905e+07
5.299213e+10 -5.372029e+10 -7.094906e+08
-5.716215e+10 -4.914014e+10 3.041569e+08
-6.247220e+10 4.224529e+10 -4.980302e+08
-5.578726e+09 -7.566081e+10 -2.362372e+08
-1.708462e+10 -7.347341e+10 4.927500e+08
-5.601853e+08 -7.518952e+10 -9.808813e+07
-1.180930e+10 -7.490522e+10 -1.956838e+08
-7.569792e+10 2.063104e+09 -3.364997e+08
-3.240673e+10 6.935231e+10 -8.270195e+08
1.180138e+10 -7.475653e+10 3.597057e+08
-4.427606e+10 -6.120026e+10 -4.873140e+08
7.574571e+10 1.099449e+09 3.057942e+08
-7.534448e+10 -9.786282e+09 2.355533e+07
7.534287e+10 -9.788999e+09 -2.197212e+07
-7.315453e+10 -2.192494e+10 3.002303e+08
-3.599600e+10 -6.654682e+10 -7.454674e+06
2.846942e+10 6.996488e+10 -3.054360e+07
-1.734771e+10 7.408064e+10 -9.680252e+08
-5.566703e+10 -5.151553e+10 -6.246082e+07
1.916473e+10 7.453019e+10 1.532750e+09
7.250117e+10 -2.177588e+10 1.952936e+08
7.480685e+10 -1.200219e+10 2.641046e+07
-7.480735e+10 -1.200583e+10 -2.793271e+07
-8.626206e+09 7.527049e+10 -2.123295e+07
5.963643e+10 -4.594436e+10 -2.563489e+08
3.236219e+10 -6.798016e+10 7.049077e+08
-3.352047e+10 6.856853e+10 -2.603131e+07
3.815182e+10 -6.552590e+10 1.800473e+08
1.046371e+10 7.496372e+10 -9.319041e+08
7.478036e+10 1.166140e+10 5.004392e+08
1.788751e+10 7.976186e+10 3.472376e+08
7.526186e+10 -7.171969e+09 3.010049e+08
-7.526176e+10 -7.173874e+09 -3.020882e+08
4.342959e+10 6.173152e+10 -5.485586e+08
4.479501e+10 -6.153852e+10 4.429999e+08
1.623333e+10 7.394711e+10 -9.046795e+07
-1.592414e+10 7.393402e+10 2.533713e+08
-3.640272e+10 6.610947e+10 -2.148253e+08
4.903458e+10 5.770377e+10 -1.678538e+08
6.361129e+10 -3.980730e+10 1.540832e+08
6.003115e+09 7.593069e+10 9.773621e+07
-1.898209e+10 7.436906e+10 1.721765e+09
3.435647e+10 -6.727888e+10 3.565744e+08
6.596821e+10 -3.753474e+10 -7.319739e+08
5.935901e+10 4.678621e+10 -6.372650e+07
6.695481e+10 -3.470404e+10 4.652593e+08
-4.791467e+10 -5.895849e+10 2.469376e+08
-6.132412e+09 -7.556387e+10 2.207678e+08
1.706635e+10 -7.392222e+10 -7.922451e+08
7.111703e+10 -2.712968e+10 2.676457e+08
2.852094e+10 -7.031587e+10 -6.407614e+08
5.866628e+10 -4.808721e+10 2.334218e+08
4.631868e+10 -5.752459e+10 9.963603e+08
-1.737702e+10 7.765830e+10 4.687470e+08
7.625710e+10 -2.440829e+09 3.194427e+07
3.158036e+10 6.914744e+10 -1.561826e+08
-6.916020e+10 -3.132625e+10 -3.234101e+08
-1.402208e+10 -7.473953e+10 1.412827e+08
1.386589e+10 -7.475261e+10 -2.234527e+08
-5.397772e+10 5.350262e+10 -1.134152e+09
-6.472267e+10 4.139380e+10 6.129417e+08
-2.813610e+08 7.577839e+10 4.002488e+08
-7.287202e+10 2.010885e+10 2.168369e+08
-3.363426e+10 -6.796905e+10 3.370533e+08
-2.929787e+10 6.989104e+10 3.919651e+08
6.360649e+09 -7.575383e+10 -1.931685e+08
-7.560235e+10 1.275159e+10 -1.361628e+08
-3.160569e+10 -6.882275e+10 -3.264134e+08
-7.298605e+10 -2.120808e+10 -6.291638e+08
5.771812e+10 4.863541e+10 5.007786e+08
-7.129243e+10 2.534385e+10 -5.369313e+07
2.945693e+10 6.985403e+10 4.003621e+08
-2.573780e+10 -7.154892e+10 -1.062677e+08
3.925117e+10 6.509761e+10 2.193951e+08
-5.719516e+10 -5.078473e+10 1.587929e+08
2.921628e+10 7.205971e+10 -1.619577e+08
6.852001e+10 -3.290595e+10 1.354768e+08
-7.423133e+10 1.637872e+10 2.408158e+08
-5.501655e+10 -5.194456e+10 -4.976809e+06
4.850125e+10 -5.860204e+10 -4.253580e+07
7.125328e+10 -2.405120e+10 -6.117055e+08
-4.847511e+10 -5.865284e+10 1.106649e+08
-7.358458e+10 -1.895487e+10 -2.014568e+08
-2.403082e+10 7.213930e+10 2.163277e+08
7.581043e+10 5.657384e+09 -2.867398e+08
7.016506e+10 -2.840737e+10 -8.254022e+08
-2.628559e+10 -7.110304e+10 -1.213968e+09
-2.025217e+10 7.293664e+10 5.573764e+08
3.059041e+10 -6.955485e+10 -6.111028e+08
-1.170994e+09 7.568668e+10 2.371845e+08
1.603646e+09 -7.570984e+10 -5.952736e+07
8.487304e+09 7.511894e+10 1.088538e+08
5.520152e+10 5.102596e+10 1.189600e+09
-7.565008e+10 8.140403e+09 -1.689540e+08
6.930059e+10 3.109679e+10 -5.550983e+07
-6.106159e+10 -4.481669e+10 -1.381124e+08
-6.985003e+10 -2.925818e+10 2.535657e+08
-2.991299e+10 -7.114294e+10 4.679999e+08
4.597860e+10 6.070230e+10 -1.745586e+08
-4.811501e+10 5.865046e+10 3.469380e+08
-4.195181e+10 -6.338890e+10 -3.039303e+07
6.229753e+10 4.257671e+10 1.292749e+08
7.175501e+10 2.313998e+10 -2.520791e+07
-3.860294e+10 -6.528277e+10 -2.412719e+07
7.469787e+10 -8.979301e+09 7.344696e+08
-7.469690e+10 -8.982429e+09 -7.366550e+08
7.481221e+10 1.634062e+10 -9.038858e+08
-6.670568e+10 -3.763061e+10 9.727060e+08
1.273032e+10 -7.609030e+10 -6.189737e+08
-3.934204e+10 6.446323e+10 1.148709e+08
5.161819e+10 5.598844e+10 -4.979012e+08
-5.598542e+10 5.093900e+10 6.967730e+07
-7.272730e+10 2.379040e+10 3.799696e+08
-5.940149e+10 -4.625956e+10 6.159793e+08
-4.944273e+10 5.832807e+10 -4.435351e+08
4.699768e+10 6.093481e+10 -4.203168e+08
-5.810924e+10 -4.815187e+10 -2.287679e+08
-7.374700e+10 -1.641607e+10 -3.970419e+08
6.484687e+10 4.086515e+10 -2.729500e+08
-1.277587e+10 -7.577747e+10 6.315426e+08
7.578732e+10 2.185188e+10 2.857557e+08
-5.332653e+10 -5.251789e+10 -6.763703e+08
1.305751e+10 7.437958e+10 -3.119018e+08
-1.305318e+10 7.440653e+10 -3.921508e+08
2.475567e+10 7.121753e+10 2.198955e+08
7.350697e+10 -1.707651e+10 3.122563e+08
-5.166482e+10 5.491186e+10 -4.377761e+08
2.765044e+10 -7.041423e+10 1.250553e+08
7.428024e+10 1.525029e+10 1.481412e+09
-6.423298e+10 -3.896456e+10 -3.058164e+08
6.079272e+10 -4.770113e+10 -1.540279e+09
1.980188e+10 -7.234953e+10 -7.101541e+08
2.264984e+10 -7.233100e+10 -1.457579e+08
-6.244326e+10 -4.355197e+10 -8.982446e+08
-6.955627e+10 -2.993171e+10 -4.034146e+08
-6.794009e+10 3.364178e+10 7.072611e+08
4.752125e+10 -5.883367e+10 2.643617e+08
6.446517e+10 -4.124540e+10 -1.925357e+08
-6.468919e+10 -4.107068e+10 4.244938e+08
-6.106507e+10 4.442539e+10 5.411911e+08
-1.948253e+10 -7.361250e+10 2.730740e+08
6.166129e+10 -4.579013e+10 1.291585e+09
-4.354521e+10 6.167113e+10 5.526213e+08
-3.787622e+10 6.573528e+10 -4.060833e+08
-7.562595e+10 3.559850e+09 5.058232e+08
-2.673181e+10 7.101862e+10 3.224277e+08
-1.837080e+09 -7.578452e+10 1.235247e+08
2.433135e+10 7.175321e+10 -5.947976e+08
6.832863e+10 -3.155267e+10 2.932476e+08
3.491653e+10 -6.824090e+10 -9.379936e+08
6.427735e+10 -3.904511e+10 7.264089e+08
-7.109871e+10 -2.486287e+10 -3.232253e+08
-7.245272e+10 -2.634888e+10 8.190665e+08
-6.060658e+10 4.538709e+10 -9.346345e+07
6.157200e+10 -4.352752e+10 1.411004e+08
7.338809e+10 -2.005088e+10 -2.883120e+08
7.334538e+10 1.876258e+10 1.938004e+08
6.721426e+10 3.350553e+10 1.236782e+08
-6.749482e+10 -3.387580e+10 2.052740e+07
1.861447e+10 7.368142e+10 -2.840187e+08
-1.849976e+10 7.400287e+10 3.043012e+08
-6.308639e+10 4.294664e+10 2.414887e+08
7.011104e+10 2.721721e+10 8.902898e+08
4.630755e+10 -5.709903e+10 5.915523e+08
-7.205678e+10 -2.508679e+10 5.965114e+08
-7.488334e+10 -1.210169e+09 1.839385e+08
5.164342e+10 -5.552321e+10 -7.586537e+07
5.380050e+10 5.393288e+10 -7.220314e+08
-3.342911e+10 -6.527891e+10 -1.189951e+09
7.544292e+10 3.703937e+09 -4.149153e+08
-7.811149e+10 6.168854e+09 9.623581e+08
2.481719e+10 -7.176024e+10 7.628798e+08
5.165426e+10 5.908231e+10 3.966559e+08
1.073227e+10 7.335268e+10 4.337930e+08
4.498030e+09 7.545099e+10 -3.093081e+08
7.354847e+10 -2.156950e+10 7.129736e+07
-5.308466e+10 -5.393701e+10 -1.590696e+08
-6.579298e+10 3.697431e+10 1.361673e+08
6.593051e+10 3.669192e+10 1.096217e+08
7.105315e+10 2.059938e+10 2.673401e+08
1.243091e+10 7.767204e+10 -1.095974e+09
-3.812083e+10 -7.049171e+10 5.105497e+08
-4.594358e+10 6.561772e+10 -2.975477e+09
6.983451e+10 2.012212e+10 -4.392439e+08
2.298918e+10 -7.354040e+10 -4.795739e+08
7.536353e+10 -1.837192e+10 1.102683e+08
6.954821e+10 -2.892390e+10 1.315293e+08
7.053405e+10 -2.633317e+10 -6.088388e+08
6.861018e+10 -3.455472e+10 -2.327960e+08
-6.575283e+10 -3.709764e+10 6.827153e+07
6.507837e+10 -3.913949e+10 2.003712e+09
6.326968e+10 -4.351133e+10 6.948735e+08
6.130224e+10 -4.424091e+10 -5.917991e+08
4.703711e+10 -5.582090e+10 8.150230e+08
-6.294001e+10 -4.355747e+10 -1.110501e+09
-6.162885e+10 -4.446934e+10 -1.078849e+08
-7.229950e+10 -2.998612e+10 9.193599e+08
-6.867660e+10 -3.132484e+10 1.741549e+09
-6.845752e+10 -3.586842e+10 5.230580e+08
-6.809219e+10 -3.344008e+10 -8.442208e+08
-6.051804e+10 -4.708452e+10 7.684009e+08
5.762336e+10 -5.224857e+10 -4.051359e+07
5.588683e+10 -5.204472e+10 -1.038525e+09
-7.438490e+10 -2.182110e+10 -7.916038e+08
4.559345e+10 -5.778366e+10 4.412536e+07
-7.504787e+10 -1.960345e+10 -3.946840e+08
-1.670762e+10 -7.369859e+10 -3.185980e+08
1.696105e+10 -7.370845e+10 5.098674e+07
7.570032e+10 -8.014293e+09 1.998877e+09
-7.569603e+10 -8.013669e+09 -1.998838e+09