# vtk DataFile Version 2.0
Electric current density generated by TTH
ASCII
DATASET UNSTRUCTURED_GRID
POINTS 7685 double
2.528808e-05 2.866484e-05 -1.622195e-22
1.823468e-05 3.256040e-05 -6.156711e-07
3.732137e-05 -2.013958e-06 -6.353215e-07
3.743548e-05 -8.782275e-07 -6.518884e-07
3.207780e-05 1.867523e-05 4.907580e-07
-3.707285e-05 1.004752e-06 4.601553e-07
2.697893e-05 -2.585467e-05 6.328431e-07
2.616459e-05 -2.670302e-05 6.379917e-07
3.713752e-05 -4.171428e-06 -6.339450e-07
3.507909e-05 -1.294154e-05 -6.394188e-07
1.427721e-05 3.443817e-05 -5.990681e-07
2.497499e-05 2.893804e-05 -1.622195e-22
3.645158e-05 9.097753e-06 6.622752e-07
-3.745602e-05 1.039229e-06 -6.558377e-07
2.131263e-05 3.026388e-05 -3.726411e-07
-3.446215e-05 -1.484009e-05 -6.610259e-07
2.279251e-05 2.984348e-05 6.622187e-07
2.030365e-05 3.157741e-05 -6.619715e-07
3.698302e-05 -5.483457e-06 -6.386394e-07
1.560324e-05 3.414428e-05 -6.619374e-07
-3.683826e-05 -6.320137e-06 -6.355612e-07
-3.695759e-05 -5.313105e-06 -6.228241e-07
2.465895e-05 2.920782e-05 -1.622195e-22
3.730183e-05 2.606267e-06 -6.401105e-07
3.792995e-05 -1.296910e-06 5.358213e-07
2.702470e-06 3.702768e-05 -4.979900e-07
3.434102e-05 -1.467118e-05 -6.250038e-07
3.416277e-05 -1.564243e-05 -6.622226e-07
3.492408e-05 -1.398340e-05 -6.598809e-07
1.831111e-05 -3.279225e-05 6.622964e-07
3.793857e-05 1.013584e-06 -5.358213e-07
8.432500e-07 3.710632e-05 -4.887959e-07
3.315594e-05 1.658775e-05 -4.467230e-07
2.433999e-05 2.947414e-05 -1.622195e-22
3.397223e-05 1.595351e-05 -6.615793e-07
-3.719253e-05 -5.717720e-06 6.589496e-07
3.557062e-05 -1.214542e-05 6.618711e-07
-3.359388e-05 1.554238e-05 3.723092e-07
-3.346173e-05 1.589906e-05 -4.152323e-07
-3.318496e-05 1.681259e-05 -5.546658e-07
-3.775434e-05 6.109255e-07 6.325015e-07
2.193026e-05 -3.071258e-05 -6.385705e-07
2.314553e-05 -2.978263e-05 -6.436398e-07
3.320614e-05 1.794180e-05 -6.372478e-07
2.401816e-05 2.973699e-05 -1.622195e-22
2.667309e-05 -2.652189e-05 -6.602776e-07
5.717323e-06 3.727705e-05 -6.450718e-07
-3.746755e-05 4.295249e-06 6.450714e-07
3.394028e-05 -1.644228e-05 6.449937e-07
3.319375e-05 -1.790910e-05 6.441511e-07
2.091833e-05 3.107077e-05 -6.536795e-07
2.877207e-05 2.377109e-05 6.167989e-07
2.981648e-05 2.246294e-05 6.204312e-07
3.034488e-05 2.173796e-05 6.191411e-07
-3.466766e-05 1.429506e-05 -6.592563e-07
2.369349e-05 2.999632e-05 -1.622195e-22
-3.497374e-05 1.342226e-05 -6.544250e-07
1.940307e-05 3.152748e-05 -3.791181e-07
2.991921e-05 2.262884e-05 -6.604343e-07
2.894233e-05 2.385648e-05 -6.599725e-07
3.090819e-05 2.020111e-05 -1.757914e-07
-3.755513e-05 -1.977866e-06 6.608239e-07
3.073278e-05 -2.145256e-05 6.570557e-07
3.119641e-05 -2.063264e-05 6.425328e-07
2.077149e-05 -3.108423e-05 -6.381662e-07
3.627497e-05 1.004171e-05 6.578918e-07
2.336602e-05 3.025210e-05 -1.622195e-22
3.727101e-05 -4.896710e-06 6.616987e-07
2.114417e-05 3.090532e-05 6.519570e-07
2.055001e-05 3.156781e-05 6.540097e-07
1.120942e-05 -3.586866e-05 6.621036e-07
3.683918e-05 2.177707e-06 -6.284809e-08
1.277351e-05 -3.532824e-05 6.623009e-07
2.964691e-05 -2.228251e-05 -4.607708e-07
-3.136890e-05 1.954505e-05 2.736095e-07
2.904073e-05 -2.277264e-05 -7.448291e-08
1.430175e-05 -3.478191e-05 6.608048e-07
2.303578e-05 3.050431e-05 -1.622195e-22
-3.509616e-05 -1.319337e-05 -6.587347e-07
-3.541334e-05 -1.222067e-05 -6.546926e-07
-3.626874e-05 9.894466e-06 6.615685e-07
1.126692e-05 3.586624e-05 -6.615633e-07
3.537884e-05 1.080647e-05 -3.366762e-07
3.151089e-05 1.975828e-05 -5.495079e-07
2.326380e-05 -2.924633e-05 6.337669e-07
2.257535e-05 -2.975225e-05 6.263689e-07
3.387377e-05 1.641549e-05 6.575925e-07
2.610487e-05 2.608780e-05 -8.359277e-08
2.270283e-05 3.075291e-05 -1.622195e-22
2.687099e-05 2.532777e-05 -1.827801e-07
2.413455e-05 -2.895427e-05 6.492198e-07
3.447944e-05 1.517313e-05 -6.535225e-07
-3.405680e-05 -1.606709e-05 -6.556420e-07
3.168805e-05 2.034256e-05 6.557644e-07
3.202683e-05 1.960329e-05 6.621887e-07
1.912372e-05 3.244099e-05 6.554168e-07
1.360484e-05 3.511813e-05 6.549459e-07
1.461613e-05 3.446418e-05 6.499451e-07
1.206544e-05 3.567632e-05 6.549459e-07
2.236719e-05 3.099788e-05 -1.622195e-22
3.623561e-05 -1.030185e-05 -6.533210e-07
3.719766e-05 5.912257e-06 6.544464e-07
2.382588e-05 2.917310e-05 6.541929e-07
3.617178e-05 -7.304194e-06 -4.279458e-08
3.647600e-05 -5.582132e-06 -1.442524e-08
-3.575752e-05 1.184858e-05 -6.536677e-07
-3.572161e-05 1.077338e-05 -6.125092e-07
-3.626630e-05 1.001982e-05 -6.593851e-07
-3.612495e-05 -1.067644e-05 -6.536477e-07
-3.608584e-05 -9.490965e-06 -6.134259e-07
2.202892e-05 3.123919e-05 -1.622195e-22
1.770552e-05 3.326046e-05 6.519539e-07
1.948498e-05 -3.227570e-05 6.476786e-07
1.107684e-05 -3.519988e-05 -3.814452e-08
2.227050e-05 2.944855e-05 -1.652115e-07
2.464981e-05 2.748127e-05 -1.450281e-07
-3.257398e-05 1.896431e-05 -6.495310e-07
3.289636e-06 3.756612e-05 6.457768e-07
-3.725313e-05 3.766207e-06 -6.513887e-07
5.180410e-06 3.708295e-05 6.513933e-07
-3.633602e-05 -6.448239e-06 6.538092e-08
2.168803e-05 3.147681e-05 -1.622195e-22
-3.602337e-05 -8.068896e-06 1.423854e-07
-3.690408e-05 -6.201207e-07 1.075048e-07
3.650583e-05 9.534016e-06 -6.407926e-07
3.760594e-05 2.661616e-06 6.479462e-07
3.735596e-05 3.522794e-06 6.610339e-07
-3.771134e-05 -1.707052e-07 -6.453532e-07
2.958950e-05 2.337215e-05 6.464911e-07
3.554736e-05 -1.176093e-05 -6.512754e-07
-3.730266e-05 5.513902e-06 -6.462087e-07
6.928845e-06 3.706605e-05 6.461798e-07
2.134459e-05 3.171070e-05 -1.622195e-22
3.617670e-05 7.280373e-06 -4.449606e-08
3.575069e-05 1.164361e-05 6.613220e-07
2.527206e-05 2.761767e-05 -6.499500e-07
1.121112e-05 3.549846e-05 5.707077e-07
2.856444e-05 2.463189e-05 6.438417e-07
-3.678603e-05 8.336090e-06 -6.436983e-07
9.729339e-06 3.644240e-05 6.436777e-07
-3.129120e-05 2.106222e-05 -6.435247e-07
2.918982e-05 -2.387721e-05 -6.453782e-07
4.100550e-07 3.772011e-05 6.428120e-07
2.099862e-05 3.194085e-05 -1.622195e-22
-3.209177e-05 1.965725e-05 -6.585157e-07
-3.197146e-05 2.007934e-05 6.341579e-07
1.826029e-05 3.258372e-05 6.277081e-07
3.334491e-05 -1.698073e-05 -6.466469e-07
3.344916e-05 -1.617099e-05 -5.203193e-07
3.399564e-05 -1.436427e-05 8.336390e-08
1.936124e-05 -3.141775e-05 -7.142793e-08
-3.697566e-05 -7.537899e-06 -6.392191e-07
3.713529e-05 -6.733106e-06 -6.379596e-07
3.461152e-05 -1.279414e-05 2.727995e-09
2.065017e-05 3.216723e-05 -1.622195e-22
3.694041e-05 7.511530e-06 6.487035e-07
-3.708146e-05 6.349793e-06 -6.597336e-07
7.755403e-06 3.681346e-05 6.597070e-07
-3.730771e-05 1.839686e-06 6.282146e-07
2.634683e-05 2.693752e-05 -6.518553e-07
1.224312e-05 3.568769e-05 -6.410275e-07
-3.490699e-05 1.417594e-05 6.526267e-07
-3.397339e-05 -1.448739e-05 2.061214e-07
3.322592e-05 -1.792020e-05 -6.351806e-07
-3.498372e-05 -1.421304e-05 -6.320558e-07
2.029928e-05 3.238980e-05 -1.622195e-22
3.089744e-05 -2.178930e-05 -6.153603e-07
3.120973e-05 -2.080649e-05 -6.601561e-07
3.182192e-05 -2.023842e-05 -6.451899e-07
-3.206345e-05 1.826633e-05 3.713184e-08
-1.135636e-05 3.602257e-05 -6.289860e-07
-5.319638e-06 3.739229e-05 6.294664e-07
-4.294981e-06 3.718929e-05 6.501513e-07
-3.620006e-05 -9.771152e-06 6.588916e-07
-3.586228e-05 1.094619e-05 6.588954e-07
-1.662662e-05 3.391835e-05 6.276338e-07
1.994599e-05 3.260855e-05 -1.622195e-22
-3.062587e-05 2.212562e-05 -6.249555e-07
-2.871560e-06 3.766418e-05 6.279137e-07
3.740574e-05 5.072456e-06 6.358654e-07
3.268494e-05 1.715677e-05 -1.341003e-07
-3.256098e-05 -1.737674e-05 9.650331e-08
-3.221927e-05 -1.807071e-05 -2.278401e-07
-3.760786e-05 3.457830e-06 6.302168e-07
4.885851e-06 3.744912e-05 -6.302159e-07
3.612184e-05 -1.109453e-05 -6.231258e-07
-3.242304e-05 -1.912748e-05 6.572453e-07
1.959035e-05 3.282344e-05 -1.622195e-22
1.361714e-05 -3.521991e-05 6.320671e-07
2.392722e-05 -2.927824e-05 -6.137547e-07
3.287552e-05 1.865120e-05 -6.192551e-07
3.436038e-05 -1.573292e-05 6.217589e-07
-3.157008e-05 2.076255e-05 6.237090e-07
-3.418854e-05 1.610607e-05 6.212654e-07
-3.033928e-05 2.245165e-05 6.372761e-07
3.059726e-05 2.218396e-05 -6.209760e-07
2.867069e-05 2.462413e-05 -6.208024e-07
3.436650e-05 1.349350e-05 -1.619097e-07
1.923239e-05 3.303446e-05 -1.622195e-22
3.012245e-05 -2.276806e-05 6.325696e-07
3.557195e-05 -9.851513e-06 1.169793e-07
3.550319e-05 1.010871e-05 -1.342929e-07
-3.448492e-05 -1.319156e-05 1.670133e-07
1.654368e-05 -3.303879e-05 2.496698e-07
2.944523e-05 2.224243e-05 -4.244919e-08
2.841486e-05 2.354398e-05 -3.698207e-08
3.548438e-05 1.264894e-05 6.533434e-07
-3.686448e-05 7.567597e-06 -6.585603e-07
8.964566e-06 3.655026e-05 6.585219e-07
1.887216e-05 3.324157e-05 -1.622195e-22
1.600197e-05 3.326550e-05 -1.338871e-07
1.681284e-05 3.287774e-05 -1.861046e-07
3.661924e-05 4.563915e-06 -5.206965e-08
3.500187e-05 1.396582e-05 -6.509035e-07
1.053979e-05 -3.629292e-05 6.212560e-07
1.531075e-05 -3.360025e-05 -1.755431e-07
3.283453e-05 -1.719666e-05 4.371124e-07
3.690827e-05 8.612340e-07 1.525722e-07
3.380086e-05 1.482114e-05 9.613184e-08
-3.443241e-06 3.722302e-05 6.371351e-07
1.850969e-05 3.344475e-05 -1.622195e-22
-3.729778e-05 1.139495e-09 6.069697e-07
-3.323223e-05 -1.785725e-05 6.418541e-07
3.559862e-05 1.267401e-05 -6.230489e-07
-3.659743e-05 -4.847848e-06 1.474337e-07
3.166646e-05 -1.894826e-05 -5.249130e-08
2.782565e-05 -2.555962e-05 6.246120e-07
1.698040e-05 -3.370265e-05 6.385558e-07
3.204930e-05 -1.830462e-05 1.008464e-07
2.562074e-05 -2.657489e-05 -1.332510e-07
3.761555e-05 -3.485594e-06 -6.268239e-07
1.814505e-05 3.364398e-05 -1.622195e-22
2.295994e-05 -2.903574e-05 -3.746526e-07
1.291681e-05 3.549548e-05 -6.281938e-07
2.188230e-05 -2.993942e-05 -4.573224e-07
-3.338581e-05 1.764561e-05 -6.316033e-07
6.585496e-06 -3.632118e-05 -1.299039e-07
8.938804e-06 -3.581472e-05 -1.299039e-07
-3.095451e-05 -2.011007e-05 -1.299041e-07
4.204183e-06 -3.667317e-05 -1.299041e-07
1.804991e-06 -3.686921e-05 -1.299041e-07
-7.766279e-06 -3.608714e-05 -1.299041e-07
1.777825e-05 3.383924e-05 -1.622195e-22
-1.891807e-05 -3.169705e-05 -1.299041e-07
-2.807566e-05 -2.396569e-05 -1.299041e-07
[...]
POINT_DATA 7685
VECTORS 10.000GHz_fone_imag double
3.872613e+10 -3.565330e+10 -1.264606e+09
4.936782e+10 -2.727244e+10 3.317264e+08
-1.213170e+09 -5.533549e+10 -9.604765e+07
-2.090930e+09 -5.515768e+10 3.004071e+08
2.815266e+10 -4.906128e+10 -1.909046e+08
-3.403836e+08 5.795350e+10 -1.393506e+09
-4.185508e+10 -4.096260e+10 -1.612089e+09
-4.001972e+10 -3.890551e+10 2.502471e+08
-5.954771e+09 -5.635795e+10 -6.953216e+08
-1.925345e+10 -5.486134e+10 -1.073393e+09
5.244936e+10 -2.225570e+10 -1.517424e+09
3.867198e+10 -3.414638e+10 -4.901795e+08
1.317708e+10 -5.290906e+10 2.952609e+08
2.692458e+09 5.748502e+10 -6.003286e+08
4.675726e+10 -3.321992e+10 -4.584176e+08
-2.222692e+10 5.015501e+10 1.020174e+09
4.405127e+10 -3.450671e+10 2.677230e+08
4.487765e+10 -3.039845e+10 -2.294449e+09
-8.362980e+09 -5.721004e+10 -1.401138e+08
4.915335e+10 -2.307248e+10 -4.443301e+07
-9.329256e+09 5.660314e+10 -4.954495e+08
-8.332324e+09 5.519655e+10 -2.760269e+08
3.992601e+10 -3.285726e+10 4.970033e+08
3.442530e+09 -5.549312e+10 1.263487e+09
-9.389549e+08 -5.318302e+10 7.270105e+08
5.733897e+10 -5.177793e+09 -1.022352e+09
-2.077283e+10 -5.160568e+10 6.170223e+08
-2.278564e+10 -5.121256e+10 -5.205861e+08
-1.984363e+10 -5.010920e+10 -1.237061e+08
-4.732965e+10 -2.632600e+10 -6.605016e+08
2.173737e+09 -5.345139e+10 2.580766e+08
5.725981e+10 -6.854732e+08 1.728153e+07
2.742903e+10 -5.257229e+10 -7.204783e+08
3.951014e+10 -3.292075e+10 -3.985992e+06
2.373066e+10 -4.944489e+10 1.340333e+09
-8.942011e+09 5.416116e+10 -2.919575e+08
-1.718371e+10 -5.223706e+10 -1.229866e+09
2.557082e+10 5.445105e+10 4.637281e+08
2.288472e+10 5.139493e+10 -3.005869e+08
2.626030e+10 5.098152e+10 -1.091598e+09
6.219265e+08 5.420314e+10 -1.012489e+08
-4.406562e+10 -3.107754e+10 1.649240e+09
-4.243924e+10 -3.383045e+10 -1.150048e+09
2.616415e+10 -4.684253e+10 -6.120846e+08
4.120299e+10 -3.274366e+10 9.460577e+08
-3.930143e+10 -4.076109e+10 8.252977e+07
5.245925e+10 -8.323081e+09 4.209257e+08
6.046740e+09 5.289340e+10 -5.997146e+08
-2.367909e+10 -4.963422e+10 2.644250e+08
-2.449595e+10 -4.759596e+10 -6.561508e+08
4.687832e+10 -3.111077e+10 4.734261e+07
3.695081e+10 -4.244979e+10 1.137433e+09
3.306475e+10 -4.716111e+10 3.319562e+08
3.360268e+10 -4.445430e+10 2.656132e+08
2.115479e+10 5.061677e+10 -5.610412e+08
4.067927e+10 -3.147240e+10 2.009034e+08
2.131381e+10 5.053861e+10 1.036212e+09
4.976207e+10 -3.038618e+10 7.674110e+08
3.282289e+10 -4.375008e+10 -4.610649e+08
3.490265e+10 -4.201417e+10 4.746664e+08
3.207530e+10 -4.858992e+10 2.969448e+08
-3.447254e+09 5.433656e+10 2.054316e+08
-3.209085e+10 -4.592696e+10 -6.525773e+07
-2.923405e+10 -4.600233e+10 -1.028814e+09
-4.552987e+10 -3.203930e+10 -9.705443e+08
1.499013e+10 -5.184992e+10 4.040833e+08
4.092214e+10 -3.188744e+10 5.460762e+08
-6.419630e+09 -5.619399e+10 5.274138e+08
4.552884e+10 -3.017041e+10 -8.483759e+08
4.554616e+10 -2.973270e+10 5.014048e+08
-5.248752e+10 -1.708133e+10 7.680840e+08
2.941706e+09 -5.822463e+10 2.686240e+08
-5.384348e+10 -1.888202e+10 1.170860e+08
-3.325260e+10 -4.553354e+10 2.142258e+08
3.063957e+10 4.888896e+10 1.000269e+08
-3.574937e+10 -4.569522e+10 -9.727284e+07
-5.192613e+10 -2.107944e+10 -3.792962e+08
4.101627e+10 -3.247340e+10 9.825592e+07
-2.150113e+10 5.265462e+10 -2.574277e+07
-1.867164e+10 5.181382e+10 -8.602225e+08
1.429317e+10 5.392298e+10 -4.183302e+08
5.131044e+10 -1.675596e+10 4.584784e+08
1.704814e+10 -5.356925e+10 -4.115230e+08
2.994609e+10 -4.813559e+10 2.442215e+08
-4.584936e+10 -3.590644e+10 -1.303880e+08
-4.504679e+10 -3.440026e+10 -1.985644e+08
2.249054e+10 -5.024285e+10 -1.920621e+08
4.081403e+10 -4.074652e+10 -4.609246e+08
4.147467e+10 -3.096030e+10 5.047676e+08
4.025128e+10 -4.212029e+10 -9.150769e+08
-4.235009e+10 -3.584398e+10 -8.179172e+08
2.285548e+10 -4.953450e+10 -3.282841e+08
-2.177511e+10 4.954373e+10 6.820512e+08
3.087973e+10 -4.670793e+10 6.099802e+08
2.778173e+10 -4.719071e+10 7.667023e+08
4.748768e+10 -2.657652e+10 6.328592e+08
5.055838e+10 -2.031931e+10 -9.482508e+08
5.075233e+10 -2.212384e+10 -3.076564e+08
5.070891e+10 -1.711382e+10 -2.416896e+09
4.343214e+10 -3.086206e+10 7.482145e+08
-1.497194e+10 -5.265576e+10 -3.134720e+07
9.779334e+09 -5.499915e+10 5.605952e+08
4.328703e+10 -3.517576e+10 6.620823e+08
-1.174830e+10 -5.708678e+10 6.860657e+07
-9.353430e+09 -5.650103e+10 2.417797e+07
1.605163e+10 5.175192e+10 2.913161e+08
1.657157e+10 5.407335e+10 8.445516e+07
1.398064e+10 5.377252e+10 -1.404834e+09
-1.453870e+10 5.247642e+10 -3.415787e+08
-1.495411e+10 5.471078e+10 2.332533e+08
4.234030e+10 -2.947792e+10 -3.883370e+08
4.861961e+10 -2.502106e+10 -4.728874e+08
-4.669576e+10 -2.784754e+10 -7.302919e+08
-5.968424e+10 -1.752127e+10 1.242714e+09
4.616702e+10 -3.562178e+10 7.252938e+08
4.371153e+10 -3.838497e+10 1.242618e+09
2.826573e+10 4.850941e+10 1.221102e+09
5.500551e+10 -6.698176e+09 -5.089122e+07
4.702620e+09 5.830097e+10 -5.988521e+07
5.780770e+10 -7.975257e+09 3.152984e+07
-9.373220e+09 5.592141e+10 -2.695783e+08
4.314485e+10 -2.977861e+10 1.566933e+07
-1.291705e+10 5.646065e+10 -5.410533e+08
-2.371412e+08 5.712622e+10 -8.850350e+08
1.222396e+10 -5.334188e+10 5.194027e+08
3.046370e+09 -5.689239e+10 -4.569876e+08
5.350194e+09 -5.410488e+10 -9.052419e+07
-3.788900e+08 5.364310e+10 4.533199e+08
3.495963e+10 -4.171321e+10 -7.924541e+08
-1.834619e+10 -5.362577e+10 -9.335026e+08
7.948378e+09 5.348805e+10 -3.339866e+08
5.314000e+10 -9.967070e+09 4.473860e+08
4.378277e+10 -2.767853e+10 -4.431560e+08
1.031576e+10 -5.715566e+10 -2.439775e+07
1.780634e+10 -5.313029e+10 -8.037610e+08
4.339220e+10 -3.905120e+10 -4.183063e+08
5.399895e+10 -1.710088e+10 -2.347713e+08
3.684027e+10 -4.124116e+10 -1.239655e+08
1.202643e+10 5.298324e+10 1.158751e+09
5.362925e+10 -1.474937e+10 3.354554e+08
2.980351e+10 4.614269e+10 -6.761943e+08
-3.333927e+10 -4.213881e+10 -8.840211e+08
5.651929e+10 -9.811088e+08 -9.849852e+08
4.306189e+10 -2.917546e+10 -2.937606e+08
2.986969e+10 4.644315e+10 2.630115e+08
3.048240e+10 4.756495e+10 -3.759839e+07
4.926831e+10 -2.765656e+10 4.114435e+08
-2.499911e+10 -4.921568e+10 -1.881165e+09
-2.461522e+10 -5.284536e+10 -1.130232e+09
-2.236661e+10 -5.382753e+10 -2.886143e+08
-4.865388e+10 -2.953019e+10 -1.937367e+08
-1.055525e+10 5.360972e+10 9.765395e+08
-9.448206e+09 -5.325133e+10 -4.226016e+08
-2.047365e+10 -5.707817e+10 9.005171e+07
4.481259e+10 -3.016594e+10 -4.088534e+08
1.077914e+10 -5.482216e+10 6.674026e+07
8.971361e+09 5.534891e+10 1.199611e+09
5.433690e+10 -1.105845e+10 -1.178906e+09
2.700856e+09 5.525824e+10 -6.638875e+08
3.987965e+10 -3.912981e+10 -2.550650e+07
5.198970e+10 -1.854228e+10 7.639052e+08
1.972456e+10 5.130863e+10 -2.400170e+09
-2.256011e+10 5.384529e+10 2.161749e+08
-2.526807e+10 -4.785133e+10 -9.227206e+07
-2.111564e+10 5.122814e+10 -3.359066e+07
4.402331e+10 -2.703291e+10 4.251841e+08
-3.261102e+10 -4.464454e+10 5.089476e+08
-3.039091e+10 -4.635430e+10 1.482811e+09
-2.993070e+10 -4.588425e+10 7.097611e+08
2.871088e+10 4.942126e+10 1.163234e+09
5.196945e+10 1.633963e+10 3.022156e+08
5.308457e+10 6.147535e+09 -3.070873e+08
5.501858e+10 5.090780e+09 -3.642019e+08
-1.503011e+10 5.392929e+10 1.174191e+08
1.672750e+10 5.418356e+10 5.748433e+07
4.872282e+10 2.415071e+10 -7.720409e+07
4.464770e+10 -2.794460e+10 4.810922e+08
3.203296e+10 4.462791e+10 -4.800264e+07
5.395225e+10 4.752467e+09 -2.761730e+08
7.152358e+09 -5.414798e+10 4.810605e+08
2.815960e+10 -5.094074e+10 1.982930e+08
-2.810903e+10 5.076095e+10 5.591914e+08
-2.797007e+10 5.296110e+10 -7.651620e+08
5.797050e+09 5.336342e+10 -4.216301e+07
5.355393e+10 -6.992454e+09 4.686241e+08
-1.557372e+10 -5.201932e+10 -8.367516e+07
-2.743298e+10 4.845068e+10 -1.314318e+08
4.549646e+10 -2.727974e+10 2.275921e+08
-5.067688e+10 -2.101107e+10 6.061516e+08
-4.120887e+10 -3.387967e+10 5.556219e+08
2.745379e+10 -4.823443e+10 -2.268101e+08
-2.018367e+10 -4.903082e+10 -1.943492e+08
2.948270e+10 4.517339e+10 -1.742083e+09
2.322147e+10 4.861207e+10 -1.577894e+08
3.138256e+10 4.363336e+10 -6.525627e+08
3.204193e+10 -4.305886e+10 3.173568e+08
3.557473e+10 -3.927008e+10 8.661842e+07
1.961445e+10 -5.453729e+10 1.192725e+08
4.576940e+10 -2.542367e+10 -3.976611e+07
-3.282154e+10 -4.330869e+10 -4.174401e+08
-1.679425e+10 -5.768302e+10 -7.388768e+08
1.513354e+10 -5.641887e+10 -5.427776e+08
-2.066882e+10 5.465633e+10 -6.958590e+08
-5.156197e+10 -2.717072e+10 -5.488113e+08
3.495604e+10 -4.687336e+10 3.051447e+08
3.636633e+10 -4.494200e+10 -6.997399e+08
1.908283e+10 -5.223097e+10 1.064678e+08
1.091953e+10 5.256249e+10 -1.594114e+09
5.285308e+10 -1.321972e+10 5.515182e+08
4.573575e+10 -2.495980e+10 -4.200571e+08
5.251982e+10 -2.571785e+10 -1.726821e+08
5.155354e+10 -2.607259e+10 3.511033e+08
7.181307e+09 -5.881172e+10 6.505026e+08
2.162426e+10 -4.943465e+10 4.685424e+08
-5.218843e+10 -1.369178e+10 -1.118433e+09
-5.311769e+10 -2.288368e+10 -1.597479e+08
-2.695401e+10 -5.095609e+10 -9.911225e+08
2.074670e+09 -5.752320e+10 4.418866e+08
2.300603e+10 -5.275632e+10 -3.360935e+08
5.556814e+10 5.328683e+09 -5.124703e+08
4.482010e+10 -2.542593e+10 7.192783e+08
-2.864405e+08 5.711470e+10 1.589796e+08
-2.600754e+10 4.702677e+10 2.118093e+08
1.831290e+10 -5.054013e+10 -7.583138e+08
-7.567104e+09 5.741700e+10 6.382287e+08
-3.061501e+10 -4.898632e+10 -1.797818e+09
-3.567628e+10 -4.039472e+10 -4.295845e+08
-4.830021e+10 -2.425191e+10 -7.308730e+08
-2.874137e+10 -5.080974e+10 5.259373e+08
-4.161098e+10 -3.978017e+10 -2.741491e+08
-4.889430e+09 -5.300861e+10 -2.776628e+08
4.475770e+10 -2.466724e+10 5.030689e+08
-4.593678e+10 -3.528467e+10 -3.325710e+08
5.097716e+10 -1.878864e+10 3.095965e+08
-4.616071e+10 -3.392492e+10 -5.268491e+08
2.481916e+10 4.703099e+10 4.368776e+08
-5.646092e+10 -1.200106e+10 -1.053317e+08
-5.631089e+10 -1.609760e+10 -6.093026e+08
-3.436029e+10 4.951242e+10 -1.522445e+08
-5.767829e+10 -8.038718e+09 4.162782e+08
-5.761858e+10 -4.584137e+09 -2.466089e+08
-5.549070e+10 1.075301e+10 5.088987e+08
4.742444e+10 -2.512716e+10 -7.506173e+07
-5.030941e+10 2.800461e+10 -1.023185e+08
-3.736488e+10 4.204171e+10 6.208966e+08
-3.588925e+10 4.516301e+10 -1.091538e+08
-5.593268e+10 2.239875e+10 3.950590e+08
-5.111314e+10 2.480815e+10 3.598372e+08
-5.528948e+10 1.820465e+10 4.075536e+08
-4.298485e+10 3.716793e+10 3.987335e+08
-6.017667e+10 -8.153027e+08 1.896624e+08
-4.847388e+10 3.128949e+10 -1.023844e+08
-5.973697e+10 7.014955e+09 1.703402e+08
4.672261e+10 -2.345287e+10 2.121742e+08
-5.593863e+10 1.412130e+10 -5.397158e+07
-5.672544e+10 3.401771e+09 2.167228e+08
-4.353150e+10 4.201490e+10 3.955001e+08
-4.861853e+10 3.598785e+10 3.871880e+08
-1.112670e+10 -5.392233e+10 -1.290756e+08
-1.248323e+10 5.187906e+10 -4.389329e+08
-3.465384e+10 -4.290287e+10 -4.717407e+08
4.356768e+10 -3.226787e+10 4.377274e+08
-1.629717e+09 -5.631461e+10 4.510609e+08
5.373403e+10 3.508857e+08 -2.512886e+08
4.749005e+10 -2.404176e+10 -1.565859e+08
-1.184366e+10 -5.553198e+10 -9.801113e+08
3.240680e+10 4.271399e+10 -5.784930e+08
-5.136788e+10 -2.864404e+10 4.666249e+08
-5.374120e+10 -2.806172e+10 1.361247e+08
-2.370299e+10 5.265629e+10 2.990841e+08
7.616113e+09 -5.362853e+10 6.178240e+08
-2.901464e+10 5.099938e+10 7.307688e+08
4.526557e+10 -3.639407e+10 1.137839e+08
4.489136e+10 2.999629e+10 -9.455469e+08
3.711834e+10 3.859389e+10 3.790333e+08
4.682072e+10 -2.183549e+10 -2.924236e+08
4.780136e+10 2.843583e+10 7.857679e+08
3.957482e+10 3.921783e+10 -6.661350e+08
3.413431e+10 4.200246e+10 1.175437e+09
4.530984e+10 3.257510e+10 -6.713133e+08
5.107411e+10 2.162395e+10 8.087471e+07
5.266612e+10 1.181340e+10 5.122739e+08
4.132035e+10 3.497945e+10 -3.722333e+08
4.827101e+10 2.586259e+10 3.666702e+08
4.951259e+10 2.201149e+10 7.617358e+08
5.275168e+10 1.420438e+10 -6.381887e+07
4.620190e+10 -2.205894e+10 -3.898587e+08
-1.742407e+10 5.456465e+10 -1.107414e+09
1.922196e+10 5.454209e+10 1.466706e+09
2.753688e+10 -4.549970e+10 4.249514e+08
-4.508604e+09 -5.339629e+10 -6.354223e+08
-3.618749e+10 -4.189900e+10 -2.158929e+08
-4.996835e+10 -2.029107e+10 -3.552066e+08
-1.972118e+09 -5.794495e+10 -5.560943e+08
-5.452292e+10 -7.483035e+09 5.057399e+08
-5.455914e+10 -8.922951e+09 -7.451996e+08
-5.341948e+10 1.361195e+10 4.818670e+08
4.683167e+10 -2.149772e+10 5.455123e+08
-5.410261e+10 1.219704e+10 -9.788152e+08
-5.509049e+10 -5.595919e+08 4.770232e+08
-5.527144e+10 -1.755403e+09 -7.492365e+08
-5.224196e+10 1.725811e+10 4.869151e+08
-5.294135e+10 1.605843e+10 -7.390107e+08
-4.798750e+10 2.697688e+10 5.081683e+08
-4.881366e+10 2.557304e+10 -9.229211e+08
-3.126051e+10 4.538124e+10 4.606454e+08
-3.229613e+10 4.484206e+10 -7.443557e+08
-5.465312e+10 6.644362e+09 5.419076e+08
4.835891e+10 -2.098215e+10 2.109918e+08
-5.490008e+10 5.030415e+09 -9.355009e+08
-4.233114e+10 3.448385e+10 -3.276183e+07
-4.165700e+10 3.591037e+10 5.087766e+08
-3.414401e+10 4.328869e+10 4.977584e+08
-3.584044e+10 4.286784e+10 -1.032488e+09
-5.784167e+10 3.282647e+09 3.446915e+08
-5.429834e+10 3.931349e+09 1.174263e+09
-5.027061e+10 1.986979e+10 1.298559e+09
-5.447002e+10 2.005199e+10 -3.793585e+08
-3.943289e+10 3.843185e+10 5.223629e+08
4.763718e+10 -2.053586e+10 3.559224e+07
-4.057255e+10 3.729514e+10 -9.245125e+08
-3.750145e+10 3.962035e+10 -5.566764e+07
-3.632104e+10 4.090098e+10 4.324105e+08
-4.422963e+10 3.297985e+10 4.703231e+08
-4.495411e+10 3.213729e+10 -7.437474e+08
-5.690276e+10 1.081523e+10 3.534276e+08
-5.336410e+10 1.098334e+10 1.176337e+09
-5.014239e+10 2.306487e+10 -1.207624e+07
-4.963245e+10 2.419572e+10 5.350576e+08
-4.620709e+10 2.999598e+10 4.401331e+08
4.746248e+10 -2.016874e+10 -1.368635e+08
-4.695802e+10 2.918813e+10 -7.456964e+08
-2.884044e+10 4.757973e+10 -5.597641e+08
-5.441490e+10 -4.108783e+09 1.273245e+09
-5.791203e+10 -5.843303e+09 -4.007040e+08
-5.447832e+10 -1.145369e+10 3.677597e+08
-5.617617e+10 -1.396819e+10 4.212697e+07
5.456917e+10 2.517599e+09 -1.184926e+09
-1.310692e+10 5.212891e+10 3.831287e+08
3.487276e+10 4.863688e+10 -2.350167e+08
5.411452e+10 9.196776e+09 1.070858e+09
4.886204e+10 -2.091943e+10 2.588385e+08
5.075464e+10 1.861306e+10 4.048301e+08
5.425936e+10 6.638549e+09 -1.394319e+09
-3.893701e+10 -4.471641e+10 -1.790656e+08
5.425670e+10 -6.429727e+09 6.866055e+08
2.312717e+09 5.419338e+10 -9.062192e+08
3.196298e+09 5.488886e+10 -3.339558e+08
1.757180e+10 -5.418798e+10 1.212987e+08
5.715718e+10 -3.234888e+09 -1.053298e+08
1.454664e+10 5.544173e+10 6.906501e+08
-5.560242e+10 -1.060829e+10 4.803931e+08
4.886833e+10 -1.870503e+10 -2.676434e+08
-3.155157e+10 4.755993e+10 3.609846e+08
-5.745795e+10 -3.603598e+09 -4.576290e+08
-5.406344e+10 1.873080e+10 6.061729e+08
-5.340273e+10 2.218356e+10 -3.914264e+08
-4.888734e+10 2.858434e+10 5.771936e+08
-3.428116e+10 4.506639e+10 5.889963e+08
-3.726398e+10 4.348650e+10 1.466422e+09
-5.632956e+10 1.171778e+10 3.353058e+08
-5.064325e+10 2.572805e+10 1.541604e+09
-5.710094e+10 3.931845e+08 3.990752e+08
4.840902e+10 -1.909820e+10 -7.175416e+08
-5.649101e+10 7.813911e+09 4.415418e+08
-4.234188e+10 3.797272e+10 1.609267e+09
-3.995362e+10 4.031983e+10 5.263342e+08
-4.487493e+10 3.477555e+10 4.965816e+08
-4.697420e+10 3.174401e+10 5.968495e+08
-5.441340e+10 1.495051e+10 5.650029e+08
-5.733205e+10 4.232787e+09 3.613636e+08
-5.680729e+10 -7.023278e+09 5.917974e+08
-5.653811e+10 -1.668511e+10 3.824255e+08
1.000786e+10 -5.640259e+10 1.023188e+09
5.022550e+10 -1.729500e+10 -3.714856e+08
3.290445e+10 -4.833812e+10 2.585566e+08
-1.173991e+10 5.556346e+10 8.108568e+08
-5.761782e+09 -5.882039e+10 -8.027074e+08
-3.307111e+09 -5.697145e+10 1.015791e+09
-4.029103e+10 -4.181288e+10 7.797739e+08
-5.305095e+09 5.278534e+10 1.490446e+09
-6.766431e+09 5.308385e+10 -8.618517e+07
3.235509e+10 4.792152e+10 -4.067061e+08
-4.043536e+10 -3.724639e+10 -4.303721e+08
-3.941441e+10 -3.707577e+10 -3.030865e+08
4.937928e+10 -1.743971e+10 1.735114e+08
-2.441561e+10 -5.120148e+10 -1.370963e+08
-3.742470e+10 -4.316992e+10 -1.718677e+09
-6.403727e+09 -5.232023e+10 1.397820e+08
1.403162e+10 -5.689718e+10 -5.867361e+08
-1.446457e+10 -5.765706e+10 8.890320e+08
5.000068e+10 -2.126176e+10 3.482429e+07
5.940790e+10 -1.939761e+09 -1.319105e+08
2.314199e+10 4.854917e+10 -5.377080e+07
-4.931653e+10 -2.137528e+10 8.699494e+08
-1.955651e+10 -5.714255e+10 4.626726e+08
4.893240e+10 -1.710447e+10 6.327324e+07
-4.402306e+10 -3.164244e+10 5.198080e+08
3.038466e+10 4.509623e+10 -1.038647e+09
2.761222e+09 -5.653920e+10 1.162280e+09
-1.665610e+10 -5.424513e+10 -9.411467e+08
3.027889e+10 -4.658411e+10 1.541610e+08
-3.381396e+10 -4.466372e+10 -2.893445e+08
5.556967e+09 -5.510628e+10 4.501322e+08
2.591808e+10 -5.115744e+10 -7.276164e+07
3.306504e+09 -5.488697e+10 2.205081e+09
5.959570e+10 -1.706179e+09 -3.477050e+08
4.856595e+10 -1.661310e+10 -4.772743e+07
-2.463036e+10 4.809069e+10 1.418868e+09
-4.431189e+10 -3.952222e+10 -1.677529e+08
-2.077195e+09 5.696077e+10 2.920703e+08
4.969385e+10 -2.207114e+10 -2.284074e+08
5.415488e+10 -3.056424e+09 4.194778e+08
2.290659e+10 -5.353776e+10 -8.638662e+08
5.617425e+10 -1.536345e+10 -2.135113e+08
1.325222e+10 5.653477e+10 1.970652e+08
4.040095e+10 -3.545341e+10 4.250117e+08
-5.228210e+10 -2.201292e+10 -4.565550e+06
4.925675e+10 -1.554707e+10 -2.891713e+07
-2.858763e+10 -4.595799e+10 -1.262672e+09
-1.988812e+10 5.457477e+10 1.128892e+09
-4.292873e+10 -3.886033e+10 9.601996e+08
4.020592e+10 -4.302413e+10 -2.949220e+08
-5.900255e+09 5.974831e+10 -5.033391e+08
4.839120e+10 -2.308352e+10 -5.101557e+08
-4.519803e+10 -3.000375e+10 -9.242370e+08
2.279060e+10 4.946013e+10 7.833820e+08
2.322634e+10 4.787344e+10 9.128817e+07
2.187635e+10 4.903741e+10 -8.968638e+06
5.040821e+10 -1.669534e+10 -6.964716e+07
5.042743e+10 3.204397e+10 3.573381e+08
4.196179e+10 4.257708e+10 2.012515e+08
3.573465e+10 4.627822e+10 -2.812232e+08
4.821634e+10 3.482282e+10 2.600207e+08
4.176875e+10 4.563459e+10 -5.794047e+08
5.527568e+10 2.443557e+10 -2.110561e+09
5.878829e+10 1.534787e+10 7.729532e+08
4.552356e+10 4.006951e+10 8.371353e+08
5.232961e+10 2.990701e+10 -2.427589e+08
4.502721e+10 3.685224e+10 8.876174e+08
5.009770e+10 -1.396915e+10 -9.668525e+08
5.875655e+10 1.099187e+10 1.635088e+08
5.340665e+10 1.812613e+10 -2.057795e+08
4.274439e+10 -4.000217e+10 2.250678e+08
5.464101e+10 -2.051231e+10 -1.420872e+08
5.856651e+10 1.018479e+09 4.945587e+08
3.327806e+10 4.817770e+10 4.000839e+07
-4.056836e+09 -5.752503e+10 1.165694e+08
5.409251e+10 -2.645993e+09 -3.496140e+08
-5.391583e+10 -1.767252e+10 -6.297812e+08
4.930742e+10 -3.257570e+10 -6.723480e+08
4.991248e+10 -1.358411e+10 -5.218269e+07
-2.975334e+10 4.873382e+10 1.029104e+09
1.522081e+10 -5.196576e+10 -1.817679e+08
-1.757766e+10 -4.964304e+10 1.940923e+09
-6.873011e+08 5.990640e+10 -1.327673e+09
5.430982e+10 -1.932141e+10 -3.887875e+08
2.676338e+10 4.503764e+10 -1.821108e+07
7.500903e+08 5.376650e+10 -1.010474e+09
-2.714923e+10 4.813130e+10 4.267623e+08
4.036224e+10 -3.736622e+10 1.045688e+08
-4.574788e+10 -2.739340e+10 -1.183120e+09
4.992975e+10 -1.411967e+10 9.206048e+08
-2.783317e+10 4.728617e+10 1.019490e+09
3.648829e+10 -3.917143e+10 5.999554e+08
-3.097984e+10 4.415136e+10 8.350891e+07
-5.165814e+10 -1.327893e+10 2.217997e+08
-5.360565e+10 6.067400e+09 1.396009e+07
-5.127727e+10 1.626900e+10 5.794133e+07
-4.549611e+10 2.675747e+10 2.404917e+08
-5.363814e+10 1.073433e+10 2.812706e+08
-5.392336e+10 -1.089632e+09 9.983520e+07
-4.861386e+10 2.082284e+10 1.614065e+08
5.124542e+10 -1.360270e+10 -6.012182e+08
-4.348187e+10 3.186743e+10 9.569725e+07
-3.669629e+10 4.015055e+10 3.954925e+07
-4.154227e+10 3.487800e+10 1.077096e+08
-5.074546e+10 -1.860715e+10 6.501095e+08
-3.930071e+10 3.503853e+10 2.100977e+08
-5.467053e+10 -5.420153e+09 3.661550e+08
-5.356326e+10 -6.590318e+09 2.336525e+08
-5.226597e+10 -1.135776e+10 -6.884226e+07
-3.589386e+10 4.099412e+10 2.633190e+08
-5.246350e+10 3.985518e+09 2.096702e+08
5.022522e+10 -1.193267e+10 -3.415737e+08
-3.890712e+10 3.733117e+10 2.339417e+07
-5.073241e+10 1.402721e+10 2.682548e+08
-5.007564e+10 -1.558849e+10 9.912121e+08
-3.187696e+10 4.191796e+10 3.012478e+08
-4.726440e+10 2.600842e+10 3.036855e+07
-5.151896e+10 1.912245e+10 4.349763e+08