# vtk DataFile Version 2.0
Electric current density generated by TTH
ASCII
DATASET UNSTRUCTURED_GRID
POINTS 3231 double
-1.221286e-05 2.724305e-05 -2.981000e-22
2.640134e-05 9.169259e-06 -1.002652e-06
-2.511307e-06 2.796467e-05 -1.080086e-06
-2.101907e-05 1.836774e-05 -9.779673e-07
-2.275654e-05 1.604294e-05 -9.214457e-07
2.557524e-05 -1.091547e-05 8.892404e-07
-2.087640e-05 -1.947024e-05 -1.213642e-06
2.818276e-05 -8.589257e-06 -8.953719e-07
-2.767562e-05 3.736680e-06 -9.874845e-07
-2.258370e-05 -1.887788e-05 9.203049e-07
-2.742464e-05 -4.123280e-07 -1.269264e-07
-1.290462e-05 2.692226e-05 -2.981000e-22
-2.949861e-05 3.274444e-07 -8.589823e-07
-8.848629e-06 2.685282e-05 1.161059e-06
2.246442e-05 1.901043e-05 9.254403e-07
-2.578037e-05 -1.117658e-05 1.091039e-06
-1.298216e-05 -2.463261e-05 -9.224648e-07
-1.870934e-05 -2.005390e-05 1.116140e-07
2.427144e-05 -1.287402e-05 3.562348e-07
2.352128e-05 1.565637e-05 -1.155352e-06
1.430198e-05 2.578175e-05 -8.761599e-07
-6.247236e-06 2.874800e-05 9.336403e-07
-1.358797e-05 2.658391e-05 -2.981000e-22
2.437066e-05 1.301660e-05 6.803023e-07
1.749040e-05 -2.241324e-05 1.199155e-06
2.824232e-05 -2.194183e-06 1.176743e-06
-1.951073e-05 -2.009636e-05 1.042135e-06
-5.931002e-06 2.686029e-05 4.498918e-07
-2.814450e-05 3.608241e-06 1.188256e-06
2.937412e-05 -2.587130e-06 -8.714446e-07
-2.173472e-05 1.752010e-05 -9.803058e-07
-2.298486e-05 1.641552e-05 1.151780e-06
-4.399172e-06 2.797464e-05 1.174328e-06
-1.426246e-05 2.622823e-05 -2.981000e-22
2.688914e-05 1.209478e-05 -8.751064e-07
-2.791781e-05 4.756869e-06 -1.174803e-06
2.328729e-05 1.452896e-05 2.541129e-07
-2.261609e-05 -1.607008e-05 8.257698e-07
-2.395927e-05 1.451115e-05 1.043079e-06
4.463183e-06 -2.916928e-05 8.505382e-07
1.212391e-06 2.820682e-05 1.147608e-06
-1.578288e-05 -2.487027e-05 9.017801e-07
2.520430e-05 1.301021e-05 -1.185821e-06
-1.512170e-06 2.754582e-05 -6.139346e-07
-1.492764e-05 2.585543e-05 -2.981000e-22
1.193927e-05 2.696890e-05 -8.658588e-07
2.312767e-05 -1.835016e-05 -8.355278e-07
1.092777e-05 -2.741554e-05 8.459806e-07
5.594964e-06 -2.733191e-05 9.666588e-07
2.906065e-05 4.970771e-06 -8.764109e-07
7.138998e-06 -2.860984e-05 8.721633e-07
2.864086e-05 7.109599e-06 -8.491770e-07
-2.481208e-05 -1.393764e-05 -1.203776e-06
2.306853e-05 -1.648961e-05 1.183927e-06
2.262280e-05 1.889343e-05 -8.841369e-07
-1.558308e-05 2.546576e-05 -2.981000e-22
1.954063e-05 2.202252e-05 -9.139427e-07
-1.746268e-05 2.114252e-05 -3.898065e-08
2.557260e-05 1.194864e-05 -1.145295e-06
2.841260e-05 2.350860e-06 1.210283e-06
2.833352e-05 4.342857e-06 1.216803e-06
6.798544e-06 2.656903e-05 9.791552e-08
2.535539e-05 -1.506610e-05 8.655988e-07
-2.426814e-05 1.304145e-05 -5.458195e-07
1.346613e-05 -2.464992e-05 1.085803e-06
2.262128e-05 -1.555503e-05 -2.778944e-07
-1.622836e-05 2.505949e-05 -2.981000e-22
-1.999590e-05 2.168370e-05 -8.633234e-07
-6.714268e-08 2.951402e-05 8.450398e-07
1.800991e-05 2.338424e-05 -8.433210e-07
1.062433e-05 -2.754003e-05 -8.406618e-07
-2.838347e-05 1.286697e-07 1.190193e-06
-1.823422e-05 -2.318957e-05 8.595273e-07
-2.811920e-05 -1.699359e-06 1.123641e-06
2.043388e-05 1.985433e-05 1.208153e-06
1.939333e-05 -2.227944e-05 -8.198909e-07
1.180196e-05 -2.574100e-05 1.174098e-06
-1.686305e-05 2.463686e-05 -2.981000e-22
-2.953023e-05 -1.131919e-06 8.039979e-07
9.444731e-07 2.743640e-05 -2.753048e-07
-2.657002e-05 6.810014e-06 -1.371571e-07
8.070759e-06 2.838182e-05 -8.523014e-07
2.612313e-05 1.033822e-05 -1.088860e-06
2.895722e-05 -5.227135e-06 9.283808e-07
-1.890255e-05 -2.145992e-05 1.216415e-06
-6.280491e-07 -2.813579e-05 -1.111703e-06
-2.176715e-06 -2.805305e-05 -1.109269e-06
-1.030806e-05 -2.619012e-05 -1.112976e-06
-1.748674e-05 2.419817e-05 -2.981000e-22
-1.892680e-05 2.069753e-05 -1.063630e-06
1.395755e-05 2.442095e-05 1.105084e-06
-1.169520e-05 2.707162e-05 8.694777e-07
2.555543e-05 -1.474580e-05 -8.548158e-07
2.725218e-05 -3.040259e-06 1.811530e-08
-2.944134e-05 -2.609683e-06 -7.984392e-07
-9.893374e-06 2.623469e-05 1.058889e-06
-2.614217e-05 1.066094e-05 -1.147446e-06
-1.737937e-05 -2.215932e-05 1.119910e-06
1.122316e-05 -2.590016e-05 -1.145611e-06
-1.809903e-05 2.374369e-05 -2.981000e-22
-2.821173e-05 -3.362877e-06 1.195779e-06
1.034593e-06 -2.825068e-05 1.159936e-06
2.733299e-05 1.102319e-05 8.865358e-07
1.689300e-05 -2.420329e-05 8.434413e-07
-1.076181e-05 2.527194e-05 3.343723e-07
-3.845829e-06 -2.805141e-05 1.173061e-06
-8.691480e-06 -2.699420e-05 1.184613e-06
-1.452712e-05 -2.376499e-05 -9.302701e-07
1.227317e-05 -2.520403e-05 -1.056207e-06
1.569029e-05 2.510715e-05 -7.371379e-07
-1.869951e-05 2.327372e-05 -2.981000e-22
-1.615318e-05 -2.278012e-05 -9.869237e-07
-2.905974e-05 5.094829e-06 8.564071e-07
2.752259e-05 1.108647e-06 5.348114e-07
2.265815e-05 -1.661715e-05 -1.090849e-06
-2.232421e-05 1.923884e-05 -8.881232e-07
-2.040462e-05 1.990482e-05 -1.209805e-06
-1.408164e-05 -2.459535e-05 -1.180295e-06
-2.148303e-05 -1.828111e-05 1.138711e-06
-2.006956e-05 -1.868690e-05 5.596761e-08
-2.064396e-05 -2.094655e-05 9.413054e-07
-1.928778e-05 2.278857e-05 -2.981000e-22
-1.966036e-05 -1.940823e-05 -6.762023e-07
-2.724625e-05 -4.693987e-06 -7.071770e-07
-2.570633e-05 1.443303e-05 8.780806e-07
-2.281019e-05 1.874916e-05 -8.316039e-07
7.785528e-06 2.729111e-05 -1.189364e-06
1.068651e-05 -2.628149e-05 1.187412e-06
-1.308888e-05 -2.646277e-05 -8.358988e-07
-1.699705e-05 -2.418330e-05 7.959260e-07
1.377671e-05 2.379497e-05 -4.187848e-07
1.091587e-05 2.531411e-05 5.785043e-07
-1.986348e-05 2.228855e-05 -2.981000e-22
-2.731922e-05 7.401994e-06 1.170368e-06
1.660521e-05 2.306001e-05 -1.196724e-06
2.936311e-05 2.916893e-06 8.516795e-07
2.783379e-05 1.000531e-05 -7.739980e-07
-2.815425e-05 -8.879167e-06 -8.376066e-07
-2.711881e-05 -4.389050e-06 3.472343e-07
-1.315855e-06 2.810769e-05 1.109766e-06
6.770022e-07 -2.817227e-05 -1.127709e-06
-1.848797e-05 2.025616e-05 -9.414022e-08
-3.532356e-06 -2.797853e-05 -1.135712e-06
-2.042622e-05 2.177400e-05 -2.981000e-22
-9.249156e-06 -2.664071e-05 -1.135702e-06
2.755300e-05 4.396533e-06 -9.688527e-07
2.459596e-05 -1.411990e-05 -1.185043e-06
-2.920610e-05 -4.224251e-06 8.492574e-07
-8.526174e-06 -2.824244e-05 -8.580292e-07
-4.897304e-06 -2.909740e-05 -8.526872e-07
1.915009e-06 -2.944269e-05 -8.544647e-07
-1.620083e-05 -2.213044e-05 1.164561e-07
2.038575e-05 -2.139118e-05 8.069511e-07
-1.656529e-05 2.220823e-05 -7.823376e-07
-2.097564e-05 2.124524e-05 -2.981000e-22
2.134477e-05 2.035802e-05 -8.628229e-07
-2.168224e-05 1.679919e-05 1.355304e-07
-2.743230e-05 3.034346e-06 6.345390e-07
-1.616577e-05 2.469315e-05 -8.450040e-07
2.056791e-05 -1.874337e-05 9.075150e-07
2.926188e-05 3.960103e-06 8.297077e-07
-1.517247e-05 -2.534499e-05 -8.180697e-07
1.458288e-06 2.952094e-05 7.982453e-07
1.455224e-05 2.324150e-05 -2.808672e-08
3.508683e-06 2.741910e-05 7.001855e-07
-2.151137e-05 2.070262e-05 -2.981000e-22
4.698694e-06 2.834395e-05 1.213559e-06
-9.813499e-06 2.576853e-05 -5.904762e-07
2.708573e-05 5.116905e-06 5.737334e-07
2.623968e-05 1.356232e-05 -8.202034e-07
-7.065577e-06 -2.778063e-05 1.216789e-06
-1.024134e-05 2.770654e-05 8.187192e-07
2.044500e-05 -2.135950e-05 -7.861353e-07
-8.178064e-07 -2.867664e-05 1.216053e-06
2.477115e-05 1.354980e-05 1.148308e-06
1.091041e-05 2.745424e-05 8.143237e-07
-2.203307e-05 2.014650e-05 -2.981000e-22
1.651386e-05 -2.312979e-05 1.197363e-06
-1.892016e-05 2.101067e-05 1.161327e-06
5.569045e-06 2.702561e-05 -6.243299e-07
2.648485e-06 2.940982e-05 -8.294906e-07
2.736780e-05 -1.985214e-06 -2.119923e-07
-1.096497e-05 2.599105e-05 -1.139016e-06
1.618679e-05 2.326202e-05 1.179894e-06
-2.776642e-05 1.010274e-05 -8.092807e-07
2.951568e-05 -9.110670e-07 8.285149e-07
-2.852092e-05 7.717264e-06 8.100446e-07
-2.254040e-05 1.957723e-05 -2.981000e-22
-1.705208e-05 -2.269879e-05 -1.191572e-06
4.135391e-06 -2.835182e-05 1.217009e-06
2.760793e-05 -6.056573e-06 1.158286e-06
-2.370714e-05 -1.457066e-05 9.071877e-07
8.988547e-06 2.666006e-05 -1.107988e-06
-2.270655e-05 1.712933e-05 -1.201323e-06
-1.914220e-05 2.246889e-05 8.416389e-07
-1.843854e-05 2.302925e-05 8.581100e-07
1.520650e-05 2.414553e-05 -1.212700e-06
-2.394173e-05 1.730164e-05 -8.184286e-07
-2.303302e-05 1.899519e-05 -2.981000e-22
-2.339021e-05 -1.575537e-05 1.136106e-06
-2.958860e-05 -1.108634e-06 -7.335648e-07
-2.564419e-05 -1.477803e-05 -7.489582e-07
2.582857e-05 -9.364363e-06 -3.540531e-07
-2.497735e-05 -1.167576e-05 5.861891e-07
-1.736814e-05 -2.386143e-05 -8.461229e-07
1.678299e-05 2.174957e-05 3.483700e-07
-1.865739e-06 2.946118e-05 -8.386686e-07
2.578747e-05 9.387428e-06 2.297339e-07
-2.743677e-05 6.737030e-07 -2.402026e-07
-2.351062e-05 1.840077e-05 -2.981000e-22
-1.322166e-05 -2.643368e-05 7.994283e-07
1.813840e-05 2.094818e-05 7.868969e-07
6.077958e-06 -2.681470e-05 -4.173525e-07
2.719422e-06 -2.939592e-05 8.373601e-07
-2.681198e-05 1.239475e-05 -8.191913e-07
2.043389e-05 2.134070e-05 8.106061e-07
-9.590772e-06 -2.637458e-05 1.073253e-06
2.121413e-05 1.744411e-05 3.245570e-07
-2.251383e-05 -1.565449e-05 -2.879291e-08
1.906909e-05 2.249627e-05 8.684560e-07
-2.397288e-05 1.779434e-05 -2.981000e-22
2.643183e-05 8.044353e-06 -6.800985e-07
6.291867e-06 2.707913e-05 8.829216e-07
-1.521837e-05 -2.292164e-05 4.654966e-07
-5.698464e-06 -2.896875e-05 8.347518e-07
-2.557841e-06 -2.941299e-05 8.346516e-07
-2.146406e-05 -1.707150e-05 -9.981442e-08
-2.401407e-05 -1.721589e-05 -8.088395e-07
9.286347e-06 2.684100e-05 1.193953e-06
1.576395e-05 -2.266506e-05 6.482259e-07
2.379879e-05 1.481767e-05 -1.056942e-06
-2.441951e-05 1.717630e-05 -2.981000e-22
-2.383967e-05 1.567946e-05 -1.212597e-06
-2.649566e-05 -8.409220e-06 -8.806626e-07
2.635903e-05 -1.340142e-05 -7.827313e-07
-1.138465e-05 2.513127e-05 -6.180097e-07
9.331715e-06 2.578442e-05 -4.311621e-09
-2.410323e-05 -1.709951e-05 8.031617e-07
1.725917e-05 -2.397457e-05 -8.164528e-07
2.668984e-05 -7.590783e-06 8.302846e-07
-1.040976e-05 -2.617671e-05 1.123682e-06
-1.679425e-05 -2.169134e-05 1.686339e-07
-2.485020e-05 1.654705e-05 -2.981000e-22
[...]
POINT_DATA 3231
VECTORS 10.000GHz_fone_imag double
2.330763e+10 1.026582e+10 5.266197e+08
1.082950e+10 -2.824743e+10 -8.761505e+08
3.083712e+10 1.171638e+09 9.910141e+08
2.055831e+10 2.118320e+10 -2.266312e+09
1.711364e+10 2.671149e+10 -1.534187e+09
-1.034768e+10 -2.758443e+10 4.738056e+08
-1.874325e+10 2.058212e+10 7.248200e+07
-7.912696e+09 -2.424827e+10 1.662127e+09
4.192164e+09 3.016123e+10 -1.192796e+09
-1.541778e+10 2.006714e+10 -2.416489e+08
-2.421388e+08 3.411091e+10 6.950706e+08
2.047274e+10 1.156907e+10 -2.870595e+08
7.802982e+08 2.210774e+10 -3.669498e+08
2.937802e+10 9.523635e+09 -6.700329e+08
1.606595e+10 -1.991374e+10 1.195659e+09
-1.279974e+10 2.794236e+10 -8.789811e+08
-2.670647e+10 1.453129e+10 4.667403e+08
-2.409479e+10 2.189389e+10 1.217604e+09
-1.429380e+10 -2.886452e+10 4.842457e+08
1.469170e+10 -2.484402e+10 -8.140591e+08
2.174892e+10 -1.352818e+10 -1.255180e+09
2.392475e+10 5.476527e+09 1.215345e+08
2.155550e+10 9.234120e+09 -6.409819e+08
1.567306e+10 -2.947317e+10 1.291052e+08
-2.243342e+10 -1.770269e+10 -1.070264e+09
-9.237350e+08 -3.022239e+10 -4.791497e+08
-2.235252e+10 2.197477e+10 1.390977e+07
3.215448e+10 6.325324e+09 6.153853e+08
3.567516e+09 3.087690e+10 7.607550e+08
-2.969855e+09 -2.554142e+10 -5.416090e+07
2.068817e+10 2.670721e+10 -6.673611e+08
1.679200e+10 2.591134e+10 9.750800e+08
2.882429e+10 5.228927e+09 -9.364010e+08
2.226811e+10 1.229841e+10 -1.465659e+08
9.189345e+09 -2.272909e+10 1.156524e+09
5.312397e+09 2.825227e+10 6.278621e+08
1.818707e+10 -2.817862e+10 1.050344e+09
-2.046571e+10 2.619753e+10 6.563662e+08
1.541109e+10 2.611029e+10 6.688494e+07
-2.485621e+10 -2.572066e+09 -6.823353e+08
2.910859e+10 4.880823e+08 -1.700566e+09
-2.160515e+10 1.246913e+10 -7.899079e+08
1.345115e+10 -2.572902e+10 -5.111414e+08
3.057398e+10 5.944423e+09 1.238111e+09
2.104377e+10 1.149230e+10 9.286044e+07
2.245643e+10 -9.174552e+09 1.169700e+09
-1.486634e+10 -1.891724e+10 -2.048075e+09
-2.254901e+10 -9.167675e+09 1.072607e+09
-3.038940e+10 -7.128789e+09 7.915308e+08
3.041309e+09 -2.482833e+10 1.107387e+08
-2.422938e+10 -6.785757e+09 -1.524823e+09
5.187136e+09 -2.334160e+10 -1.543035e+09
-1.388910e+10 2.556148e+10 -2.984639e+07
-1.718531e+10 -2.485054e+10 6.235343e+08
1.725537e+10 -2.078803e+10 1.905226e+08
2.146293e+10 1.291600e+10 -3.856062e+08
1.865244e+10 -1.700001e+10 -2.152834e+09
2.543010e+10 2.012675e+10 8.077659e+08
1.272199e+10 -2.685890e+10 -6.553462e+08
1.219694e+09 -3.124086e+10 -7.605808e+07
4.816179e+09 -2.717191e+10 3.150161e+08
3.279847e+10 -7.731879e+09 -8.515064e+08
-1.243861e+10 -2.092879e+10 -5.866377e+07
1.526000e+10 2.679667e+10 -2.140274e+07
-2.810932e+10 -1.515900e+10 -9.712618e+08
-1.674205e+10 -2.665025e+10 -7.292957e+08
1.977397e+10 1.310363e+10 6.636133e+08
1.927971e+10 1.936032e+10 1.223596e+09
2.347812e+10 -8.345595e+07 9.236918e+08
1.910833e+10 -1.576663e+10 -1.729718e+08
-2.236351e+10 -8.697266e+09 3.135167e+08
-9.715780e+08 3.794431e+10 -3.253265e+08
-2.002543e+10 1.413561e+10 7.775334e+08
-1.130103e+09 3.073993e+10 -6.881751e+08
2.117936e+10 -2.089139e+10 -2.958621e+08
-1.924923e+10 -1.631506e+10 -7.562975e+08
-2.669967e+10 -1.260163e+10 -1.490968e+09
1.996187e+10 1.295878e+10 9.361087e+07
-7.436236e+08 2.442366e+10 7.808091e+08
3.215842e+10 -1.155910e+09 -9.964321e+08
7.725777e+09 3.084846e+10 -6.229966e+08
2.462182e+10 -6.882417e+09 -1.205862e+08
1.075661e+10 -2.832896e+10 4.458864e+08
-4.869586e+09 -2.484332e+10 -3.431554e+08
-2.196792e+10 1.953946e+10 -9.689224e+08
-2.858700e+10 8.908662e+08 -2.941227e+08
-2.965946e+10 1.246509e+09 -3.253809e+08
-2.540917e+10 1.337147e+10 4.251185e+08
2.083447e+10 1.475235e+10 1.609991e+09
2.248667e+10 1.974393e+10 1.582281e+08
2.559933e+10 -1.625247e+10 4.977524e+08
2.325377e+10 1.036319e+10 3.797739e+08
-1.247519e+10 -2.380278e+10 1.007097e+09
-3.915399e+09 -3.267360e+10 -1.387561e+09
-2.248027e+09 2.391193e+10 -7.292860e+08
2.974668e+10 1.293457e+10 1.148734e+09
1.023786e+10 2.919189e+10 -6.114076e+08
-2.343718e+10 1.876565e+10 9.316390e+08
-2.725774e+10 -1.105985e+10 -1.026825e+09
1.796099e+10 1.380973e+10 8.282722e+07
-3.512678e+09 2.895382e+10 -1.035809e+08
-3.004070e+10 -1.106651e+09 -3.314027e+08
8.108246e+09 -2.243832e+10 3.312063e+08
-2.146160e+10 -1.497157e+10 -2.791952e+08
2.958339e+10 1.083236e+10 -1.670442e+08
-2.926641e+10 4.552532e+09 2.478518e+08
-2.807699e+10 9.617527e+09 1.740087e+09
-3.168665e+10 1.878773e+10 7.411809e+08
-2.854234e+10 -1.360127e+10 3.678897e+08
2.007755e+10 -1.267237e+10 -3.286261e+08
1.893722e+10 1.530163e+10 -3.924015e+08
-2.611795e+10 1.843667e+10 -3.346484e+07
4.912310e+09 2.446088e+10 7.016036e+08
3.609517e+08 -3.220086e+10 2.069395e+09
-1.720122e+10 -2.309052e+10 -8.854524e+07
1.756940e+10 2.055053e+10 7.163937e+08
2.049473e+10 2.076348e+10 -1.113665e+08
-2.597659e+10 1.630425e+10 -8.930986e+08
-1.906611e+10 2.253076e+10 3.059592e+08
-2.179211e+10 2.368564e+10 -3.922264e+07
-1.788034e+10 1.767740e+10 6.256688e+08
1.867008e+10 1.535682e+10 -2.699015e+07
-2.196671e+10 2.156785e+10 5.951979e+08
-4.686566e+09 3.023309e+10 -1.343383e+08
1.209006e+10 2.159057e+10 1.059987e+09
1.497568e+10 1.931074e+10 -6.257075e+07
2.902044e+10 -8.649445e+09 4.673590e+08
-2.707521e+10 -1.042926e+10 1.695044e+09
-2.392964e+10 1.187417e+10 6.541903e+08
-2.139082e+10 1.434597e+10 -1.568696e+08
2.852716e+10 -1.668126e+10 -8.428814e+07
2.977089e+10 -1.132294e+10 -4.302618e+08
1.920773e+10 1.652289e+10 1.427006e+09
6.258185e+09 2.802348e+10 2.355344e+08
2.280815e+10 -1.752770e+10 7.309556e+08
2.790328e+09 -2.445346e+10 5.582891e+08
7.574388e+09 -2.249951e+10 9.988705e+07
-6.939621e+09 2.409114e+10 -3.334839e+08
-5.191875e+09 3.133753e+10 3.924854e+08
2.922109e+10 1.108031e+09 4.206469e+08
-2.907262e+10 -4.472601e+08 -2.323342e+08
2.198311e+10 2.355372e+10 6.040272e+07
-2.894517e+10 3.600106e+09 5.549668e+08
1.752159e+10 1.641978e+10 3.333901e+08
-2.764406e+10 9.330018e+09 2.431236e+09
4.983351e+09 -2.967980e+10 -1.291969e+09
-1.556414e+10 -2.898573e+10 3.019188e+08
-3.673528e+09 2.491962e+10 2.374863e+07
-2.349869e+10 7.782419e+09 -2.785790e+08
-2.413991e+10 4.740906e+09 3.788194e+08
-2.782262e+10 -2.133665e+09 1.719332e+09
-2.711142e+10 1.953814e+10 -2.978130e+08
-1.707238e+10 -1.663748e+10 1.571577e+08
2.438955e+10 1.876522e+10 -8.181166e+08
1.732104e+10 1.707895e+10 1.007364e+09
1.713157e+10 -1.769418e+10 -9.454226e+08
1.968893e+10 2.621142e+10 2.892080e+08
4.038367e+09 3.337762e+10 -4.116379e+07
2.046842e+10 1.387753e+10 8.762899e+08
-2.047317e+10 -2.270330e+10 8.869628e+07
3.797906e+09 -2.501410e+10 3.235685e+08
-2.183707e+10 1.268842e+10 8.925809e+05
2.653072e+10 -1.571675e+09 2.250295e+08
2.848373e+10 -1.727001e+10 -5.791332e+08
3.024846e+10 -5.095130e+09 8.388795e+08
1.604422e+10 1.783455e+10 -2.891285e+08
2.617819e+10 -4.372418e+09 5.175679e+08
3.095199e+10 1.317930e+10 -1.012011e+09
6.325789e+09 -3.061701e+10 9.356664e+08
1.096176e+10 -2.188406e+10 -9.697882e+08
-2.669805e+10 6.806332e+09 -5.127136e+08
2.280974e+10 8.523397e+09 7.627313e+08
-1.778854e+10 -1.732302e+10 2.540963e+08
-2.764878e+10 3.028622e+08 -2.051199e+08
1.536332e+10 -2.741174e+10 2.445350e+08
2.420472e+10 -9.260865e+09 6.863819e+08
1.678531e+10 1.756353e+10 -1.043913e+09
-2.535280e+10 -1.737860e+10 5.796252e+08
2.123821e+10 2.026061e+10 3.514662e+08
3.030980e+10 -6.714634e+09 -2.438123e+06
2.441058e+10 -2.305697e+09 -1.706675e+08
-2.186927e+09 -3.227719e+10 -1.601886e+09
2.709271e+10 1.123567e+10 -1.353127e+09
2.315590e+10 -1.570519e+10 2.358213e+08
8.522189e+09 2.415532e+10 8.865111e+08
-1.497686e+09 -2.672000e+10 -2.300086e+08
6.304273e+09 2.424313e+10 2.105140e+08
1.574108e+10 1.840678e+10 -1.026832e+09
-2.265005e+10 1.687593e+10 6.131335e+08
-2.795420e+10 -5.295276e+09 -7.088958e+07
-6.731997e+09 -2.812102e+10 1.154134e+09
-1.841908e+10 2.880188e+10 1.603226e+08
2.897043e+10 -1.042105e+10 -7.451069e+07
1.772801e+10 2.361837e+10 1.059079e+09
1.807311e+10 1.622110e+10 -1.064219e+09
1.910715e+10 1.647264e+10 1.492971e+09
2.327199e+10 -1.478417e+10 -4.917306e+08
1.382834e+10 2.028266e+10 -6.356836e+08
1.455565e+10 1.833099e+10 1.908554e+08
-1.705728e+10 2.336359e+10 -1.273465e+09
-8.006006e+08 2.446037e+10 -8.915502e+08
-1.370030e+10 2.119943e+10 1.002340e+09
-1.038212e+10 -3.010697e+10 5.541688e+08
-1.363887e+10 3.080764e+10 6.917096e+08
-2.056969e+10 1.418984e+10 -3.588898e+08
2.490859e+10 -1.935663e+10 -1.311911e+09
2.617317e+10 1.721095e+09 -1.492793e+08
1.095921e+10 -2.963795e+10 2.049671e+07
9.494580e+08 3.367353e+10 1.617077e+09
1.452329e+10 1.821990e+10 1.289265e+09
-2.285809e+10 1.114077e+10 1.467851e+08
2.422852e+10 -2.194834e+10 -8.475163e+08
-3.371412e+10 -8.242581e+09 -2.526104e+08
-2.689149e+10 -3.164541e+09 1.417407e+09
1.079923e+10 2.239268e+10 2.299019e+08
1.897993e+10 -1.784441e+10 -3.504956e+07
-2.854374e+10 9.353772e+09 -4.967948e+08
2.009938e+10 -2.454667e+10 1.898160e+08
-1.833272e+10 2.735795e+10 -1.237206e+09
1.915251e+10 -1.661324e+10 -6.855137e+08
1.313087e+10 1.913100e+10 2.861857e+08
9.526616e+09 -3.098369e+10 -1.193670e+09
2.897822e+10 -7.592658e+09 4.888131e+07
-2.597663e+10 1.863500e+10 -3.482667e+08
-2.433281e+10 3.745813e+09 1.374379e+09
-2.505125e+10 1.873962e+09 -1.065101e+09
-2.090900e+10 2.660398e+10 1.680943e+09
-1.524905e+10 1.934859e+10 -9.306849e+08
2.754817e+10 -9.169207e+09 -3.103148e+08
-2.770847e+10 -1.836245e+10 3.764378e+08
1.693190e+10 -2.636944e+10 2.977062e+08
1.446595e+10 1.831604e+10 1.373165e+09
1.519581e+10 2.475867e+10 -3.188381e+08
-1.064271e+10 3.221404e+10 -5.650335e+08
-1.117980e+10 -2.151166e+10 5.270798e+08
2.909135e+10 1.407103e+10 6.851640e+08
3.061814e+10 -1.195252e+10 7.804226e+08
-1.487560e+10 2.132469e+10 -4.425202e+07
-2.018173e+10 -1.338117e+10 1.412068e+09
-7.690472e+09 -2.893178e+10 -8.052010e+08
-2.663542e+10 1.221514e+10 7.515155e+08
-2.837774e+10 2.293628e+10 -6.058665e+08
1.349639e+10 2.064358e+10 4.342612e+08
-1.387416e+10 2.090570e+10 1.066591e+09
-2.913666e+10 1.123742e+09 4.116150e+08
-2.094664e+10 -1.343017e+10 -5.777354e+08
6.584016e+09 -3.147377e+10 -8.247582e+08
2.172084e+10 1.119796e+10 -1.098807e+09
2.187015e+10 2.193888e+10 -7.884876e+08
4.928016e+09 2.361437e+10 -8.826155e+07
1.054163e+10 -2.266543e+10 -4.998468e+08
-1.496480e+10 2.426628e+10 -3.081647e+07
-3.383074e+10 2.766041e+09 2.863747e+08
1.255689e+10 2.027657e+10 -1.198320e+09
1.784211e+10 -2.419189e+10 1.104309e+09
-1.199546e+10 2.091590e+10 9.347186e+08
-2.759284e+09 -2.696640e+10 7.437693e+08
-1.014996e+10 2.707574e+10 -1.204736e+08
-3.175533e+10 -6.835692e+09 1.664474e+08
-1.585078e+10 -2.457621e+10 2.967326e+07
-2.242297e+10 -2.150775e+10 -2.987994e+08
-1.299822e+10 -2.016116e+10 2.422648e+08
1.365334e+10 2.659965e+10 -9.665258e+08
2.674881e+10 -2.398912e+10 -3.884679e+07
1.295750e+10 2.026688e+10 8.883389e+07
2.293571e+10 2.269209e+10 8.706602e+08
-2.217536e+10 -8.379963e+09 -1.853147e+09
-2.832859e+10 1.208417e+10 4.105040e+08
-3.164754e+10 -1.746713e+09 3.278576e+09
1.213622e+09 -2.775125e+10 1.036522e+08
-2.812784e+10 5.576904e+09 -9.569586e+07
-2.819685e+09 -2.396006e+10 -5.122042e+08
-2.991823e+09 3.254516e+10 -4.505751e+08
-1.710041e+10 2.750443e+10 -1.510703e+09
2.476236e+10 1.443947e+10 7.344202e+08
1.326763e+10 2.276949e+10 -9.756338e+08
1.028378e+10 2.168276e+10 9.027383e+08
3.043392e+10 1.512016e+10 -1.721715e+08
8.621115e+09 3.096667e+10 -5.728976e+08
3.133206e+10 7.200201e+09 4.631631e+08
1.449932e+10 2.310187e+10 -4.520886e+07
-1.641591e+10 1.906495e+10 1.839798e+08
3.770168e+07 2.804595e+10 -7.282827e+08
1.564143e+10 2.154502e+10 2.910595e+08
-1.355823e+10 2.047386e+10 1.108992e+09
-2.559298e+10 9.883143e+09 -4.726134e+08
8.796052e+09 2.192475e+10 -5.952422e+08
1.901861e+10 -2.448136e+10 -5.992232e+08
7.330550e+09 -2.503852e+10 9.681764e+07
-1.714556e+10 2.399023e+10 3.989911e+08
2.061016e+10 1.321388e+10 -1.346894e+09
-7.180180e+09 3.394253e+10 -1.222079e+09
-2.407245e+10 2.116396e+10 -6.753081e+08
1.266712e+10 -2.188133e+10 -1.096792e+08
-2.840755e+10 -1.725814e+10 -6.725003e+08
-2.435350e+10 2.007351e+10 1.519853e+09
-1.481259e+10 2.900021e+10 1.078727e+08
1.046551e+10 2.083406e+10 2.090249e+08
-2.558233e+10 1.424207e+10 -1.624716e+09
-2.576111e+10 -5.524888e+09 2.671499e+08
-1.152009e+10 2.233869e+10 -2.257264e+08
-8.570062e+09 2.363764e+10 5.122215e+08
2.078363e+10 -1.486927e+10 -4.886533e+08
-1.550036e+10 2.498485e+10 -2.114551e+09
-2.321292e+10 3.031056e+10 -3.923311e+09
-5.447243e+09 2.411206e+10 7.799223e+08
-4.124564e+09 -3.106797e+10 1.147102e+09
1.495915e+09 -2.619672e+10 -1.261318e+09
1.044942e+10 2.125877e+10 3.792600e+05
8.446624e+09 2.579224e+10 3.916242e+08
1.826139e+10 2.928657e+10 1.394313e+08
2.727653e+10 -1.833692e+10 -8.440364e+08
-2.819643e+10 -1.023988e+10 -1.603723e+09
2.507841e+10 1.217552e+10 9.569701e+06
1.507114e+10 -2.353855e+10 1.917241e+08
2.499324e+09 -3.142247e+10 -7.152497e+07
8.695924e+09 2.752514e+10 -3.719970e+08
-1.887031e+10 -2.285711e+10 2.808860e+08
2.428539e+10 1.614794e+10 -4.639532e+08
8.347496e+09 2.063954e+10 -5.041493e+06
1.115223e+10 -2.242214e+10 -5.767396e+08
2.132883e+10 -1.009302e+10 8.670934e+08
1.389616e+10 2.873346e+10 8.214860e+08
-2.161493e+10 -1.224236e+10 6.987747e+08
2.821575e+10 2.639542e+09 -3.350726e+08
1.796782e+10 -2.483937e+10 -5.841066e+08
2.622183e+10 1.300298e+10 -2.927777e+08
-9.166473e+09 2.297888e+10 6.135689e+08
2.073126e+09 3.062286e+10 -7.320069e+08
-2.409655e+10 2.047074e+10 3.727221e+08
8.972484e+09 2.127401e+10 -2.548376e+08
3.164056e+10 -2.797263e+09 1.070956e+09
1.209314e+09 2.879916e+10 2.773451e+08
-2.677267e+10 2.130597e+09 -1.445061e+09
2.718026e+10 8.207873e+09 -7.743347e+08
2.368916e+10 -2.610597e+10 5.011728e+08
2.060654e+10 1.983293e+10 8.102663e+08
2.000854e+10 -1.865878e+10 -9.292837e+08
2.530811e+10 -6.842650e+09 1.072906e+07
-1.914736e+09 3.082726e+10 -1.728192e+08
1.366400e+10 -2.934478e+10 -2.253160e+08
8.647093e+09 2.381645e+10 -8.289666e+07
-2.450602e+10 -6.711867e+09 1.286909e+09
3.762105e+09 -2.845082e+10 -2.221995e+08
-2.783882e+10 -1.716263e+10 6.935836e+08
2.866031e+10 -8.497337e+09 -7.667143e+08
-2.360007e+10 6.925495e+09 -3.817743e+08
-2.445128e+10 2.474884e+08 1.029820e+07
6.420159e+09 2.704837e+10 -1.672323e+08
-5.887969e+09 2.738200e+10 3.272960e+08
-1.404307e+10 -2.977658e+10 4.331640e+08
1.269562e+10 2.930708e+10 3.917630e+08
8.781970e+09 2.226850e+10 3.980664e+08
-2.911069e+10 -1.803757e+10 8.246927e+08
2.919648e+10 2.338024e+08 1.030961e+09
-2.912384e+10 -1.825410e+09 -2.147735e+09
3.569860e+10 2.933227e+08 2.135059e+09
2.827099e+10 7.638215e+09 7.453511e+08
-1.006239e+10 -3.511503e+10 -2.402499e+08
2.078456e+10 1.000941e+10 -1.193106e+09
-3.514150e+09 -2.576580e+10 1.743905e+08
-2.411022e+10 3.594159e+09 -5.146047e+08
-2.555980e+10 3.963719e+09 -3.253623e+07
6.531732e+09 2.285824e+10 3.583012e+08
-2.476497e+10 2.340499e+09 6.580016e+08
2.012447e+10 1.400298e+10 -2.199660e+09
1.373428e+10 2.567154e+10 4.006265e+08
-1.427632e+09 -4.833134e+10 -1.171910e+08
2.356769e+10 -8.547422e+09 -3.284976e+08
-2.210977e+10 -2.332050e+10 2.144665e+08
1.115723e+10 2.227497e+10 -3.814806e+08
-8.679418e+09 -2.571935e+10 -1.348853e+09
2.951975e+10 1.137191e+10 2.921540e+08
-1.220677e+10 2.512943e+10 1.234621e+09
6.348889e+09 2.255532e+10 5.799340e+08
-2.774547e+10 -1.330869e+10 -7.197009e+08
2.680308e+10 1.754247e+10 1.073483e+09
3.565673e+09 3.179160e+10 1.399063e+08
7.898583e+09 -2.982170e+10 9.111583e+08
-2.611537e+10 -6.873766e+08 5.611072e+08
-4.803317e+09 -2.930965e+10 -2.226450e+09
2.427308e+10 -5.835465e+09 8.549921e+08
3.377455e+10 7.683468e+08 2.592212e+08
-2.137977e+10 1.085867e+10 3.689042e+08
-1.781694e+10 -2.306415e+10 1.323000e+09
7.501574e+09 2.268117e+10 -1.276582e+08
-2.491432e+10 -2.097616e+10 -1.818910e+08
-2.356032e+10 -2.460434e+10 4.266691e+08
2.040105e+10 -1.342707e+10 -8.258380e+08
-2.516614e+10 -4.513037e+09 5.138283e+08
3.100439e+10 5.129995e+09 3.966368e+08
-2.187030e+10 -1.090953e+10 4.986832e+08
-2.146651e+10 -1.697333e+10 -9.905160e+08
-1.656441e+10 -2.674908e+10 3.921930e+08
-2.353342e+10 1.475403e+10 -1.855866e+08
8.781788e+09 -2.604759e+10 -1.812511e+08
5.115991e+09 2.413697e+10 -8.170697e+08
4.665751e+08 2.520051e+10 5.323209e+08
2.188322e+10 -1.855602e+10 2.172316e+08
-1.593240e+10 -2.123808e+10 5.737528e+08
-1.569276e+10 -2.486949e+10 1.762910e+08
-6.296219e+09 -3.141063e+10 9.242578e+08
1.914719e+10 -2.029068e+10 -1.517577e+08
-2.447565e+10 -8.136572e+09 -1.044698e+09
-2.384351e+10 -4.061276e+09 3.744989e+08
1.459634e+10 2.101167e+10 2.988252e+08
-1.579323e+10 2.011080e+10 2.072461e+09
4.987069e+09 2.334018e+10 3.266028e+08
-2.049412e+10 -2.021733e+10 -7.383388e+08
3.254972e+10 2.648713e+09 1.471451e+08
-1.424597e+10 -2.415181e+10 4.492284e+08
2.527830e+10 -9.473229e+09 1.404241e+09
-2.361814e+10 -1.440683e+10 3.216402e+08
-8.703716e+08 -3.091631e+10 5.849016e+08
2.850849e+10 -2.427317e+09 -2.159439e+07
2.444152e+10 2.604097e+09 1.401354e+09
1.960126e+09 2.285305e+10 9.798769e+07
-2.228834e+10 -7.408854e+09 2.230019e+08
5.170724e+09 2.286907e+10 3.810349e+08
2.610938e+10 8.315108e+09 1.670103e+08
4.043600e+09 2.933312e+10 -4.328253e+08
-2.252680e+09 2.388292e+10 4.604716e+08
8.295268e+09 -2.907482e+10 -5.322369e+08
1.178926e+10 -2.138780e+10 -3.853778e+08
-7.194057e+09 -2.258223e+10 6.165260e+08
-9.338996e+09 -2.248272e+10 9.141947e+08
-2.761587e+10 -4.938909e+09 1.136099e+08
3.527405e+09 3.084381e+10 2.302715e+08
-3.458614e+10 -3.614215e+09 8.602602e+08
3.444723e+09 2.460433e+10 9.296506e+08
-3.119962e+10 -4.837176e+09 -4.652549e+08
-1.823309e+10 -1.485986e+10 1.682441e+08
-1.654175e+10 1.736942e+10 2.207215e+08
-1.465087e+10 1.839918e+10 -3.833000e+08
8.410461e+09 -2.713566e+10 2.831451e+08
-2.690823e+10 -5.642220e+09 4.076910e+08
-1.765878e+10 -2.017455e+10 4.286185e+08
1.459031e+10 1.834644e+10 9.811929e+08
-3.264297e+10 -3.081329e+08 7.401373e+08
-3.131205e+10 3.901664e+09 -8.244419e+07
1.873396e+09 2.293464e+10 -2.808291e+08
3.035056e+09 -2.462277e+10 5.360279e+08
-2.025791e+10 -2.608389e+10 2.406750e+09
-1.058966e+10 2.993888e+10 -7.132632e+08
2.462071e+10 1.827852e+10 -6.045389e+08
-7.455548e+09 3.156352e+10 -2.549576e+08
-3.323796e+10 1.265965e+10 -2.446896e+09
-3.090458e+10 7.800925e+09 -3.927185e+08
-3.123065e+10 6.635403e+09 1.196724e+08
5.304437e+09 2.888381e+10 5.064617e+08
2.238251e+10 1.278159e+10 9.483002e+08
3.401970e+09 2.376648e+10 -4.425809e+07
-2.317299e+10 1.091697e+10 -5.213180e+08
-2.133546e+10 -1.233990e+10 2.790789e+07
1.006886e+10 -2.647404e+10 6.605009e+08
2.807772e+10 1.555632e+10 -4.419507e+08
6.683824e+09 2.284269e+10 6.299400e+07
-2.661936e+10 -5.528342e+09 -8.887093e+07
-3.055967e+10 -1.586018e+10 -2.846285e+09
-2.494635e+10 3.554549e+09 -1.082268e+09
6.898938e+08 2.448786e+10 -7.084478e+08
-2.816113e+10 -8.165260e+09 -4.752956e+08
2.283516e+09 2.533012e+10 -1.429659e+09
-2.203849e+10 1.491076e+10 8.560726e+08
-1.075949e+10 -2.632413e+10 2.438084e+08
2.482682e+10 -3.834625e+09 1.141257e+07
-9.216608e+09 2.644340e+10 1.222696e+09
7.368102e+09 -2.509684e+10 -2.753154e+08
-1.129417e+10 2.760894e+10 5.149598e+08
1.310471e+10 3.026149e+10 3.139645e+08
1.348454e+10 -2.977846e+10 2.883263e+08
2.840242e+10 -1.335981e+10 -1.463114e+08
-7.344541e+09 -2.215443e+10 4.989416e+08
1.805209e+08 2.364421e+10 3.576344e+08
2.197663e+10 -1.162408e+10 1.200964e+07
2.697359e+10 5.672582e+09 -9.205297e+06
-2.327553e+10 6.592069e+09 -3.143875e+08
-1.007225e+10 -2.185546e+10 6.391515e+08
-1.605503e+10 -2.023276e+10 7.912531e+07
2.735920e+10 -1.267483e+10 1.320435e+08
7.018280e+09 2.402483e+10 5.971864e+08
-8.689141e+09 -2.736402e+10 1.355002e+08
8.922897e+09 3.080916e+10 -2.089944e+08
2.817469e+10 -6.672363e+09 7.338027e+08
3.070191e+09 2.470936e+10 -1.933872e+09
-2.354010e+10 2.292809e+10 2.106975e+09
-2.768691e+09 -2.382418e+10 4.467875e+08
-2.860603e+10 -1.223454e+10 -1.725046e+09
2.851060e+10 -1.015135e+10 -3.832501e+08
3.064133e+10 1.097947e+10 -4.959112e+08
3.176582e+10 -1.359718e+09 -8.052618e+08
-1.745865e+10 1.620107e+10 1.212175e+08
-3.423255e+10 -1.362906e+10 2.649372e+08
-2.207261e+10 -1.190882e+10 -1.403153e+09