# vtk DataFile Version 2.0
Electric current density generated by TTH
ASCII
DATASET UNSTRUCTURED_GRID
POINTS 3061 double
2.985528e-05 -7.312434e-21 -2.981000e-22
2.906995e-05 6.802629e-06 -2.981000e-22
-2.441951e-05 1.717630e-05 -2.981000e-22
1.749040e-05 -2.241324e-05 1.199155e-06
2.824232e-05 -2.194183e-06 1.176743e-06
-1.951073e-05 -2.009636e-05 1.042135e-06
-5.931002e-06 2.686029e-05 4.498918e-07
-2.814450e-05 3.608241e-06 1.188256e-06
2.937412e-05 -2.587130e-06 -8.714446e-07
-2.173472e-05 1.752010e-05 -9.803058e-07
-2.298486e-05 1.641552e-05 1.151780e-06
-4.399172e-06 2.797464e-05 1.174328e-06
2.688914e-05 1.209478e-05 -8.751064e-07
-2.485020e-05 1.654705e-05 -2.981000e-22
-2.791781e-05 4.756869e-06 -1.174803e-06
2.328729e-05 1.452896e-05 2.541129e-07
-2.261609e-05 -1.607008e-05 8.257698e-07
-2.395927e-05 1.451115e-05 1.043079e-06
4.463183e-06 -2.916928e-05 8.505382e-07
1.212391e-06 2.820682e-05 1.147608e-06
-1.578288e-05 -2.487027e-05 9.017801e-07
2.520430e-05 1.301021e-05 -1.185821e-06
-1.512170e-06 2.754582e-05 -6.139346e-07
1.193927e-05 2.696890e-05 -8.658588e-07
-2.526469e-05 1.590702e-05 -2.981000e-22
2.312767e-05 -1.835016e-05 -8.355278e-07
1.092777e-05 -2.741554e-05 8.459806e-07
5.594964e-06 -2.733191e-05 9.666588e-07
2.906065e-05 4.970771e-06 -8.764109e-07
7.138998e-06 -2.860984e-05 8.721633e-07
2.864086e-05 7.109599e-06 -8.491770e-07
-2.481208e-05 -1.393764e-05 -1.203776e-06
2.306853e-05 -1.648961e-05 1.183927e-06
2.262280e-05 1.889343e-05 -8.841369e-07
1.954063e-05 2.202252e-05 -9.139427e-07
-2.566269e-05 1.525660e-05 -2.981000e-22
-1.746268e-05 2.114252e-05 -3.898065e-08
2.557260e-05 1.194864e-05 -1.145295e-06
2.841260e-05 2.350860e-06 1.210283e-06
2.833352e-05 4.342857e-06 1.216803e-06
6.798544e-06 2.656903e-05 9.791552e-08
2.535539e-05 -1.506610e-05 8.655988e-07
-2.426814e-05 1.304145e-05 -5.458195e-07
1.346613e-05 -2.464992e-05 1.085803e-06
2.262128e-05 -1.555503e-05 -2.778944e-07
-1.999590e-05 2.168370e-05 -8.633234e-07
-2.604395e-05 1.459624e-05 -2.981000e-22
-6.714268e-08 2.951402e-05 8.450398e-07
1.800991e-05 2.338424e-05 -8.433210e-07
1.062433e-05 -2.754003e-05 -8.406618e-07
-2.838347e-05 1.286697e-07 1.190193e-06
-1.823422e-05 -2.318957e-05 8.595273e-07
-2.811920e-05 -1.699359e-06 1.123641e-06
2.043388e-05 1.985433e-05 1.208153e-06
1.939333e-05 -2.227944e-05 -8.198909e-07
1.180196e-05 -2.574100e-05 1.174098e-06
-2.953023e-05 -1.131919e-06 8.039979e-07
-2.640822e-05 1.392635e-05 -2.981000e-22
9.444731e-07 2.743640e-05 -2.753048e-07
-2.657002e-05 6.810014e-06 -1.371571e-07
8.070759e-06 2.838182e-05 -8.523014e-07
2.612313e-05 1.033822e-05 -1.088860e-06
2.895722e-05 -5.227135e-06 9.283808e-07
-1.890255e-05 -2.145992e-05 1.216415e-06
-6.280491e-07 -2.813579e-05 -1.111703e-06
-2.176715e-06 -2.805305e-05 -1.109269e-06
-1.030806e-05 -2.619012e-05 -1.112976e-06
-1.892680e-05 2.069753e-05 -1.063630e-06
-2.675527e-05 1.324738e-05 -2.981000e-22
1.395755e-05 2.442095e-05 1.105084e-06
-1.169520e-05 2.707162e-05 8.694777e-07
2.555543e-05 -1.474580e-05 -8.548158e-07
2.725218e-05 -3.040259e-06 1.811530e-08
-2.944134e-05 -2.609683e-06 -7.984392e-07
-9.893374e-06 2.623469e-05 1.058889e-06
-2.614217e-05 1.066094e-05 -1.147446e-06
-1.737937e-05 -2.215932e-05 1.119910e-06
1.122316e-05 -2.590016e-05 -1.145611e-06
-2.821173e-05 -3.362877e-06 1.195779e-06
-2.708486e-05 1.255976e-05 -2.981000e-22
1.034593e-06 -2.825068e-05 1.159936e-06
2.733299e-05 1.102319e-05 8.865358e-07
1.689300e-05 -2.420329e-05 8.434413e-07
-1.076181e-05 2.527194e-05 3.343723e-07
-3.845829e-06 -2.805141e-05 1.173061e-06
-8.691480e-06 -2.699420e-05 1.184613e-06
-1.452712e-05 -2.376499e-05 -9.302701e-07
1.227317e-05 -2.520403e-05 -1.056207e-06
1.569029e-05 2.510715e-05 -7.371379e-07
-1.615318e-05 -2.278012e-05 -9.869237e-07
-2.739679e-05 1.186396e-05 -2.981000e-22
-2.905974e-05 5.094829e-06 8.564071e-07
2.752259e-05 1.108647e-06 5.348114e-07
2.265815e-05 -1.661715e-05 -1.090849e-06
-2.232421e-05 1.923884e-05 -8.881232e-07
-2.040462e-05 1.990482e-05 -1.209805e-06
-1.408164e-05 -2.459535e-05 -1.180295e-06
-2.148303e-05 -1.828111e-05 1.138711e-06
-2.006956e-05 -1.868690e-05 5.596761e-08
-2.064396e-05 -2.094655e-05 9.413054e-07
-1.966036e-05 -1.940823e-05 -6.762023e-07
-2.769084e-05 1.116041e-05 -2.981000e-22
-2.724625e-05 -4.693987e-06 -7.071770e-07
-2.570633e-05 1.443303e-05 8.780806e-07
-2.281019e-05 1.874916e-05 -8.316039e-07
7.785528e-06 2.729111e-05 -1.189364e-06
1.068651e-05 -2.628149e-05 1.187412e-06
-1.308888e-05 -2.646277e-05 -8.358988e-07
-1.699705e-05 -2.418330e-05 7.959260e-07
1.377671e-05 2.379497e-05 -4.187848e-07
1.091587e-05 2.531411e-05 5.785043e-07
-2.731922e-05 7.401994e-06 1.170368e-06
2.888673e-05 7.542817e-06 -2.981000e-22
-2.796683e-05 1.044959e-05 -2.981000e-22
1.660521e-05 2.306001e-05 -1.196724e-06
2.936311e-05 2.916893e-06 8.516795e-07
2.783379e-05 1.000531e-05 -7.739980e-07
-2.815425e-05 -8.879167e-06 -8.376066e-07
-2.711881e-05 -4.389050e-06 3.472343e-07
-1.315855e-06 2.810769e-05 1.109766e-06
6.770022e-07 -2.817227e-05 -1.127709e-06
-1.848797e-05 2.025616e-05 -9.414022e-08
-3.532356e-06 -2.797853e-05 -1.135712e-06
-9.249156e-06 -2.664071e-05 -1.135702e-06
-2.822458e-05 9.731943e-06 -2.981000e-22
2.755300e-05 4.396533e-06 -9.688527e-07
2.459596e-05 -1.411990e-05 -1.185043e-06
-2.920610e-05 -4.224251e-06 8.492574e-07
-8.526174e-06 -2.824244e-05 -8.580292e-07
-4.897304e-06 -2.909740e-05 -8.526872e-07
1.915009e-06 -2.944269e-05 -8.544647e-07
-1.620083e-05 -2.213044e-05 1.164561e-07
2.038575e-05 -2.139118e-05 8.069511e-07
-1.656529e-05 2.220823e-05 -7.823376e-07
2.134477e-05 2.035802e-05 -8.628229e-07
-2.846391e-05 9.007952e-06 -2.981000e-22
-2.168224e-05 1.679919e-05 1.355304e-07
-2.743230e-05 3.034346e-06 6.345390e-07
-1.616577e-05 2.469315e-05 -8.450040e-07
2.056791e-05 -1.874337e-05 9.075150e-07
2.926188e-05 3.960103e-06 8.297077e-07
-1.517247e-05 -2.534499e-05 -8.180697e-07
1.458288e-06 2.952094e-05 7.982453e-07
1.455224e-05 2.324150e-05 -2.808672e-08
3.508683e-06 2.741910e-05 7.001855e-07
4.698694e-06 2.834395e-05 1.213559e-06
-2.868468e-05 8.278085e-06 -2.981000e-22
-9.813499e-06 2.576853e-05 -5.904762e-07
2.708573e-05 5.116905e-06 5.737334e-07
2.623968e-05 1.356232e-05 -8.202034e-07
-7.065577e-06 -2.778063e-05 1.216789e-06
-1.024134e-05 2.770654e-05 8.187192e-07
2.044500e-05 -2.135950e-05 -7.861353e-07
-8.178064e-07 -2.867664e-05 1.216053e-06
2.477115e-05 1.354980e-05 1.148308e-06
1.091041e-05 2.745424e-05 8.143237e-07
1.651386e-05 -2.312979e-05 1.197363e-06
-2.888673e-05 7.542817e-06 -2.981000e-22
-1.892016e-05 2.101067e-05 1.161327e-06
5.569045e-06 2.702561e-05 -6.243299e-07
2.648485e-06 2.940982e-05 -8.294906e-07
2.736780e-05 -1.985214e-06 -2.119923e-07
-1.096497e-05 2.599105e-05 -1.139016e-06
1.618679e-05 2.326202e-05 1.179894e-06
-2.776642e-05 1.010274e-05 -8.092807e-07
2.951568e-05 -9.110670e-07 8.285149e-07
-2.852092e-05 7.717264e-06 8.100446e-07
-1.705208e-05 -2.269879e-05 -1.191572e-06
-2.906995e-05 6.802629e-06 -2.981000e-22
4.135391e-06 -2.835182e-05 1.217009e-06
2.760793e-05 -6.056573e-06 1.158286e-06
-2.370714e-05 -1.457066e-05 9.071877e-07
8.988547e-06 2.666006e-05 -1.107988e-06
-2.270655e-05 1.712933e-05 -1.201323e-06
-1.914220e-05 2.246889e-05 8.416389e-07
-1.843854e-05 2.302925e-05 8.581100e-07
1.520650e-05 2.414553e-05 -1.212700e-06
-2.394173e-05 1.730164e-05 -8.184286e-07
-2.339021e-05 -1.575537e-05 1.136106e-06
-2.923419e-05 6.058004e-06 -2.981000e-22
-2.958860e-05 -1.108634e-06 -7.335648e-07
-2.564419e-05 -1.477803e-05 -7.489582e-07
2.582857e-05 -9.364363e-06 -3.540531e-07
-2.497735e-05 -1.167576e-05 5.861891e-07
-1.736814e-05 -2.386143e-05 -8.461229e-07
1.678299e-05 2.174957e-05 3.483700e-07
-1.865739e-06 2.946118e-05 -8.386686e-07
2.578747e-05 9.387428e-06 2.297339e-07
-2.743677e-05 6.737030e-07 -2.402026e-07
-1.322166e-05 -2.643368e-05 7.994283e-07
-2.937937e-05 5.309427e-06 -2.981000e-22
1.813840e-05 2.094818e-05 7.868969e-07
6.077958e-06 -2.681470e-05 -4.173525e-07
2.719422e-06 -2.939592e-05 8.373601e-07
-2.681198e-05 1.239475e-05 -8.191913e-07
2.043389e-05 2.134070e-05 8.106061e-07
-9.590772e-06 -2.637458e-05 1.073253e-06
2.121413e-05 1.744411e-05 3.245570e-07
-2.251383e-05 -1.565449e-05 -2.879291e-08
1.906909e-05 2.249627e-05 8.684560e-07
2.643183e-05 8.044353e-06 -6.800985e-07
-2.950539e-05 4.557387e-06 -2.981000e-22
6.291867e-06 2.707913e-05 8.829216e-07
-1.521837e-05 -2.292164e-05 4.654966e-07
-5.698464e-06 -2.896875e-05 8.347518e-07
-2.557841e-06 -2.941299e-05 8.346516e-07
-2.146406e-05 -1.707150e-05 -9.981442e-08
-2.401407e-05 -1.721589e-05 -8.088395e-07
9.286347e-06 2.684100e-05 1.193953e-06
1.576395e-05 -2.266506e-05 6.482259e-07
2.379879e-05 1.481767e-05 -1.056942e-06
-2.383967e-05 1.567946e-05 -1.212597e-06
-2.961215e-05 3.802373e-06 -2.981000e-22
-2.649566e-05 -8.409220e-06 -8.806626e-07
2.635903e-05 -1.340142e-05 -7.827313e-07
-1.138465e-05 2.513127e-05 -6.180097e-07
9.331715e-06 2.578442e-05 -4.311621e-09
-2.410323e-05 -1.709951e-05 8.031617e-07
1.725917e-05 -2.397457e-05 -8.164528e-07
2.668984e-05 -7.590783e-06 8.302846e-07
-1.040976e-05 -2.617671e-05 1.123682e-06
-1.679425e-05 -2.169134e-05 1.686339e-07
-2.360077e-05 -1.787792e-05 -7.357549e-07
2.868468e-05 8.278085e-06 -2.981000e-22
-2.969960e-05 3.044879e-06 -2.981000e-22
-2.288865e-06 -2.808178e-05 1.125460e-06
1.618860e-05 -2.472902e-05 7.985851e-07
2.668345e-05 6.612744e-06 -4.054640e-07
-1.301116e-05 2.654670e-05 7.902955e-07
-1.883190e-05 2.020681e-05 6.692886e-07
-2.889488e-05 6.437626e-06 -7.414921e-07
2.706831e-05 1.186126e-05 8.026999e-07
-2.498337e-05 -1.562540e-05 8.909986e-07
-2.008830e-06 -2.748617e-05 -5.636286e-07
2.300329e-05 1.593852e-05 1.027268e-06
-2.976768e-05 2.285399e-06 -2.981000e-22
-2.627729e-05 -1.355796e-05 7.843828e-07
2.860516e-05 -2.257655e-06 -1.215800e-06
-2.628944e-05 -1.108451e-05 -1.212330e-06
5.463569e-06 -2.695796e-05 -4.466968e-07
2.381404e-05 -1.513909e-05 -1.142543e-06
1.889390e-05 -2.097140e-05 -1.145619e-06
2.493826e-05 -1.581065e-05 -8.305505e-07
[...]
POINT_DATA 3061
VECTORS 10.000GHz_fone_imag double
9.309298e-05 1.297439e-05 1.773607e-02
-3.467012e-04 -3.755885e-04 1.747583e-02
-2.251757e-04 1.903510e-05 1.744812e-02
-1.275910e-02 1.619123e-02 -4.625182e-03
-2.056138e-02 1.950999e-03 -6.542114e-03
1.313239e-02 1.355134e-02 -1.215970e-02
2.128550e-03 -8.003400e-03 -2.211492e-02
2.085813e-02 -2.575372e-03 -4.902632e-03
1.381678e-02 -1.232129e-03 1.211218e-02
-1.399966e-02 1.130541e-02 -1.426020e-02
1.691125e-02 -1.190059e-02 -7.174887e-03
3.413314e-03 -2.016168e-02 -7.011066e-03
1.239748e-02 5.501468e-03 1.228692e-02
1.370142e-04 -2.113701e-04 1.754939e-02
-2.013811e-02 3.269556e-03 -6.104340e-03
-3.669063e-03 -2.825695e-03 -2.348616e-02
1.246906e-02 8.740423e-03 -1.716011e-02
1.575109e-02 -9.682520e-03 -1.204353e-02
-1.930077e-03 1.287203e-02 1.295276e-02
-3.730778e-04 -2.019661e-02 -7.320868e-03
7.536446e-03 1.190855e-02 1.150707e-02
1.830321e-02 9.584142e-03 -5.513808e-03
-6.843865e-04 1.105745e-02 -2.045031e-02
5.410994e-03 1.219624e-02 1.215768e-02
1.088372e-04 3.656223e-04 1.750293e-02
9.936327e-03 -8.233744e-03 1.249092e-02
-4.059945e-03 1.233607e-02 1.238919e-02
-3.599385e-03 1.718472e-02 -1.489667e-02
1.332496e-02 1.830676e-03 1.227159e-02
-3.431169e-03 1.309608e-02 1.207994e-02
1.272196e-02 2.641046e-03 1.246387e-02
-1.821029e-02 -1.002858e-02 -4.045990e-03
-1.686963e-02 1.189302e-02 -5.568373e-03
1.069188e-02 8.870605e-03 1.219173e-02
9.475853e-03 9.755017e-03 1.231709e-02
-4.638026e-04 -6.577475e-05 1.752310e-02
9.150880e-05 6.074601e-04 -2.385765e-02
1.836409e-02 8.350518e-03 -8.202407e-03
-2.099287e-02 -1.285075e-03 -3.176114e-03
-2.013336e-02 -3.245561e-03 -3.781960e-04
-5.963074e-04 -1.917805e-03 -2.394468e-02
-1.115457e-02 7.355944e-03 1.215658e-02
-8.705229e-03 4.154393e-03 -2.153423e-02
-9.348252e-03 1.680227e-02 -1.116379e-02
4.644803e-03 -3.429060e-03 -2.337282e-02
-9.430185e-03 9.944864e-03 1.268675e-02
-6.785021e-06 -7.172087e-05 1.760691e-02
-3.387103e-04 -1.279028e-02 1.289954e-02
7.969663e-03 1.016827e-02 1.292204e-02
4.536321e-03 -1.159848e-02 1.297967e-02
2.081790e-02 1.346365e-04 -6.484461e-03
8.412656e-03 1.039030e-02 1.249430e-02
1.995574e-02 1.104906e-03 -9.170912e-03
-1.491680e-02 -1.443838e-02 -3.588848e-03
8.180682e-03 -9.309299e-03 1.324491e-02
-8.353100e-03 1.851895e-02 -6.729630e-03
1.229680e-02 2.967794e-04 1.351725e-02
-1.006544e-04 1.855319e-04 1.747358e-02
-3.363733e-04 5.831032e-03 -2.327723e-02
-2.440473e-03 4.781280e-04 -2.384790e-02
3.651028e-03 1.281231e-02 1.269287e-02
1.801721e-02 7.279568e-03 -1.054930e-02
-1.391502e-02 2.114387e-03 1.215054e-02
1.418701e-02 1.505776e-02 -1.722701e-03
-3.821993e-04 -1.957695e-02 -9.563000e-03
-9.008049e-04 -1.952766e-02 -9.630488e-03
-7.412899e-03 -1.761028e-02 -1.009901e-02
-1.277263e-02 1.408101e-02 -1.141554e-02
-6.080669e-05 -2.194468e-04 1.739368e-02
-9.181093e-03 -1.721354e-02 -1.035630e-02
5.354087e-03 -1.253606e-02 1.219136e-02
1.155949e-02 -6.494341e-03 1.275689e-02
5.142585e-04 -1.698851e-04 -2.414302e-02
-1.215240e-02 -7.277187e-04 1.340835e-02
6.960962e-03 -1.788241e-02 -1.219892e-02
-1.885012e-02 7.665072e-03 -8.201788e-03
1.167231e-02 1.596739e-02 -9.317542e-03
8.026783e-03 -1.828701e-02 -8.557386e-03
2.069932e-02 2.020607e-03 -4.524727e-03
-6.623578e-06 1.160968e-04 1.745124e-02
-7.231225e-04 2.036412e-02 -7.591882e-03
-1.229663e-02 -4.933320e-03 1.228841e-02
-7.597731e-03 1.068178e-02 1.285825e-02
2.387242e-03 -5.822631e-03 -2.319049e-02
2.905908e-03 2.019586e-02 -7.014893e-03
6.225407e-03 1.954274e-02 -5.548364e-03
-8.988928e-03 -1.476964e-02 -1.516210e-02
8.469230e-03 -1.687405e-02 -1.161271e-02
5.597220e-03 9.498493e-03 1.410151e-02
-1.043455e-02 -1.468788e-02 -1.393974e-02
-1.257571e-04 1.856577e-04 1.721957e-02
1.329962e-02 -2.238535e-03 1.240017e-02
-1.040641e-02 -5.153527e-04 -2.137244e-02
1.596618e-02 -1.154755e-02 -9.633725e-03
-1.101896e-02 9.247272e-03 1.188321e-02
-1.508655e-02 1.440895e-02 -3.186189e-03
-1.060566e-02 -1.806913e-02 -4.966042e-03
1.533698e-02 1.296886e-02 -8.684793e-03
1.777127e-03 8.966012e-04 -2.413275e-02
9.902681e-03 1.042215e-02 1.183756e-02
-8.749211e-03 -8.984706e-03 -1.983318e-02
-4.060332e-04 1.626787e-04 1.741597e-02
-1.306399e-02 -1.555256e-03 -1.928863e-02
1.248865e-02 -7.117897e-03 1.177091e-02
-9.730050e-03 7.804385e-03 1.339479e-02
5.615305e-03 1.999204e-02 -6.021721e-03
-7.793622e-03 1.894412e-02 -5.214843e-03
-5.869485e-03 -1.169916e-02 1.326641e-02
7.164494e-03 9.993777e-03 1.357648e-02
3.810552e-03 6.265849e-03 -2.294447e-02
-3.744430e-03 -9.333837e-03 -2.146159e-02
1.979777e-02 -5.284131e-03 -6.416967e-03
2.014808e-04 -7.291735e-05 1.762849e-02
-4.899934e-04 2.200394e-04 1.762349e-02
1.196781e-02 1.695098e-02 -4.350251e-03
-1.322699e-02 -1.018113e-03 1.267377e-02
1.086029e-02 3.888746e-03 1.394197e-02
-1.229834e-02 -3.877446e-03 1.302439e-02
6.995560e-03 8.566910e-04 -2.276433e-02
4.112870e-04 -1.956988e-02 -1.007154e-02
7.522479e-04 -1.978920e-02 -9.259063e-03
-7.652099e-04 5.137809e-04 -2.403296e-02
-3.080920e-03 -1.951852e-02 -8.856815e-03
-6.287172e-03 -1.874045e-02 -8.683167e-03
-4.243802e-04 -1.221327e-05 1.743943e-02
1.765957e-02 2.983276e-03 -1.359295e-02
1.815374e-02 -1.019195e-02 -6.114289e-03
1.293125e-02 1.823873e-03 1.275916e-02
-3.976935e-03 -1.240265e-02 1.288742e-02
-2.214787e-03 -1.289569e-02 1.291381e-02
1.270562e-03 -1.222795e-02 1.338383e-02
8.696847e-04 1.859683e-03 -2.407531e-02
-8.209258e-03 8.683066e-03 1.347062e-02
-8.947427e-03 1.150443e-02 -1.805123e-02
1.023578e-02 9.269062e-03 1.211319e-02
-1.864015e-04 -1.578808e-05 1.743676e-02
2.393488e-03 -2.074680e-03 -2.408861e-02
1.164278e-02 -1.295686e-03 -2.078594e-02
-7.494395e-03 1.089855e-02 1.252237e-02
-1.235038e-02 1.160458e-02 -1.532854e-02
-1.261170e-02 -1.747585e-03 1.321059e-02
-6.089953e-03 -1.046210e-02 1.375438e-02
-5.102337e-04 -1.226719e-02 1.364178e-02
3.736914e-04 2.060420e-04 -2.399402e-02
-2.267889e-03 -1.332369e-02 -1.894043e-02
-3.334109e-03 -1.984588e-02 4.751714e-04
-5.205266e-05 -1.262474e-04 1.743437e-02
-4.111530e-03 1.052620e-02 -2.101604e-02
-1.095504e-02 -1.919127e-03 -2.083568e-02
1.099330e-02 5.599046e-03 1.334391e-02
5.068020e-03 1.992770e-02 -7.729326e-05
4.491353e-03 -1.185235e-02 1.336176e-02
8.136947e-03 -8.596445e-03 1.375486e-02
4.060085e-05 2.049125e-02 -4.158012e-04
-1.780436e-02 -9.830251e-03 -8.249449e-03
-4.719171e-03 -1.155557e-02 1.356250e-02
-1.212722e-02 1.697159e-02 -4.423859e-03
2.573194e-04 5.944744e-05 1.748564e-02
1.359084e-02 -1.516905e-02 -7.370859e-03
2.273746e-03 1.105800e-02 -2.033385e-02
1.120252e-03 1.291609e-02 1.310594e-02
4.549557e-03 -4.343005e-04 -2.373811e-02
-7.927025e-03 1.849861e-02 -8.647620e-03
-1.114143e-02 -1.710603e-02 -5.967914e-03
-1.180758e-02 4.301147e-03 1.334710e-02
-1.319302e-02 9.630911e-04 1.232760e-02
1.170698e-02 -3.364111e-03 1.349990e-02
-1.249558e-02 -1.652566e-02 -4.530618e-03
-8.845745e-05 2.766624e-04 1.759305e-02
-3.065536e-03 2.041812e-02 -5.910485e-04
-2.009120e-02 4.314692e-03 -7.118195e-03
1.372049e-02 8.540289e-03 -1.640790e-02
6.454015e-03 1.874663e-02 -1.026120e-02
-1.662166e-02 1.267566e-02 -4.056413e-03
8.444833e-03 -1.027309e-02 1.275472e-02
7.381001e-03 -1.072790e-02 1.222992e-02
1.121820e-02 1.732295e-02 -2.719326e-03
-1.000462e-02 7.372954e-03 1.348627e-02
1.637973e-02 1.139757e-02 -9.077445e-03
-4.326685e-04 -1.566884e-04 1.749089e-02
-1.105162e-02 -6.508744e-04 1.415945e-02
-9.953402e-03 -5.602895e-03 1.400666e-02
6.322159e-03 -2.442359e-03 -2.294551e-02
1.005886e-02 5.105377e-03 -2.101995e-02
-7.239932e-03 -1.040470e-02 1.313299e-02
-3.845287e-03 -5.391101e-03 -2.295473e-02
-8.352350e-04 1.279260e-02 1.314899e-02
-3.575569e-03 -1.633052e-03 -2.361689e-02
-4.310908e-03 1.277050e-04 -2.350375e-02
5.520029e-03 1.088354e-02 1.366775e-02
-6.813319e-05 -6.677447e-05 1.741904e-02
-9.451656e-03 -1.054679e-02 -1.838550e-02
1.706243e-03 -7.812529e-03 -2.282756e-02
-5.568493e-04 1.268326e-02 1.261840e-02
-1.115278e-02 5.206884e-03 1.344042e-02
-8.628759e-03 -9.094829e-03 1.333411e-02
6.318722e-03 1.818649e-02 -1.081511e-02
-4.862726e-03 -4.280912e-03 -2.310105e-02
5.058757e-04 -7.753898e-04 -2.348519e-02
-8.455735e-03 -9.591169e-03 1.317470e-02
1.234317e-02 3.847366e-03 -1.973366e-02
-1.705220e-04 5.139769e-05 1.752780e-02
-4.044178e-03 -1.559339e-02 -1.614284e-02
5.049197e-03 7.619419e-03 -2.184628e-02
2.878389e-03 1.284553e-02 1.258137e-02
8.087577e-04 1.370830e-02 1.217150e-02
-1.166314e-03 -5.732091e-04 -2.424429e-02
-9.821347e-03 -7.002580e-03 1.353574e-02
-6.789379e-03 -1.940387e-02 -5.540630e-03
-6.437834e-03 9.459306e-03 -2.077363e-02
1.631548e-02 1.050639e-02 -1.156848e-02
-1.750957e-02 1.158488e-02 -2.848620e-03
-4.496072e-04 3.043143e-04 1.743264e-02
-1.614097e-02 -5.366494e-03 -1.613945e-02
1.055399e-02 -5.563924e-03 1.374805e-02
-5.067491e-03 1.023640e-02 -2.055573e-02
-7.958678e-05 7.704948e-05 -2.413563e-02
9.860489e-03 7.119277e-03 1.355640e-02
7.176390e-03 -1.023837e-02 1.319604e-02
-1.468004e-02 4.255899e-03 -1.706803e-02
7.722968e-03 1.807731e-02 -9.360491e-03
1.630262e-03 2.380947e-03 -2.434525e-02
-7.915011e-03 -6.310443e-03 1.392035e-02
9.081244e-05 7.835239e-05 1.759137e-02
-1.290408e-04 -3.447159e-04 1.741807e-02
1.111262e-03 1.957356e-02 -9.334126e-03
-6.949421e-03 1.056445e-02 1.326142e-02
7.196338e-03 2.021607e-03 -2.271796e-02
5.361564e-03 -1.070066e-02 1.365749e-02
8.896921e-03 -8.779863e-03 -1.958130e-02
-1.125111e-02 2.570925e-03 1.391003e-02
-1.122365e-02 -5.034205e-03 1.334481e-02
1.167215e-02 7.186538e-03 1.283108e-02
-7.722072e-04 -1.108806e-02 -2.097521e-02
-1.430838e-02 -1.040803e-02 -1.353525e-02
-1.358811e-04 6.351360e-05 1.761669e-02
1.071490e-02 5.405353e-03 1.366880e-02
2.025882e-02 -1.756923e-03 2.981140e-05
-1.910300e-02 -8.023037e-03 -2.194490e-03
1.548042e-03 -8.439007e-03 -2.225865e-02
1.688691e-02 -1.090128e-02 -8.280286e-03
1.356241e-02 -1.520304e-02 -7.533241e-03
1.082591e-02 -6.746716e-03 1.309699e-02
1.616830e-02 -8.886215e-03 -1.274674e-02
1.149036e-02 1.297633e-02 -1.503336e-02
-4.721143e-03 4.749458e-03 -2.303866e-02
1.469320e-04 -9.180245e-05 1.739754e-02
-4.458145e-03 1.131342e-02 1.339211e-02
-4.536776e-03 -1.088681e-02 -2.021060e-02
-2.000626e-03 2.090161e-02 -3.862742e-03
2.056492e-02 3.710210e-04 -1.697490e-03
4.061262e-03 2.029551e-02 -3.546903e-03
1.117964e-02 -1.218592e-03 1.424944e-02
1.211278e-02 1.081180e-03 -2.035736e-02
3.106700e-03 1.579786e-03 -2.359078e-02
-1.047962e-02 1.794169e-02 -3.914372e-03
1.054667e-02 -5.138000e-03 1.384582e-02
1.147749e-04 3.766508e-04 1.742337e-02
5.509732e-03 -1.100612e-02 -2.039262e-02
1.818456e-03 -4.697810e-04 -2.393797e-02
-3.192364e-03 1.402731e-02 -1.850785e-02
1.020096e-02 -6.458775e-03 1.395645e-02
8.469712e-03 7.551270e-03 1.426629e-02
-2.036665e-02 5.119308e-04 5.869370e-04
1.607965e-02 -1.196312e-02 5.946897e-04
-9.275661e-03 -6.569731e-03 1.389252e-02
4.755162e-03 1.239027e-02 1.307160e-02
-1.151414e-02 -8.442851e-03 -1.828519e-02
-5.011987e-04 -1.721122e-04 1.754665e-02
1.047323e-02 3.324816e-03 1.463154e-02
-1.707298e-02 -1.187345e-02 -3.374499e-03
-6.593620e-03 1.132479e-02 1.284362e-02
2.683989e-03 4.591859e-04 -2.411132e-02
5.009512e-03 5.501053e-03 -2.261097e-02
9.928469e-03 6.353045e-03 1.406444e-02
-3.736771e-03 5.666712e-03 -2.302734e-02
-7.356339e-03 -9.478625e-03 -2.024072e-02
-1.380763e-02 -7.380437e-03 -1.738442e-02
1.026027e-02 1.734278e-02 -7.565619e-03
2.919165e-04 -1.884626e-04 1.747814e-02
2.604441e-03 -1.285910e-02 1.277618e-02
-9.351052e-03 -4.896321e-03 1.463101e-02
-1.283677e-02 -5.006498e-03 1.220146e-02
-7.614375e-03 -9.941264e-03 1.353899e-02
1.795444e-02 1.049733e-02 -3.396740e-03
-1.614245e-02 -1.350859e-02 -3.771104e-03
-1.120417e-02 -2.092263e-03 1.398013e-02
-1.713061e-02 2.032027e-03 -1.469686e-02
1.875599e-02 1.211783e-03 5.685758e-03
-1.908031e-02 6.699833e-03 1.261412e-03
2.024343e-04 7.491972e-05 1.736360e-02
-2.259938e-03 1.493768e-03 -2.426436e-02
2.852544e-03 4.017363e-03 -2.371727e-02
-6.927972e-03 1.944158e-02 -5.761196e-03
8.791507e-03 -1.797479e-02 2.704759e-03
-1.780262e-02 -1.099789e-02 -1.555245e-03
1.337505e-02 7.924595e-04 -1.913229e-02
-1.934513e-02 5.839884e-03 -8.130846e-03
1.570587e-02 -1.334501e-02 -2.842209e-03
-1.121958e-02 1.691781e-02 -7.777861e-03
-1.099876e-02 -5.548647e-03 1.347658e-02
-7.653376e-05 1.035481e-04 1.731891e-02
-5.413836e-03 -1.083524e-02 1.343176e-02
8.241511e-03 -3.855626e-03 -2.205148e-02
5.943237e-03 -9.727042e-03 1.414843e-02
1.984408e-03 -2.017521e-02 -6.668022e-03
1.153805e-02 1.005116e-02 -1.727644e-02
8.381185e-03 -1.858364e-02 1.773461e-03
1.112772e-02 4.731144e-03 1.362647e-02
2.082181e-02 -1.460176e-03 -3.709940e-04
-1.360129e-02 -1.541367e-02 -7.218323e-03
-6.946809e-04 -8.183683e-03 -2.213614e-02
-2.243373e-04 5.013402e-06 1.740161e-02
-2.044582e-02 9.704896e-04 -6.238304e-03
-1.084879e-03 -2.006723e-02 1.081643e-03
-6.345187e-03 1.938338e-02 -6.892657e-03
-2.174699e-03 -1.862846e-03 -2.417410e-02
1.395710e-02 -1.450701e-02 -7.162071e-03
1.359000e-02 1.527834e-02 8.537505e-04
-3.824974e-03 -1.303069e-02 1.279163e-02
-2.009957e-02 -1.516934e-03 -9.081746e-03
4.369266e-03 1.634996e-03 -2.345191e-02
3.140452e-03 -1.200971e-02 1.319885e-02
-2.518228e-04 -9.628750e-05 1.732041e-02
-1.843183e-02 -2.513072e-03 -1.203119e-02
4.803550e-03 -7.985382e-03 -2.218566e-02
-5.455229e-03 -1.864608e-02 -1.020168e-02
4.194911e-03 1.264230e-02 1.275937e-02
6.290300e-06 1.299459e-02 1.307525e-02
-1.946801e-02 4.466769e-03 2.361314e-03
1.972204e-02 5.083586e-03 -6.678110e-03
-6.386387e-03 3.006938e-03 -2.289396e-02
-2.448458e-03 6.988494e-04 -2.383728e-02
6.085973e-03 -9.562692e-03 -2.110216e-02
4.049901e-05 -2.095344e-05 1.741224e-02
-2.161570e-04 -4.096747e-04 1.733412e-02
4.357246e-05 2.037587e-02 -7.716280e-03
-1.213920e-03 1.165789e-02 1.413838e-02
-3.232299e-05 -8.837776e-03 -2.245409e-02
4.871474e-03 -1.990256e-02 -6.762985e-03
1.277454e-02 -3.251881e-03 -1.964893e-02
-4.566384e-03 9.681319e-03 1.430286e-02
2.033035e-02 -2.581103e-03 -1.473347e-03
2.272721e-03 1.200154e-02 1.366614e-02
1.774125e-03 1.270912e-02 1.315730e-02
-8.245965e-04 -1.309337e-02 1.267758e-02
-1.075001e-04 -4.514442e-05 1.747639e-02
7.846500e-03 -9.879517e-03 1.296814e-02
-1.750761e-02 1.068338e-02 -6.234765e-03
1.544739e-02 -4.565453e-04 -1.864774e-02
4.160878e-03 1.245178e-02 1.305326e-02
-2.586930e-03 2.482537e-03 -2.383199e-02
-1.026846e-02 5.236978e-03 1.409012e-02
-1.891409e-02 6.526097e-03 2.371712e-03
5.178016e-03 -1.517529e-02 -1.635356e-02
1.760841e-02 8.866434e-03 3.407326e-03
-5.917061e-03 1.200349e-02 -1.904067e-02
2.159124e-04 -9.494731e-05 1.742252e-02
3.055165e-03 -3.761130e-03 -2.348324e-02
4.278979e-04 -1.547595e-04 -2.412697e-02
1.937297e-02 4.618520e-03 -8.186744e-03
2.379744e-04 -1.092619e-02 1.473276e-02
-1.992535e-02 4.076239e-03 -7.706770e-03
-2.445297e-03 -1.126037e-02 1.418199e-02
3.707507e-04 -1.272597e-02 -2.005129e-02
-5.170504e-03 -9.444558e-03 1.434817e-02
1.573854e-02 -1.330647e-02 -6.446825e-03
-2.533890e-03 3.225751e-03 -2.387802e-02
2.397493e-04 -4.091260e-05 1.748862e-02
-1.546443e-03 1.661534e-03 -2.413888e-02
-7.161035e-03 -1.037848e-02 1.327160e-02
-2.050111e-03 1.134722e-02 1.412624e-02
-1.154152e-03 4.540528e-03 -2.362066e-02
5.465864e-03 -1.070658e-02 1.359807e-02
-7.335681e-03 9.027997e-03 1.425860e-02
-2.227092e-03 6.615744e-04 -2.367830e-02
1.073764e-02 1.719420e-02 4.133091e-04
-1.960733e-02 -6.474821e-03 -7.705562e-04
-1.114686e-02 3.782253e-04 1.426860e-02
6.280924e-04 9.676657e-05 1.763855e-02
-1.401607e-02 -1.549928e-02 -3.241016e-03
1.639059e-02 -1.152979e-02 1.030575e-03
-1.734249e-02 1.146287e-02 -4.322831e-03
1.648549e-03 -4.198924e-04 -2.387529e-02
-1.513086e-02 -1.377531e-02 -5.386756e-03
-3.550960e-03 1.160308e-02 1.368777e-02
1.649920e-03 -1.185114e-02 1.366671e-02
8.675599e-03 -6.293324e-03 1.461799e-02
8.577185e-03 6.909528e-03 1.432908e-02
1.463252e-02 -1.447511e-02 -6.041002e-03
9.510014e-05 2.717755e-04 1.774812e-02
8.764701e-04 -9.237803e-03 -2.184758e-02
-1.810517e-02 1.002780e-02 -4.695351e-03
-7.710443e-03 -1.793918e-02 3.220642e-03
-1.083656e-02 1.762046e-02 -3.805544e-03
1.593758e-02 -2.260167e-04 9.787049e-03
1.587083e-03 2.035559e-02 -6.635415e-03
1.273347e-03 -1.223393e-02 1.347958e-02
-1.179927e-02 1.117140e-03 1.341573e-02
3.635018e-03 -1.089613e-02 1.389349e-02
3.213714e-03 -1.208663e-02 1.373863e-02
-1.179853e-04 -1.864190e-04 1.769583e-02
-2.068024e-02 2.526026e-03 -1.986653e-03
1.049832e-02 1.017107e-03 1.461821e-02
-2.030096e-02 -5.334762e-03 -2.122510e-03
-9.929784e-03 -5.245475e-03 1.420497e-02
9.930826e-03 -3.537555e-03 1.453838e-02
9.646485e-03 -4.007610e-03 1.465606e-02
3.192724e-03 -2.009990e-02 -6.662528e-03
-1.101075e-02 1.090370e-03 -2.075863e-02
1.471153e-03 -9.911438e-03 -2.193413e-02
-6.777389e-04 7.905894e-03 -2.246172e-02
1.618482e-04 9.313659e-05 1.755105e-02
-7.165456e-03 9.010580e-03 1.391383e-02
-7.707833e-03 -7.023542e-03 1.458835e-02
-7.884309e-03 -6.599991e-03 1.463313e-02
-1.727873e-02 -4.261626e-03 -1.266094e-02
4.368079e-03 -1.999961e-02 -8.225131e-04
-8.671941e-03 7.462031e-03 1.436711e-02
8.157034e-03 -6.450700e-03 1.462610e-02
1.376818e-04 1.912886e-03 -2.402384e-02
4.667589e-04 1.855323e-03 -2.387994e-02
1.084566e-02 1.595418e-03 1.445878e-02
2.437691e-04 8.799300e-05 1.765805e-02
-6.344776e-03 4.956309e-03 -2.247036e-02
4.175151e-03 1.215933e-03 -2.354583e-02
-9.003068e-03 1.141338e-02 -1.772754e-02
6.025062e-04 2.968164e-04 -2.408980e-02
7.180684e-04 1.205346e-03 -2.436091e-02
3.502489e-03 1.150835e-02 -2.029753e-02
1.926333e-03 1.163185e-02 -2.033083e-02
1.970431e-02 -3.347577e-03 -9.142311e-03
-6.084304e-03 1.107119e-02 1.308690e-02
5.287502e-03 1.163626e-02 1.314170e-02
1.360941e-04 2.335854e-04 1.756337e-02
-5.839747e-03 9.845225e-03 1.409089e-02
-1.946824e-02 -7.130267e-03 -3.958164e-03
-3.439928e-03 6.048051e-03 -2.271458e-02
-1.026696e-02 3.142926e-03 1.439827e-02
4.485615e-03 -1.999727e-02 -1.808400e-03
-3.913624e-03 7.120299e-03 -2.258345e-02
-1.321506e-03 -1.203677e-02 1.383759e-02
1.078286e-02 -2.254790e-04 1.446792e-02
6.018296e-03 -1.971279e-02 -2.763550e-04
1.172933e-02 1.639623e-02 1.204742e-03
1.628285e-04 5.783486e-05 1.741481e-02
1.410136e-07 3.006785e-04 1.741124e-02
-1.897058e-02 8.246126e-03 -3.166721e-03
1.686446e-03 1.092226e-02 1.455718e-02
1.939130e-02 6.804096e-03 -5.246401e-03
-1.097286e-02 -3.310961e-03 1.439553e-02
-1.822718e-02 -7.229380e-03 -9.857596e-03
4.575431e-03 -2.244041e-03 -2.347834e-02
2.196218e-03 1.132495e-03 -2.406193e-02
5.519458e-03 1.230552e-02 -1.901680e-02
-9.912618e-03 3.137611e-03 1.450892e-02
5.233101e-03 1.087777e-02 1.374233e-02
-4.379039e-04 -4.668180e-05 1.745923e-02
4.478722e-03 -1.950539e-02 1.971265e-03
3.306252e-03 1.070857e-02 1.416957e-02
-1.018814e-02 4.957756e-03 1.409182e-02
-9.068480e-03 7.011559e-03 1.421048e-02
9.076357e-03 1.879278e-02 -4.250641e-03
-1.003181e-02 2.760535e-03 1.474481e-02
1.986540e-02 -6.392908e-03 -3.607041e-03
-9.737949e-03 3.033328e-03 -2.126093e-02
5.109813e-03 2.012135e-02 -4.327168e-03
-7.115366e-03 -7.341688e-03 -2.145769e-02
2.804014e-04 -7.120907e-04 1.715984e-02
-1.102750e-02 1.245926e-03 1.434726e-02
5.445126e-05 -3.095715e-04 -2.402436e-02
4.959767e-03 1.591881e-02 -1.533748e-02
7.570448e-04 -2.057856e-03 -2.391862e-02
7.857588e-04 1.299517e-02 -1.927987e-02
-7.396383e-03 -8.452696e-03 1.407167e-02
-2.060656e-03 5.428706e-03 -2.371345e-02
5.320100e-03 -1.035344e-02 1.381081e-02
6.557077e-03 7.559132e-03 1.453410e-02
-1.854141e-02 9.116171e-03 -1.082763e-03
4.365438e-04 1.481056e-04 1.743848e-02
8.847754e-03 1.849551e-02 -5.414110e-03
-1.970536e-02 -4.607642e-03 -7.377391e-03
-3.108905e-03 1.010486e-02 -2.150639e-02
-3.188207e-03 -8.564669e-03 1.555058e-02
9.281269e-03 -4.267895e-03 -2.140936e-02
8.298306e-03 -7.843107e-03 1.400956e-02
-3.182900e-03 9.342125e-03 -2.164720e-02
-5.228684e-03 -8.249965e-03 1.476613e-02
5.485567e-03 -9.137630e-03 1.459178e-02
7.182901e-03 -6.054325e-03 -2.136659e-02
-1.787187e-04 3.338619e-04 1.755432e-02
1.653566e-02 7.802029e-04 -1.482877e-02