# vtk DataFile Version 2.0
Electric current density generated by TTH
ASCII
DATASET UNSTRUCTURED_GRID
POINTS 1824 double
2.357789e-05 -5.774917e-21 -4.000103e-22
2.190014e-05 8.735038e-06 -4.000103e-22
-1.207479e-05 -2.025133e-05 -4.000103e-22
-1.057075e-05 -1.742656e-05 -4.744624e-07
-1.471385e-05 -1.812491e-05 8.397692e-07
2.211888e-05 -2.022731e-06 -1.611284e-06
-9.209997e-06 -1.983860e-05 1.631556e-06
-2.261019e-05 5.773461e-06 8.558618e-07
-8.915590e-06 2.009037e-05 -1.632790e-06
-1.230893e-05 -1.779753e-05 1.604364e-06
3.475976e-06 2.007232e-05 4.368709e-07
-1.346093e-05 1.776462e-05 -1.596568e-06
-1.016026e-05 1.975737e-05 1.610349e-06
-1.121033e-05 -2.074236e-05 -4.000103e-22
-2.060390e-05 8.944491e-06 -1.549208e-06
-1.135522e-05 -1.704381e-05 -7.224582e-07
2.090805e-05 6.837940e-06 -1.632303e-06
1.493297e-05 -1.593121e-05 -1.629522e-06
-2.146311e-05 -4.013223e-06 -1.629482e-06
-2.281844e-05 -4.863368e-06 8.634702e-07
1.290066e-05 1.631296e-05 -1.162461e-06
-2.159699e-05 3.575328e-06 1.632280e-06
-2.209587e-05 -2.788441e-06 -1.600217e-06
-1.153442e-05 2.030647e-05 -8.258288e-07
-1.032594e-05 -2.119651e-05 -4.000103e-22
1.026546e-05 2.096983e-05 -8.360536e-07
-2.081238e-05 1.054023e-05 -8.662929e-07
-1.640896e-05 1.505533e-05 1.600610e-06
-1.973397e-05 6.542117e-06 1.155036e-06
1.366734e-05 1.505977e-05 2.870260e-07
2.293793e-05 4.405725e-06 -8.198343e-07
-1.930342e-06 2.322648e-05 9.014699e-07
2.100745e-05 1.013869e-05 -8.712562e-07
-1.895843e-05 7.332998e-06 2.254995e-07
-1.661153e-05 -1.631412e-05 -9.362310e-07
-9.423185e-06 -2.161297e-05 -4.000103e-22
-1.240003e-05 -1.980818e-05 -7.986062e-07
9.017740e-07 -2.331705e-05 8.577932e-07
1.579111e-05 -1.296121e-05 6.086088e-07
2.041016e-05 -1.004792e-05 -1.421171e-06
5.488271e-06 -2.171861e-05 -1.568040e-06
2.140862e-05 -9.295203e-06 8.496930e-07
4.937636e-06 1.970331e-05 -5.749516e-08
1.900890e-05 -1.351675e-05 -8.734696e-07
-1.993415e-05 -4.421124e-06 5.813720e-07
-1.473004e-05 1.470160e-05 1.175858e-06
-8.503680e-06 -2.199100e-05 -4.000103e-22
1.197167e-05 -2.007839e-05 -7.855779e-07
1.560849e-05 1.729902e-05 9.115831e-07
-3.693800e-06 -2.141724e-05 -1.619441e-06
2.017750e-05 -9.463188e-06 1.597026e-06
9.012085e-06 -2.032754e-05 1.607035e-06
-1.770375e-05 1.367309e-05 1.577069e-06
-1.890894e-05 8.516819e-06 -1.100993e-06
2.142688e-05 -3.971354e-06 -1.625991e-06
-1.850926e-05 1.273205e-05 1.547915e-06
1.748616e-05 1.106637e-05 1.049874e-06
-7.569056e-06 -2.232994e-05 -4.000103e-22
-1.648675e-05 -1.437081e-05 1.631493e-06
-1.581841e-05 -1.505186e-05 1.629496e-06
-7.014031e-06 1.950431e-05 1.088461e-06
6.834120e-06 -2.096515e-05 -1.629710e-06
-3.273697e-06 -2.066471e-05 1.273618e-06
2.289874e-05 -4.544415e-06 -8.399810e-07
1.885682e-06 2.325107e-05 8.691498e-07
8.710526e-06 2.109408e-05 -1.377682e-06
-2.227630e-05 -4.554831e-07 1.598181e-06
1.978696e-05 -4.592799e-06 6.849236e-08
-6.620975e-06 -2.262918e-05 -4.000103e-22
8.761680e-07 2.332211e-05 8.511450e-07
-2.228465e-05 -1.039574e-06 -1.592049e-06
-1.531058e-05 1.757044e-05 9.034524e-07
2.125249e-05 7.657292e-07 -1.485580e-06
-1.763937e-05 -1.293484e-05 1.631620e-06
-1.811194e-05 -1.224827e-05 1.631201e-06
2.185659e-05 -5.036697e-06 1.559585e-06
1.491930e-05 -1.683399e-05 1.538117e-06
1.776721e-05 1.351153e-05 1.589184e-06
-1.947497e-05 -9.925454e-06 1.630882e-06
-5.661121e-06 -2.288818e-05 -4.000103e-22
-1.910653e-05 -1.060009e-05 1.630415e-06
-4.704197e-06 1.982970e-05 -4.680189e-07
2.038725e-05 8.428013e-06 -1.629048e-06
1.454350e-05 -1.424214e-05 3.768696e-07
-2.220273e-05 2.460784e-06 -1.584937e-06
4.593227e-06 -1.980898e-05 -2.730155e-07
-5.827582e-06 -2.140849e-05 1.615023e-06
2.029765e-05 7.515981e-07 0.000000e+00
2.103481e-05 6.037073e-06 -1.632036e-06
-4.863815e-06 2.038270e-05 -1.299092e-06
-4.691202e-06 -2.310648e-05 -4.000103e-22
-2.312698e-05 -3.011926e-06 8.772473e-07
2.177371e-05 -5.117400e-06 -1.577631e-06
-1.133356e-05 1.866453e-05 1.629548e-06
8.387252e-06 -1.853218e-05 -3.126996e-07
2.250002e-05 6.326460e-06 -7.928559e-07
-1.767803e-05 -1.373229e-05 -1.572698e-06
-1.363354e-05 -1.676870e-05 1.598838e-06
1.607191e-05 -1.689544e-05 -8.828296e-07
1.925911e-05 -7.744199e-06 1.121793e-06
1.786462e-05 1.504300e-05 8.243434e-07
-3.712943e-06 -2.328371e-05 -4.000103e-22
-4.289908e-06 2.302656e-05 -6.947219e-07
-1.067739e-05 -2.079273e-05 7.901633e-07
-4.821551e-06 -2.281273e-05 8.859673e-07
2.125575e-05 -8.402315e-07 1.488336e-06
-1.122283e-05 1.713639e-05 7.310776e-07
1.672948e-05 -1.163806e-05 4.658277e-07
1.966029e-05 -6.589954e-06 -1.097561e-06
-1.846414e-05 9.596464e-06 1.173663e-06
-7.839531e-07 2.253675e-05 -1.516712e-06
-1.203625e-05 1.958839e-05 1.254187e-06
2.151243e-05 9.650507e-06 -4.000103e-22
-2.728082e-06 -2.341953e-05 -4.000103e-22
-1.484601e-05 1.386451e-05 -7.473110e-08
7.867376e-06 -1.936320e-05 1.255681e-06
-2.120254e-05 -7.020270e-06 1.585960e-06
2.069137e-05 -1.090251e-05 7.643673e-07
-2.163065e-05 -8.778330e-06 -8.421105e-07
-1.771158e-05 1.305362e-05 -1.632154e-06
1.329078e-05 -1.818234e-05 1.527721e-06
-1.313890e-05 1.899535e-05 1.157737e-06
-7.551049e-06 -2.083738e-05 1.618464e-06
-2.171947e-05 2.829106e-06 1.632631e-06
-1.738370e-06 -2.351372e-05 -4.000103e-22
-1.041643e-05 1.972163e-05 -1.593277e-06
2.225241e-05 6.977022e-06 8.799495e-07
1.923882e-05 8.279652e-06 1.291275e-06
1.527601e-05 -1.765267e-05 -8.410626e-07
6.691186e-06 2.039985e-05 -1.562399e-06
-2.326801e-05 1.258294e-06 -9.083071e-07
-1.334647e-05 1.609958e-05 1.265447e-06
-6.005678e-06 -1.942721e-05 -2.717059e-07
-6.942367e-06 2.114033e-05 1.604177e-06
-1.551124e-05 -1.466007e-05 -1.518205e-06
-7.455682e-07 -2.356610e-05 -4.000103e-22
2.129237e-06 2.224677e-05 1.582482e-06
-6.347391e-06 -2.140029e-05 -1.589044e-06
1.821520e-05 9.094202e-06 3.916964e-07
1.884433e-05 7.873354e-06 -5.929182e-07
1.875984e-05 1.213347e-05 1.584178e-06
-1.996124e-05 -5.878178e-06 1.173367e-06
-2.060792e-05 -8.647843e-06 1.582372e-06
1.766607e-05 1.369815e-05 -1.580888e-06
1.614167e-06 -2.057412e-05 9.787634e-07
-7.953466e-06 -2.086152e-05 -1.587981e-06
2.485596e-07 -2.357658e-05 -4.000103e-22
1.112160e-05 2.057819e-05 7.581023e-07
-2.033258e-05 9.580851e-07 -3.747869e-07
1.926347e-05 1.113261e-05 1.604578e-06
8.907706e-06 -1.864338e-05 1.011007e-06
-1.238725e-05 -1.620727e-05 -5.272470e-07
-2.300565e-06 2.224450e-05 1.578655e-06
5.246117e-06 -2.159138e-05 1.609872e-06
2.015017e-05 -1.182611e-05 8.076475e-07
-7.511648e-06 2.065695e-05 -1.632778e-06
2.323504e-05 2.250162e-06 8.426026e-07
1.242245e-06 -2.354514e-05 -4.000103e-22
2.186843e-05 4.748299e-06 -1.574646e-06
1.840723e-06 -2.220210e-05 1.598741e-06
1.513073e-05 1.782517e-05 -7.772091e-07
-7.040967e-06 -1.929664e-05 8.348528e-07
-1.619353e-05 1.573707e-05 -1.504271e-06
1.741503e-05 -1.400868e-05 -1.582059e-06
8.380324e-06 -2.182381e-05 7.837808e-07
-6.028350e-06 2.257943e-05 -7.968248e-07
-1.280445e-05 -1.609718e-05 8.797147e-07
1.644383e-05 1.537816e-05 1.530677e-06
2.233723e-06 -2.347184e-05 -4.000103e-22
1.585714e-06 2.182959e-05 -1.632149e-06
1.124036e-05 -1.875321e-05 -1.631163e-06
1.793724e-05 -1.258353e-05 -1.632817e-06
2.186873e-05 -8.288990e-06 -7.663301e-07
9.509959e-06 -1.919341e-05 -1.546655e-06
-9.716929e-06 1.783834e-05 -7.273756e-08
1.059535e-05 -1.967818e-05 -1.582254e-06
1.362702e-05 -1.900766e-05 -7.647883e-07
2.095096e-05 -7.853855e-06 1.575557e-06
2.082109e-05 -5.706812e-06 -1.593957e-06
3.221228e-06 -2.335681e-05 -4.000103e-22
-7.983865e-07 2.330815e-05 8.779756e-07
1.695589e-05 -1.230408e-05 -1.295098e-06
-7.917761e-06 2.199816e-05 7.798068e-07
-2.090274e-05 -7.305633e-06 -1.621128e-06
-2.069814e-06 -2.143618e-05 -1.581163e-06
-4.638342e-06 2.189479e-05 -1.573896e-06
-2.058036e-05 -2.603120e-06 1.107387e-06
-2.131371e-05 6.842187e-06 1.572691e-06
-2.238568e-05 6.763341e-06 -7.698197e-07
-4.950704e-06 -2.137874e-05 1.633166e-06
4.203007e-06 -2.320025e-05 -4.000103e-22
6.674075e-06 2.239488e-05 -8.005544e-07
4.114571e-06 -2.254155e-05 -1.314438e-06
-1.903657e-05 -1.042562e-05 -1.615400e-06
-1.827061e-05 -1.461540e-05 -7.468478e-07
-6.338351e-06 -2.057052e-05 1.578280e-06
-1.387170e-05 -1.582644e-05 -1.363115e-06
-1.427015e-05 -1.523592e-05 1.234167e-06
-1.977551e-05 -8.006419e-06 1.515000e-06
1.380036e-05 -1.760963e-05 -1.576024e-06
2.109549e-05 -2.449399e-06 -1.471957e-06
5.177313e-06 -2.300244e-05 -4.000103e-22
-4.509954e-07 2.237438e-05 1.574389e-06
-4.623152e-06 -2.049251e-05 1.337500e-06
1.664641e-06 2.030492e-05 4.438921e-07
1.095036e-05 1.718656e-05 4.632233e-07
-1.067877e-05 -1.969991e-05 1.566051e-06
-1.976407e-05 -4.720720e-06 -1.661610e-07
2.119654e-05 8.018304e-07 1.459423e-06
-2.019382e-05 3.379277e-06 7.113359e-07
-1.807991e-05 -1.057200e-05 1.290634e-06
-1.402960e-05 -1.872265e-05 -7.492483e-07
6.142413e-06 -2.276374e-05 -4.000103e-22
-2.019695e-06 2.328772e-05 -7.881341e-07
-2.051630e-05 -8.003213e-06 -1.631335e-06
1.380284e-05 1.619034e-05 1.489738e-06
4.923304e-07 2.237209e-05 1.574779e-06
-2.073366e-05 4.622060e-06 -1.474536e-06
-8.274257e-06 1.856755e-05 2.294030e-07
1.890454e-05 1.367478e-05 8.618333e-07
2.029957e-05 -6.975934e-07 0.000000e+00
1.816041e-05 1.134044e-05 -1.543290e-06
2.118652e-05 -8.002543e-07 -1.454320e-06
2.108647e-05 1.054882e-05 -4.000103e-22
7.096593e-06 -2.248456e-05 -4.000103e-22
2.026711e-05 -5.443901e-06 1.321801e-06
-5.708487e-06 2.047771e-05 -1.481997e-06
2.017126e-05 9.810786e-06 -1.559219e-06
-9.934506e-06 2.116159e-05 -7.838358e-07
2.105338e-05 2.531977e-06 1.456078e-06
-1.548045e-05 -1.754446e-05 -7.457176e-07
4.342455e-06 2.023848e-05 -1.056247e-06
-8.385276e-06 2.085735e-05 -1.543022e-06
8.471239e-06 -2.182263e-05 -7.229403e-07
4.722119e-06 -2.289806e-05 7.794248e-07
8.038155e-06 -2.216540e-05 -4.000103e-22
1.736503e-05 -1.087730e-05 -7.432496e-07
-8.615630e-06 1.929644e-05 -1.416858e-06
-2.036632e-05 -9.868257e-06 -1.481904e-06
1.897511e-05 -9.030278e-06 -1.342214e-06
-2.359162e-07 -2.128198e-05 1.493228e-06
2.066285e-05 4.232699e-06 -1.392821e-06
1.654861e-05 -1.364853e-05 -1.556699e-06
[...]
POINT_DATA 1824
VECTORS 10.000GHz_fone_imag double
-5.698535e-04 6.194222e-04 1.859418e-02
-1.404909e-03 -1.119495e-03 1.717116e-02
-1.124393e-05 2.568675e-04 1.926807e-02
-4.306081e-03 -7.925155e-03 -2.725405e-02
6.818742e-03 6.708269e-03 1.542791e-02
2.071149e-02 -1.509464e-03 3.677888e-03
1.119837e-02 2.156176e-02 -1.626909e-03
9.642583e-03 -2.830288e-03 1.429321e-02
-1.034480e-02 2.283624e-02 -5.600154e-04
1.375054e-02 2.115147e-02 -6.533873e-03
-1.931379e-03 -8.379471e-03 -3.117858e-02
-1.346991e-02 1.837964e-02 2.067231e-03
1.095497e-02 -1.969746e-02 4.588973e-03
-4.782029e-04 -3.980019e-04 1.865898e-02
-1.937187e-02 8.128100e-03 6.093871e-03
-5.879453e-03 -9.909728e-03 -2.817651e-02
2.345990e-02 7.568122e-03 -3.351059e-04
1.568333e-02 -1.612055e-02 -2.025261e-03
-2.467732e-02 -4.178954e-03 -2.762639e-03
1.048201e-02 1.396007e-03 1.524539e-02
1.167931e-02 1.406781e-02 -2.152107e-02
2.365314e-02 -3.503917e-03 -1.282030e-03
-2.239262e-02 -3.659353e-03 4.824978e-03
-4.485301e-03 9.019636e-03 1.707884e-02
-1.744305e-04 -5.834373e-04 1.836474e-02
4.594392e-03 9.890684e-03 1.666422e-02
-9.452975e-03 5.876976e-03 1.565598e-02
1.516180e-02 -1.330012e-02 4.277986e-03
1.863228e-02 -6.429562e-03 -2.174609e-02
-1.937775e-03 -3.662343e-03 -2.856724e-02
9.798091e-03 1.917211e-03 1.672338e-02
1.097263e-03 -1.129622e-02 1.553262e-02
9.846041e-03 4.262284e-03 1.456813e-02
3.757717e-03 -1.744500e-03 -3.124062e-02
-8.530687e-03 -8.280523e-03 1.553030e-02
5.655379e-04 2.420042e-04 1.749656e-02
-5.795442e-03 -7.979678e-03 1.603765e-02
5.870190e-05 1.024116e-02 1.419030e-02
-8.624901e-03 6.158081e-03 -2.850646e-02
1.645392e-02 -8.976290e-03 9.156280e-03
6.022942e-03 -2.076296e-02 5.591245e-03
-9.514660e-03 4.298389e-03 1.608595e-02
6.436234e-04 1.690077e-03 -3.223074e-02
8.691404e-03 -6.792952e-03 1.534580e-02
1.047388e-02 1.261912e-03 -2.908712e-02
1.505804e-02 -1.401249e-02 -2.092097e-02
2.693545e-04 6.314133e-04 1.734112e-02
4.726398e-03 -7.814704e-03 1.691366e-02
-8.578026e-03 -7.685776e-03 1.472842e-02
-3.470782e-03 -2.505976e-02 -5.326730e-03
-2.078520e-02 9.782959e-03 3.239092e-03
-8.341842e-03 2.158672e-02 2.408799e-03
1.732350e-02 -1.353784e-02 5.271972e-03
-1.762002e-02 9.432806e-03 -2.141673e-02
2.396821e-02 -5.267191e-03 -2.264099e-03
1.729269e-02 -1.225428e-02 6.537180e-03
-1.499946e-02 -1.034840e-02 -2.372776e-02
-2.115455e-04 -5.681183e-04 1.847329e-02
1.851198e-02 1.666074e-02 -2.426528e-03
1.808764e-02 1.696939e-02 -2.637708e-03
6.930532e-03 -1.899840e-02 -2.300955e-02
5.970870e-03 -2.112474e-02 1.257703e-03
3.288215e-03 2.073795e-02 -1.823938e-02
1.010965e-02 -2.644721e-03 1.573242e-02
-1.012348e-04 -1.180255e-02 1.568258e-02
6.368422e-03 1.638061e-02 1.021701e-02
2.315307e-02 6.786041e-04 2.744028e-03
-3.185827e-03 -8.197370e-04 -3.157107e-02
5.840031e-04 2.196949e-04 1.852046e-02
-5.273457e-04 -1.079370e-02 1.638931e-02
-2.269237e-02 -9.418472e-04 4.062425e-03
6.730065e-03 -8.454309e-03 1.567213e-02
2.385702e-02 1.839442e-03 -9.718097e-03
2.043151e-02 1.446764e-02 -2.009533e-03
2.111816e-02 1.447659e-02 -1.830445e-03
-2.174862e-02 4.290852e-03 5.419038e-03
-1.409134e-02 1.495371e-02 7.746361e-03
-1.777642e-02 -1.377158e-02 5.081377e-03
2.037827e-02 1.096838e-02 -2.499174e-03
2.335426e-04 3.340847e-04 1.723484e-02
2.088370e-02 1.198997e-02 -8.214640e-04
-2.801220e-03 8.726199e-03 -2.932087e-02
2.216988e-02 9.547026e-03 -2.442357e-04
-2.599529e-03 4.558254e-03 -3.039649e-02
-2.235603e-02 2.135309e-03 4.794339e-03
9.047433e-04 -5.877815e-03 -3.154270e-02
5.987618e-03 2.284207e-02 2.526008e-03
-6.208846e-05 1.625183e-04 -3.210120e-02
2.425059e-02 7.211585e-03 -2.305758e-03
-3.697051e-03 1.891602e-02 -1.862842e-02
-4.217432e-04 3.125220e-04 1.736334e-02
1.058664e-02 1.547247e-03 1.587503e-02
2.172422e-02 -4.266041e-03 4.277426e-03
1.231085e-02 -2.106140e-02 -2.234277e-03
2.504246e-03 -6.010868e-03 -3.101152e-02
9.374725e-03 2.737058e-03 1.733213e-02
-1.697497e-02 -1.204044e-02 6.251429e-03
1.677402e-02 1.957482e-02 -6.923905e-03
7.376447e-03 -8.273736e-03 1.686029e-02
-1.619369e-02 8.298543e-03 -2.217086e-02
-7.189810e-03 -6.927197e-03 1.647288e-02
-6.989787e-04 -3.229018e-04 1.836601e-02
-2.531367e-03 8.961576e-03 1.585629e-02
3.839862e-03 8.390725e-03 1.695077e-02
2.804908e-03 1.052062e-02 1.623566e-02
-2.388503e-02 7.885853e-04 -1.171156e-02
8.212901e-03 -1.295967e-02 -2.846137e-02
-7.331210e-03 5.532779e-03 -3.049323e-02
1.768119e-02 -5.745098e-03 -2.145404e-02
1.849697e-02 -8.058030e-03 -1.974091e-02
5.036537e-04 2.062235e-02 6.357994e-03
8.199357e-03 -1.383869e-02 1.209329e-02
5.023511e-04 -1.103642e-03 1.805809e-02
-4.032595e-05 -4.431284e-04 1.956667e-02
-1.546927e-03 1.152755e-03 -3.185071e-02
-7.591054e-03 1.678903e-02 -1.938011e-02
1.924036e-02 6.368556e-03 4.942496e-03
-9.130470e-03 3.923652e-03 1.638579e-02
-8.473963e-03 -4.381985e-03 1.590801e-02
-1.922679e-02 1.397780e-02 -5.499777e-05
-1.304158e-02 1.772792e-02 6.995552e-03
8.169165e-03 -1.182880e-02 1.388535e-02
7.588169e-03 2.135699e-02 8.129267e-04
2.253902e-02 -3.630720e-03 3.276847e-04
1.766814e-04 -1.352064e-04 1.899729e-02
-1.068477e-02 2.064133e-02 3.491927e-03
-9.876937e-03 -2.530508e-03 1.544519e-02
-1.915093e-02 -9.680899e-03 -1.843118e-02
7.031524e-03 -7.261184e-03 1.609986e-02
7.709923e-03 2.142266e-02 -8.890236e-03
-1.171328e-02 1.855030e-04 1.555515e-02
1.303799e-02 -1.735157e-02 -1.764639e-02
-1.881754e-03 -5.244666e-03 -3.050941e-02
7.293671e-03 -1.988108e-02 2.145412e-03
-1.711526e-02 -1.700549e-02 -1.089513e-02
7.025337e-04 3.794886e-05 1.847050e-02
-1.802938e-03 -2.028170e-02 4.505323e-03
-5.963839e-03 -2.126895e-02 4.811294e-03
-7.058568e-03 -3.377574e-03 -3.012274e-02
8.159330e-03 3.739234e-03 -2.825389e-02
-1.855625e-02 -1.251986e-02 4.988844e-03
2.026560e-02 5.397622e-03 -2.080354e-02
2.082344e-02 8.661035e-03 4.552778e-03
1.665513e-02 1.280628e-02 4.552272e-03
-6.278024e-04 1.700077e-02 -2.404173e-02
-8.402842e-03 -2.219374e-02 4.427076e-03
7.826618e-04 7.618054e-04 1.864072e-02
-5.531450e-03 -8.563132e-03 1.638266e-02
-8.117833e-03 5.852031e-04 -3.118783e-02
-2.048644e-02 -1.197098e-02 3.638349e-03
-7.644293e-03 1.678541e-02 -2.337619e-02
-6.083636e-03 -6.428336e-03 -2.943082e-02
2.281370e-03 -2.126204e-02 4.883218e-03
-5.946466e-03 2.364854e-02 3.241702e-03
-8.966192e-03 5.899622e-03 1.677970e-02
-7.373371e-03 2.318188e-02 3.638897e-04
-1.179592e-02 -1.080401e-03 1.639463e-02
-5.509324e-04 3.745347e-04 1.904553e-02
2.206672e-02 4.586617e-03 4.848753e-03
-1.975977e-03 2.263668e-02 3.848067e-03
6.529908e-03 8.301347e-03 1.666535e-02
4.866909e-03 1.402211e-02 -2.679271e-02
-1.413637e-02 1.451788e-02 7.741478e-03
1.590060e-02 -1.258113e-02 7.237151e-03
-2.486977e-03 7.557510e-03 1.609190e-02
-2.342955e-03 8.440135e-03 1.533124e-02
7.850665e-03 1.257544e-02 -2.526588e-02
-1.515947e-02 -1.341069e-02 7.662461e-03
1.538083e-04 -2.192162e-04 1.878330e-02
2.147862e-03 2.477304e-02 -2.075606e-03
1.218121e-02 -1.900525e-02 -2.074460e-03
1.940752e-02 -1.423632e-02 -2.640778e-03
8.893748e-03 -3.211151e-03 1.750321e-02
1.137234e-02 -2.270270e-02 -8.510506e-03
-5.770334e-05 4.872024e-04 -3.244968e-02
9.064126e-03 -1.979776e-02 4.021791e-03
5.151741e-03 -7.863551e-03 1.502303e-02
-2.102254e-02 7.630872e-03 6.213166e-03
2.402150e-02 -5.927354e-03 -7.373630e-03
1.279288e-04 7.989137e-04 1.908897e-02
7.309103e-04 -1.181699e-02 1.626107e-02
1.859336e-02 -1.156124e-02 -1.747485e-02
3.327194e-03 -8.953896e-03 1.685774e-02
-2.131743e-02 -7.905749e-03 4.151720e-03
-2.597924e-03 -2.505469e-02 -6.470919e-03
-4.733142e-03 2.127211e-02 5.493753e-03
1.916725e-02 2.403938e-03 -2.172120e-02
2.127112e-02 -6.437240e-03 4.720321e-03
-9.301846e-03 2.474309e-03 1.665149e-02
5.867641e-03 2.442018e-02 -1.154228e-03
1.289049e-04 9.483271e-04 1.824305e-02
2.868114e-03 9.680784e-03 1.723801e-02
2.309069e-03 -1.762083e-02 1.120045e-02
-2.229079e-02 -1.190542e-02 -5.067548e-03
-5.489958e-03 -6.721516e-03 1.620205e-02
7.504804e-03 2.356391e-02 -7.556461e-03
-1.516204e-02 -1.699233e-02 -1.683727e-02
1.466925e-02 1.535373e-02 -1.999398e-02
2.275672e-02 7.519264e-03 -1.114925e-02
1.366973e-02 -1.691587e-02 5.473953e-03
2.446708e-02 -2.591616e-03 -1.187146e-02
-9.152229e-04 1.006699e-03 1.749936e-02
6.900380e-04 -2.055896e-02 4.254014e-03
4.920431e-03 2.148116e-02 -1.736882e-02
-4.979173e-04 -7.652051e-03 -3.100092e-02
-4.067312e-03 -6.960680e-03 -3.170277e-02
1.074930e-02 1.805148e-02 5.245698e-03
-3.930763e-03 -1.432624e-03 -3.093345e-02
-2.317035e-02 -1.927257e-03 -1.062376e-02
1.311330e-02 -2.325698e-03 -2.793647e-02
1.901975e-02 1.112457e-02 -1.889652e-02
-5.634541e-03 -7.599448e-03 1.667325e-02
-2.828647e-04 -1.949385e-05 1.737456e-02
-1.368066e-03 9.664717e-03 1.694536e-02
-2.327217e-02 -8.995305e-03 8.269466e-04
-1.641736e-02 -1.892598e-02 -1.209742e-02
-1.120219e-03 -2.058715e-02 3.858899e-03
-2.319030e-02 4.078184e-03 -1.211056e-02
2.119148e-03 -3.564692e-03 -3.291974e-02
-8.936531e-03 -6.030871e-03 1.439496e-02
-6.638702e-05 4.775028e-04 -3.170453e-02
2.141070e-02 1.342812e-02 -1.036546e-02
2.367085e-02 -1.219720e-03 -1.329820e-02
4.497844e-04 3.504677e-04 1.899792e-02
1.988965e-04 7.896047e-05 1.869001e-02
-2.212079e-02 5.964470e-03 -1.647406e-02
-7.241599e-03 2.312305e-02 -1.322181e-02
1.941105e-02 9.397713e-03 6.189235e-03
-4.300057e-03 8.292497e-03 1.603615e-02
-2.435276e-02 -2.452397e-03 -1.304003e-02
-5.558623e-03 -6.704009e-03 1.747552e-02
3.340362e-03 1.860797e-02 -2.231794e-02
-8.156553e-03 2.070513e-02 6.941072e-03
2.926375e-03 -7.973790e-03 1.768282e-02
-2.104196e-03 7.255319e-03 1.589065e-02
2.100249e-04 1.489552e-03 1.744623e-02
9.312894e-03 -7.395939e-03 -2.679843e-02
-1.002790e-02 1.983244e-02 -1.567612e-02
-1.856907e-02 -8.488800e-03 8.036782e-03
2.148524e-02 -9.577149e-03 -1.457497e-02
-2.443752e-04 2.412449e-02 -1.212380e-02
2.245777e-02 4.284603e-03 -1.598293e-02
2.042975e-02 -1.623146e-02 -8.936212e-03
-1.873380e-02 8.214645e-03 -1.853869e-02
1.928764e-03 -8.859899e-03 1.778330e-02
-3.433450e-03 2.404547e-02 -1.219274e-02
-9.670207e-04 1.406230e-04 1.804029e-02
-5.165121e-03 -1.996378e-02 5.727329e-03
4.444700e-04 -1.007421e-02 1.663656e-02
2.080268e-02 -1.273593e-02 -1.432370e-02
-3.348282e-03 1.752845e-02 -2.102373e-02
9.138304e-03 -4.751319e-03 -2.910721e-02
1.301570e-02 -1.726548e-02 6.093214e-03
2.430588e-03 -1.934556e-02 -2.346718e-02
1.973449e-02 -4.995813e-03 8.563638e-03
-6.543265e-04 7.711047e-03 -3.054706e-02
-1.714745e-04 -2.176915e-02 6.487246e-03
-1.414478e-04 -6.320552e-04 1.895494e-02
-4.150510e-03 7.638030e-03 1.698564e-02
9.822645e-03 1.352384e-02 -2.192058e-02
-8.864488e-04 2.001613e-02 -1.908915e-02
-6.514707e-03 1.430142e-02 -2.379649e-02
7.735990e-03 6.317136e-03 1.654236e-02
-9.296830e-03 -3.221370e-03 1.660307e-02
1.760819e-02 -1.243126e-02 -1.917243e-02
-1.098058e-02 -1.587817e-02 6.535205e-03
-1.280047e-02 3.131399e-03 -2.694595e-02
8.510309e-03 6.759636e-03 1.572726e-02
6.426251e-04 -3.049183e-04 1.891008e-02
-4.276512e-03 1.812619e-03 -3.237825e-02
-6.764763e-03 2.036449e-02 6.986152e-03
-6.296044e-03 7.454750e-03 1.685678e-02
2.007273e-02 -1.116954e-02 2.296673e-03
-1.034244e-02 -2.198733e-02 -9.839425e-03
-1.412529e-02 -1.682502e-02 5.333538e-03
-2.015782e-02 1.335298e-02 -1.092256e-02
-2.214244e-02 -6.541540e-03 4.788421e-03
5.400055e-03 -1.929532e-02 -2.475929e-02
-7.003843e-03 -1.678690e-02 -2.242444e-02
3.486847e-04 9.160785e-04 1.800031e-02
-4.456966e-03 -1.404439e-04 -3.085021e-02
-1.918702e-02 -1.014485e-02 -1.781438e-02
-1.043813e-02 -3.056427e-04 1.648062e-02
7.660952e-03 -2.055595e-02 2.940213e-03
1.822568e-02 1.664184e-02 -1.028711e-02
2.118192e-03 9.313345e-03 1.710375e-02
-1.876304e-02 -1.507130e-02 3.215690e-04
-2.092431e-02 -1.462445e-03 -1.940334e-02
-2.415229e-02 -5.322709e-03 -2.249388e-03
9.840266e-03 9.011502e-03 -2.771331e-02
-9.731409e-04 -8.773678e-04 1.798596e-02
-1.044300e-02 1.908478e-02 -1.661613e-02
1.630879e-02 1.412341e-02 -1.921589e-02
-1.266584e-02 -3.186869e-03 -2.892392e-02
2.194566e-03 -1.006987e-02 1.621794e-02
6.842836e-03 -1.173912e-02 -2.522856e-02
9.453345e-03 1.943833e-02 6.516385e-03
-6.814819e-03 -2.353974e-02 -9.565583e-03
-1.862478e-02 1.753879e-02 -1.121649e-02
-1.616570e-02 1.558022e-02 -5.547909e-03
-1.534034e-02 1.664915e-02 3.683940e-03
4.602701e-04 -5.310660e-04 1.816492e-02
2.403266e-02 -1.433939e-03 -8.600199e-03
-2.714707e-03 2.527636e-02 -6.773395e-03
6.518926e-03 -2.285724e-02 -1.044317e-02
8.296998e-03 -9.394685e-03 -2.811654e-02
5.351031e-03 8.127362e-03 1.442379e-02
-9.901423e-03 -1.346333e-03 1.614401e-02
1.009621e-02 2.021072e-02 -1.695130e-02
-9.609442e-03 -8.140638e-03 -2.766865e-02
7.478017e-04 -2.024622e-02 -2.120949e-02
1.180631e-02 -2.025528e-02 -1.611497e-02
3.126057e-04 -4.917313e-04 1.868649e-02
-1.990814e-02 -3.089944e-03 7.249138e-03
2.162902e-03 9.488196e-03 1.639240e-02
-2.490813e-02 -8.109412e-03 -9.699370e-03
-7.636029e-03 1.990871e-02 7.842727e-03
6.261847e-04 2.023448e-02 9.076490e-03
-4.081920e-03 2.227894e-02 -1.746679e-02
-1.901278e-02 9.890768e-03 4.652676e-03
-2.299151e-02 7.443706e-03 -1.497514e-03
2.913914e-03 5.865318e-04 -2.990460e-02
-2.527623e-03 7.193827e-03 -3.071312e-02
1.379971e-03 -8.238157e-04 1.807688e-02
-7.119954e-03 -2.017966e-02 -1.323639e-02
-1.477254e-02 8.823024e-03 8.847419e-03
1.035988e-02 -2.250162e-02 -7.170849e-03
1.179293e-02 2.225463e-02 -6.275774e-03
-6.013567e-03 7.444964e-03 1.717872e-02
4.451664e-03 8.002187e-03 1.654764e-02
1.969091e-02 -3.938847e-03 7.955462e-03
7.259730e-03 -2.255969e-02 -1.248361e-03
3.990772e-03 2.270659e-02 -1.546417e-02
1.677025e-02 -7.416921e-03 1.018836e-02
-4.702772e-04 4.332174e-04 1.726504e-02
5.856067e-04 1.037349e-03 1.811621e-02
1.047604e-02 -1.805773e-02 -2.067893e-02
9.045103e-03 -4.675482e-03 1.577615e-02
-1.030051e-02 6.819065e-03 -2.809992e-02
-4.705586e-03 7.126691e-03 1.718746e-02
1.044770e-02 -1.098965e-03 1.663081e-02
-1.244920e-02 3.365118e-03 -2.666195e-02
-1.311384e-02 2.165320e-02 -5.001620e-03
6.243699e-03 2.108552e-02 6.619094e-03
-9.308965e-03 -1.710933e-02 7.191144e-03
5.457196e-03 2.197072e-02 4.258251e-03
-1.074053e-03 -2.252786e-04 1.825844e-02
-9.131127e-03 1.509935e-03 1.709664e-02
-4.688582e-03 -1.415703e-02 -2.674170e-02
-2.267519e-02 6.552293e-04 2.371215e-03
2.159269e-02 1.186277e-03 1.425183e-03
-1.843437e-02 1.000295e-02 6.588731e-03
-1.392717e-02 1.921874e-02 -1.147168e-03
-2.346254e-02 -4.517900e-03 -1.728056e-02
2.522626e-03 -1.319843e-02 -2.639464e-02
3.451466e-03 -1.725016e-04 -3.138156e-02
1.590296e-02 1.467365e-02 -1.894180e-02
-1.462748e-04 -3.725207e-04 1.961092e-02
1.729888e-02 2.370660e-03 -2.552500e-02
-8.383039e-03 1.923814e-02 7.705741e-03
-8.091678e-05 -1.036133e-02 1.600089e-02
1.019927e-02 3.541469e-03 -2.581779e-02
-3.780882e-03 -8.339509e-03 -2.995724e-02
4.062063e-03 -1.060204e-03 -3.245547e-02
1.294980e-02 2.192157e-02 -1.083387e-02
2.186389e-02 -7.121049e-03 3.742526e-03
5.227283e-03 2.201905e-02 5.024095e-03
-1.743556e-03 -9.852287e-03 1.619435e-02
1.005087e-03 -3.599417e-04 1.889285e-02
-2.029053e-02 4.341967e-03 7.645325e-03
-7.441204e-03 5.718985e-03 1.664673e-02
1.939536e-02 9.946529e-03 -1.850734e-02
-1.802410e-02 -1.282168e-02 -1.964354e-02
-7.808118e-03 -5.447911e-03 -2.943198e-02
2.205764e-02 -1.295023e-03 -1.804779e-02
-7.247893e-03 2.123198e-02 -1.670574e-02
-1.117137e-02 -1.995023e-02 -1.694114e-02
8.495665e-03 2.269503e-02 -1.137450e-02
1.189710e-02 8.443067e-03 -2.629310e-02
1.804361e-04 -5.448202e-05 1.929365e-02
-4.586357e-03 -2.228113e-02 -1.635946e-02
1.905464e-02 1.011153e-02 -1.578259e-02
6.927744e-04 -8.808168e-05 -3.208176e-02
-1.558394e-02 -1.640949e-02 4.414194e-03
1.509955e-02 -1.423736e-02 5.862293e-03
1.023643e-02 4.098681e-04 1.741090e-02
-9.606798e-03 8.479110e-04 1.728213e-02
1.995489e-02 -1.207364e-02 -1.273694e-02
1.508360e-02 -7.183280e-03 -2.557487e-02
4.629152e-04 -1.194648e-02 -3.016273e-02
3.582971e-04 -6.220009e-04 1.876475e-02
8.604025e-03 -4.177826e-03 1.726354e-02
6.869702e-03 1.346008e-02 -2.287640e-02
1.500647e-02 -1.459687e-02 5.517722e-03
1.704631e-03 9.185982e-03 1.696838e-02
4.520178e-03 7.397787e-03 1.681204e-02
-5.556646e-03 -8.306803e-03 1.689762e-02
-3.512678e-03 7.688701e-03 1.624596e-02
-2.516575e-03 7.018476e-03 -2.686807e-02
2.057153e-02 1.148190e-03 -1.852215e-02
-1.963642e-03 -8.364820e-03 1.670535e-02
5.613855e-04 2.106001e-04 1.905243e-02
1.958963e-03 2.024977e-02 8.519768e-03
1.344292e-02 1.837452e-02 5.260444e-03
1.114667e-03 -1.210520e-03 -3.214620e-02
2.195790e-04 -8.897154e-03 1.723329e-02
-1.818041e-03 -8.241546e-03 -2.968447e-02
-2.042849e-03 2.480204e-02 -3.720094e-03
-2.893504e-03 -2.100935e-02 5.664079e-03
-1.763751e-02 -6.756478e-03 -2.416401e-02
1.194151e-02 3.440659e-04 -2.878924e-02
-8.796472e-03 1.244450e-02 -2.576438e-02
-1.754127e-04 -5.553779e-05 1.894633e-02
2.128830e-02 3.956987e-03 5.781786e-03
2.833142e-03 -4.111144e-03 -3.078767e-02
2.504437e-03 -1.012823e-02 1.745068e-02
6.075116e-03 5.826165e-03 1.690804e-02
-8.039519e-03 -1.708604e-03 1.589581e-02
-1.442059e-02 -1.104259e-02 -2.141626e-02
8.533465e-03 2.557903e-03 1.731234e-02
-3.790332e-05 8.950580e-03 1.632129e-02
1.038193e-02 1.604787e-02 1.052203e-02
3.076710e-03 7.954084e-03 1.688445e-02
-2.241437e-04 8.600199e-05 1.935360e-02
-6.699910e-03 5.856529e-03 1.797277e-02
-1.828717e-03 -2.157139e-02 -2.051330e-02
1.030789e-02 -1.750636e-02 -1.939659e-02
-1.493912e-02 -4.001360e-03 -2.494621e-02
-2.222005e-02 1.470274e-04 5.381028e-03
1.739348e-02 -1.752378e-02 -7.781735e-03
7.826194e-03 -9.359735e-03 -2.932650e-02
-1.925417e-02 1.364621e-02 -5.862180e-03
9.136160e-03 2.965617e-03 1.643615e-02
-6.419945e-03 7.110652e-03 1.691293e-02
1.535008e-04 -5.141951e-04 1.874944e-02
-1.532389e-02 1.610863e-02 -1.724976e-02
2.188093e-02 7.590848e-03 -1.769265e-02
7.248319e-03 -2.596368e-03 1.741329e-02
-2.013441e-02 2.713645e-03 -1.512005e-02
1.589695e-02 1.633436e-02 -1.730920e-02
-8.406642e-03 -1.129976e-02 -2.621954e-02
1.880177e-02 2.430239e-03 7.837883e-03
1.296897e-02 1.796732e-02 -1.905974e-02
2.348040e-02 -7.728133e-03 -9.448638e-03
2.552309e-04 -5.479443e-03 -3.211058e-02
5.471881e-04 2.688591e-04 1.675116e-02
2.300394e-04 2.589423e-04 1.855372e-02
-1.150489e-02 1.620140e-02 -1.733373e-02
-8.587271e-03 1.756026e-03 1.724504e-02
1.575489e-02 1.610612e-02 3.989020e-03
-1.852800e-02 -1.537370e-02 -1.368980e-02
7.330902e-03 -4.660734e-04 -3.101419e-02
7.953458e-03 1.203426e-02 -2.674068e-02
-6.321599e-03 -5.885586e-03 -2.949581e-02
-2.212335e-02 9.026969e-03 -7.256468e-04
-4.730682e-03 5.721549e-03 1.561365e-02
2.485161e-02 5.983245e-03 -5.468779e-03
-5.746903e-04 1.291596e-03 1.822062e-02
-2.084826e-02 5.381554e-03 6.053790e-03
-2.185997e-03 -1.869216e-03 -3.080464e-02
3.149718e-03 -8.594890e-03 1.755348e-02
2.026406e-02 -3.270013e-04 6.854970e-03
-1.332968e-02 5.958467e-04 -2.762461e-02
-9.467257e-03 -1.629161e-02 -2.321490e-02
-1.833239e-03 -1.077561e-02 -2.926621e-02
-8.934854e-04 2.526524e-02 -7.963640e-03
2.169508e-03 -5.320500e-03 -3.211222e-02
-6.971571e-03 -2.026951e-02 -1.840007e-02
-1.251115e-03 5.707384e-06 1.857727e-02
-7.179362e-03 2.327672e-02 4.551509e-04
-1.698242e-02 -1.464114e-02 5.844813e-03
7.658633e-03 -4.906386e-03 1.655402e-02
-2.972911e-03 7.783729e-03 1.658267e-02
-1.518762e-03 -1.961666e-02 -2.369210e-02
1.691562e-02 1.009641e-02 8.222675e-03
-8.857762e-04 -2.029144e-03 -3.069618e-02
5.318512e-04 -2.103078e-02 -1.667902e-02
-2.194147e-02 -5.840711e-03 4.336241e-03
1.680877e-02 1.885517e-02 -7.853298e-03
-3.272745e-04 -1.261730e-03 1.796667e-02
8.138406e-03 2.058131e-02 3.353047e-03
2.239561e-02 -8.649528e-03 -1.379947e-02
-1.327982e-02 1.426686e-02 9.378837e-03
9.932631e-03 4.730009e-04 1.676446e-02
3.425788e-03 8.677275e-03 -2.988436e-02
-6.110247e-03 5.059471e-03 1.771567e-02
-1.307236e-02 -1.746093e-02 -2.131965e-02
7.938342e-03 -5.138801e-03 1.699026e-02
-9.132391e-03 1.225458e-03 -2.881740e-02
-2.822283e-03 -5.088844e-03 -3.043786e-02
9.726586e-04 4.467504e-04 1.788043e-02
-2.756519e-03 4.179826e-03 -3.203222e-02
-6.591010e-03 -2.024123e-02 -1.864649e-02