# vtk DataFile Version 2.0
Electric current density generated by TTH
ASCII
DATASET UNSTRUCTURED_GRID
POINTS 8968 double
2.960919e-05 2.606265e-05 -1.424037e-22
-2.415881e-06 3.862748e-05 5.585639e-07
-1.342760e-06 3.867965e-05 5.585639e-07
-2.686037e-07 3.870202e-05 5.585639e-07
8.057593e-07 3.869456e-05 5.585639e-07
1.879501e-06 3.865729e-05 5.585639e-07
2.951795e-06 3.859022e-05 5.585639e-07
4.021814e-06 3.849342e-05 5.585639e-07
5.088734e-06 3.836695e-05 5.585639e-07
6.151732e-06 3.821092e-05 5.585639e-07
7.209990e-06 3.802544e-05 5.585639e-07
2.936675e-05 2.633552e-05 -1.424037e-22
8.262691e-06 3.781066e-05 5.585639e-07
9.309026e-06 3.756675e-05 5.585639e-07
1.034819e-05 3.729388e-05 5.585639e-07
1.137937e-05 3.699227e-05 5.585639e-07
1.240179e-05 3.666216e-05 5.585639e-07
1.341465e-05 3.630380e-05 5.585639e-07
1.441717e-05 3.591745e-05 5.585639e-07
1.543407e-05 3.548748e-05 5.572513e-07
1.623026e-05 3.511718e-05 5.535145e-07
1.736754e-05 3.432976e-05 4.299075e-07
2.912180e-05 2.660613e-05 -1.424037e-22
1.845784e-05 3.376224e-05 4.347785e-07
2.791668e-05 2.661392e-05 -5.013822e-07
-1.812576e-05 -3.413615e-05 -5.404500e-07
-3.827824e-05 5.347552e-06 -5.404500e-07
-3.534719e-05 -1.563318e-05 -5.404500e-07
-1.423133e-05 -3.593451e-05 -5.404500e-07
-3.103562e-05 -2.303498e-05 -5.404500e-07
-1.423133e-05 3.593451e-05 -5.404500e-07
2.591024e-06 3.856302e-05 -5.404500e-07
-3.686188e-05 1.161990e-05 -5.404500e-07
2.887435e-05 2.687447e-05 -1.424037e-22
-3.534719e-05 1.563318e-05 -5.404500e-07
-3.615372e-05 -1.366842e-05 -5.409467e-07
-2.007193e-05 3.302980e-05 -5.406060e-07
-2.519959e-05 -2.930530e-05 -5.404500e-07
-2.353452e-05 3.065854e-05 -5.404500e-07
-3.744990e-05 -9.556419e-06 -5.404500e-07
-5.966693e-06 3.818663e-05 -5.404500e-07
-3.826564e-05 -5.439753e-06 -5.406060e-07
-2.970952e-05 2.472174e-05 -5.404500e-07
-2.829185e-05 2.633232e-05 -5.404500e-07
2.862443e-05 2.714051e-05 -1.424037e-22
-3.794075e-05 7.372235e-06 -5.406060e-07
4.727009e-06 3.835981e-05 -5.404500e-07
-3.227913e-05 2.125970e-05 -5.409467e-07
-3.686188e-05 -1.161990e-05 -5.404500e-07
-3.838408e-06 3.845889e-05 -5.404500e-07
-1.223637e-05 3.666317e-05 -5.409467e-07
-2.680359e-05 2.784753e-05 -5.409467e-07
-3.442519e-05 1.757061e-05 -5.404500e-07
-8.076589e-06 3.779668e-05 -5.404500e-07
6.848426e-06 3.803839e-05 -5.404500e-07
2.837207e-05 2.740422e-05 -1.424037e-22
-2.179692e-05 3.191730e-05 -5.404500e-07
-1.791274e-06 3.860883e-05 -5.406060e-07
-2.678700e-05 -2.786174e-05 -5.404500e-07
-1.016159e-05 3.729024e-05 -5.404500e-07
-2.519959e-05 2.930530e-05 -5.404500e-07
-1.812576e-05 3.413615e-05 -5.404500e-07
-3.863507e-05 -1.072815e-06 -5.404500e-07
-3.616025e-05 1.364757e-05 -5.404500e-07
-3.339709e-05 1.945390e-05 -5.404500e-07
4.470536e-07 3.864738e-05 -5.404500e-07
2.811727e-05 2.766559e-05 -1.424037e-22
-3.103562e-05 2.303498e-05 -5.404500e-07
-1.620351e-05 3.508940e-05 -5.404500e-07
-3.744990e-05 9.556419e-06 -5.404500e-07
-3.226608e-05 -2.127722e-05 -5.404500e-07
-3.335050e-05 -1.953445e-05 -5.406060e-07
-3.442519e-05 -1.757061e-05 -5.404500e-07
-3.863507e-05 1.072815e-06 -5.404500e-07
-2.969653e-05 -2.473931e-05 -5.409467e-07
-2.353452e-05 -3.065854e-05 -5.404500e-07
-3.851601e-05 3.215138e-06 -5.404500e-07
2.786006e-05 2.792459e-05 -1.424037e-22
-2.179692e-05 -3.191730e-05 -5.404500e-07
-3.792250e-05 -7.463486e-06 -5.404500e-07
-1.618423e-05 -3.509968e-05 -5.409467e-07
-2.829185e-05 -2.633232e-05 -5.404500e-07
-3.851601e-05 -3.215138e-06 -5.404500e-07
-1.999215e-05 -3.307770e-05 -5.404500e-07
8.948737e-06 3.759973e-05 -5.404500e-07
1.102147e-05 3.704520e-05 -5.404500e-07
1.306024e-05 3.637651e-05 -5.404539e-07
3.556899e-05 1.514456e-05 -5.439081e-07
2.760047e-05 2.818119e-05 -1.424037e-22
3.555606e-05 -1.516922e-05 -5.430647e-07
2.480201e-05 -2.966613e-05 -5.472808e-07
-5.329618e-06 -3.820369e-05 5.035314e-07
3.678408e-05 1.178276e-05 5.299351e-07
3.654882e-05 1.280286e-05 5.647971e-07
3.700652e-05 -1.147753e-05 -5.691423e-07
3.618421e-05 -1.320525e-05 4.673844e-07
6.302717e-06 -3.802673e-05 -4.862067e-07
-7.255185e-06 -3.766263e-05 -2.805335e-07
3.820150e-05 6.580890e-06 -5.727207e-07
2.733851e-05 2.843539e-05 -1.424037e-22
3.820150e-05 -6.580890e-06 -5.727207e-07
2.912361e-05 2.498408e-05 3.088279e-07
2.912361e-05 -2.498408e-05 3.088279e-07
2.604227e-05 -2.871674e-05 5.731395e-07
3.724075e-05 9.518728e-06 -3.953289e-07
2.718747e-05 -2.763190e-05 5.727597e-07
3.879927e-05 8.159297e-07 5.786582e-07
1.025847e-05 -3.738314e-05 -5.728835e-07
2.477922e-05 -2.981152e-05 5.728858e-07
2.356591e-05 3.079673e-05 5.750741e-07
2.707422e-05 2.868714e-05 -1.424037e-22
2.358115e-05 -3.080294e-05 5.770082e-07
3.757968e-05 -9.464922e-06 -5.707053e-07
2.138006e-05 3.222059e-05 5.475310e-07
2.227896e-05 3.174150e-05 5.752346e-07
3.800955e-05 -7.951408e-06 -5.805268e-07
3.800473e-05 8.021638e-06 -5.809809e-07
3.875747e-05 -2.334012e-06 -5.802518e-07
3.875747e-05 2.334012e-06 -5.802518e-07
1.861047e-05 -3.380132e-05 5.104584e-07
1.767207e-05 -3.442704e-05 5.570632e-07
2.680760e-05 2.893645e-05 -1.424037e-22
1.667300e-05 -3.491731e-05 5.558276e-07
1.573646e-05 -3.535933e-05 5.585639e-07
1.426023e-05 -3.613611e-05 -5.811800e-07
-1.399169e-06 -3.858677e-05 5.238617e-07
-1.556434e-06 -3.831830e-05 -2.709224e-07
-3.313615e-06 -3.846079e-05 -5.195050e-07
-2.484452e-06 -3.879064e-05 -5.813781e-07
3.674421e-05 -1.234778e-05 5.725891e-07
5.563601e-06 -3.847539e-05 -5.812983e-07
7.134761e-06 -3.821373e-05 -5.813252e-07
2.653869e-05 2.918327e-05 -1.424037e-22
2.834805e-05 2.648364e-05 5.771711e-07
2.831284e-05 -2.655897e-05 5.797189e-07
-5.721671e-06 -3.837846e-05 -5.781247e-07
-3.346823e-06 -3.840834e-05 4.915880e-07
3.266919e-05 2.101782e-05 -5.811235e-07
3.266919e-05 -2.101782e-05 -5.811235e-07
-4.104383e-06 -3.864580e-05 -5.814058e-07
2.649430e-05 2.809129e-05 5.249327e-07
2.606053e-05 2.883641e-05 5.813979e-07
2.133602e-05 -3.238334e-05 5.752935e-07
2.626751e-05 2.942760e-05 -1.424037e-22
2.149662e-05 -3.228424e-05 -5.761483e-07
2.732346e-05 2.768330e-05 5.805170e-07
2.649221e-05 2.802482e-05 -4.981941e-07
2.522831e-05 -2.906537e-05 4.424943e-07
3.598511e-05 1.366236e-05 4.460608e-07
3.834268e-05 -5.209328e-06 5.561876e-07
1.398591e-05 -3.618696e-05 5.773364e-07
3.834255e-05 5.208859e-06 5.561269e-07
1.885986e-05 3.389005e-05 -5.758877e-07
1.885986e-05 -3.389005e-05 -5.758877e-07
2.599408e-05 2.966940e-05 -1.424037e-22
3.827394e-05 8.289981e-07 3.270475e-10
1.246452e-05 -3.669770e-05 -5.713681e-07
-9.886496e-06 -3.747122e-05 -5.707512e-07
-9.075963e-06 -3.776267e-05 -5.808123e-07
2.751942e-05 2.683717e-05 3.963390e-07
-4.818364e-06 -3.813670e-05 -3.973506e-07
2.826991e-05 -2.648614e-05 -5.677203e-07
3.103208e-05 2.324671e-05 5.743005e-07
3.054121e-05 2.397279e-05 5.801444e-07
3.103208e-05 -2.324671e-05 5.743005e-07
2.571842e-05 2.990867e-05 -1.424037e-22
3.054121e-05 -2.397279e-05 5.801444e-07
1.934056e-05 3.369376e-05 5.812319e-07
2.234656e-05 -3.143179e-05 4.989602e-07
3.786350e-05 8.029943e-06 5.593270e-07
3.763338e-05 8.912553e-06 5.494943e-07
3.787857e-05 -8.018963e-06 5.627160e-07
3.491167e-07 -3.870107e-05 -5.584768e-07
3.371229e-05 -1.946625e-05 5.778186e-07
3.371229e-05 1.946625e-05 5.778186e-07
-3.179361e-08 -3.849877e-05 4.521230e-07
2.544056e-05 3.014537e-05 -1.424037e-22
2.536554e-05 2.930862e-05 -5.721307e-07
2.455690e-05 2.969893e-05 -4.802288e-07
2.408420e-05 3.050461e-05 -5.814041e-07
2.699859e-05 -2.770818e-05 -5.536371e-07
2.628325e-05 -2.834123e-05 -5.415429e-07
-4.519888e-06 -3.865082e-05 5.792630e-07
3.838488e-05 -3.623371e-06 -4.926164e-07
3.815394e-05 6.355191e-06 5.512823e-07
3.808840e-05 7.205002e-06 5.726647e-07
3.815394e-05 -6.355191e-06 5.512816e-07
2.516052e-05 3.037949e-05 -1.424037e-22
3.808840e-05 -7.205002e-06 5.726647e-07
1.378714e-05 -3.573595e-05 -1.526369e-07
3.838562e-05 3.635291e-06 -4.937792e-07
2.761349e-05 2.742251e-05 -5.790553e-07
2.427203e-05 -3.043653e-05 5.777311e-07
1.183499e-05 -3.714321e-05 -5.691379e-07
1.098953e-05 -3.686699e-05 -4.273001e-07
-9.039215e-07 -3.898252e-05 -5.669895e-07
2.504103e-05 2.988209e-05 5.682987e-07
3.868195e-05 4.857577e-06 -5.685829e-07
2.487833e-05 3.061101e-05 -1.424037e-22
3.868195e-05 -4.857577e-06 -5.685829e-07
1.995364e-05 -3.275407e-05 2.773304e-07
1.946878e-05 -3.352065e-05 5.727302e-07
2.238267e-05 -3.163464e-05 -5.704971e-07
1.992242e-05 3.277181e-05 2.753291e-07
2.921450e-05 -2.535965e-05 -5.533531e-07
2.915668e-05 2.542589e-05 -5.533063e-07
2.854522e-05 2.615187e-05 -5.615554e-07
2.366070e-05 -3.061785e-05 -5.561212e-07
2.308771e-05 -3.120691e-05 -5.796369e-07
2.459401e-05 3.083991e-05 -1.424037e-22
3.437479e-05 -1.771962e-05 -5.490738e-07
3.501770e-05 1.642864e-05 -5.514030e-07
3.437479e-05 1.771962e-05 -5.490738e-07
3.501770e-05 -1.642864e-05 -5.514030e-07
3.451053e-05 1.775356e-05 5.788026e-07
3.512167e-05 1.652790e-05 5.794185e-07
3.509672e-05 -1.656459e-05 5.788026e-07
3.449662e-05 -1.779570e-05 5.794185e-07
2.254820e-05 3.155804e-05 -5.760680e-07
2.329933e-05 3.124052e-05 -5.713202e-07
2.430758e-05 3.106617e-05 -1.424037e-22
3.856295e-05 -3.662925e-06 5.671865e-07
3.872000e-05 -2.820433e-06 5.799074e-07
3.856056e-05 3.671361e-06 5.668287e-07
3.642140e-05 -1.210864e-05 -3.238651e-07
3.048153e-05 -2.402950e-05 -5.792409e-07
3.095748e-05 -2.332035e-05 -5.716547e-07
3.048153e-05 2.402950e-05 -5.792409e-07
3.095748e-05 2.332035e-05 -5.716547e-07
1.477366e-05 3.596244e-05 -5.812277e-07
1.997257e-05 -3.328890e-05 -5.797759e-07
2.401907e-05 3.128977e-05 -1.424037e-22
1.609978e-05 3.537422e-05 -5.814055e-07
1.997097e-05 3.329080e-05 -5.798359e-07
3.883000e-05 2.338380e-06 5.802897e-07
2.133536e-05 3.246991e-05 -5.812805e-07
3.871581e-05 4.456071e-06 5.714605e-07
3.871779e-05 -4.459131e-06 5.710219e-07
3.355681e-05 1.970169e-05 -5.793713e-07
3.375844e-05 1.880942e-05 -5.384033e-07
3.355681e-05 -1.970169e-05 -5.793713e-07
3.375844e-05 -1.880942e-05 -5.384033e-07
2.372850e-05 3.151069e-05 -1.424037e-22
1.144087e-05 -3.719219e-05 5.794396e-07
[...]
POINT_DATA 8968
VECTORS 10.000GHz_fone_imag double
4.140135e+10 -4.839185e+10 -5.119591e+08
6.701711e+10 4.124147e+09 -1.853003e+08
6.512171e+10 2.925617e+09 -7.612228e+07
6.622547e+10 4.630547e+08 -8.025239e+08
6.586231e+10 -4.556237e+08 2.081444e+08
6.766633e+10 -3.765217e+09 2.085894e+08
6.614856e+10 -4.240786e+09 2.892179e+08
6.618205e+10 -7.488211e+09 9.491362e+08
6.592617e+10 -8.111980e+09 9.263846e+07
6.567764e+10 -1.115588e+10 9.510243e+08
6.536190e+10 -1.184375e+10 6.293136e+07
4.261179e+10 -4.716955e+10 -1.526539e+09
6.490292e+10 -1.454882e+10 9.755518e+08
6.437335e+10 -1.536641e+10 2.063607e+08
6.392121e+10 -1.815825e+10 9.755290e+08
6.348864e+10 -1.881991e+10 2.349205e+08
6.237336e+10 -2.092342e+10 4.937188e+08
6.414107e+10 -2.289122e+10 2.309567e+07
6.133220e+10 -2.349938e+10 -1.127304e+09
6.169769e+10 -2.709623e+10 9.488632e+08
6.093126e+10 -2.691296e+10 -1.883293e+08
6.047283e+10 -3.051263e+10 -4.804769e+08
4.228319e+10 -4.541530e+10 -2.335711e+08
5.942170e+10 -3.207180e+10 -6.830377e+08
4.490629e+10 -4.916339e+10 1.257509e+09
-5.935690e+10 3.237429e+10 -2.108859e+08
1.006928e+10 6.683435e+10 -2.138132e+08
-2.662685e+10 6.198248e+10 -2.243415e+08
-6.172507e+10 2.537909e+10 4.319590e+08
-3.916725e+10 5.381036e+10 3.612520e+08
6.310494e+10 2.419889e+10 -2.023207e+08
6.741930e+10 -5.273047e+09 -2.175852e+08
2.062993e+10 6.330759e+10 3.857726e+08
4.098917e+10 -4.686407e+10 5.167399e+07
2.768335e+10 6.080952e+10 9.064897e+07
-2.345963e+10 6.321967e+10 -1.997716e+08
5.724953e+10 3.488845e+10 -5.059200e+08
-5.021165e+10 4.408133e+10 8.002917e+07
5.324162e+10 4.000893e+10 3.826584e+07
-1.581801e+10 6.562240e+10 -1.928568e+08
6.620285e+10 1.142296e+10 9.664916e+07
-9.409314e+09 6.640879e+10 -4.610018e+08
4.222508e+10 5.241488e+10 1.022219e+08
4.652347e+10 4.888683e+10 -2.135638e+08
4.584668e+10 -4.554619e+10 1.480341e+09
1.274451e+10 6.585410e+10 -4.844099e+08
6.631454e+10 -8.865898e+09 1.006481e+08
3.739351e+10 5.548699e+10 3.953771e+07
-2.123447e+10 6.377991e+10 9.343212e+07
6.659092e+10 5.978761e+09 3.143112e+08
6.369599e+10 2.053845e+10 3.750014e+07
4.917613e+10 4.612022e+10 -5.112961e+07
3.105677e+10 5.927084e+10 9.665867e+07
6.545369e+10 1.510561e+10 8.340373e+07
6.570753e+10 -1.253062e+10 1.044673e+08
4.464939e+10 -4.572444e+10 1.838630e+09
5.553844e+10 3.797122e+10 -7.314215e+07
6.794961e+10 3.059494e+09 5.801476e+08
-4.768056e+10 4.684165e+10 9.543027e+07
6.480034e+10 1.747360e+10 -3.812045e+08
5.040341e+10 4.467260e+10 1.066112e+08
5.885119e+10 3.088176e+10 -2.661430e+08
-2.959752e+09 6.716991e+10 8.630233e+07
2.423191e+10 6.228387e+10 9.109555e+07
3.412610e+10 5.741762e+10 8.941349e+07
6.651555e+10 -1.144142e+09 -2.354850e+08
4.334539e+10 -4.603568e+10 5.594469e+08
4.029804e+10 5.368874e+10 -2.979294e+08
6.047782e+10 2.759433e+10 -1.388622e+08
1.540694e+10 6.531349e+10 4.080585e+07
-3.620481e+10 5.610974e+10 9.372120e+07
-3.378850e+10 5.787371e+10 -4.706313e+08
-3.153958e+10 5.943125e+10 9.104736e+07
7.792354e+08 6.732604e+10 8.741378e+07
-4.291113e+10 5.213638e+10 -2.100203e+08
-5.263781e+10 4.125732e+10 9.489525e+07
5.880156e+09 6.630011e+10 -1.388758e+08
4.413057e+10 -4.470066e+10 1.685237e+09
-5.481072e+10 3.827672e+10 1.042875e+08
-1.222063e+10 6.567094e+10 9.119430e+07
-6.028020e+10 2.873166e+10 1.053128e+08
-4.501631e+10 4.931905e+10 9.015591e+07
-5.093834e+09 6.680239e+10 -3.636019e+08
-5.675348e+10 3.521374e+10 1.004717e+08
6.487789e+10 -1.614129e+10 7.738807e+07
6.381388e+10 -1.973789e+10 8.989848e+07
6.304529e+10 -2.397394e+10 5.407233e+08
2.478956e+10 -6.432717e+10 -4.636563e+08
4.544679e+10 -4.319993e+10 7.872362e+07
-2.710105e+10 -6.152236e+10 -3.454078e+07
-4.971294e+10 -4.414573e+10 1.251266e+08
-7.017959e+10 9.967661e+09 8.273176e+08
1.936951e+10 -6.555283e+10 8.300933e+08
2.189844e+10 -6.308627e+10 -1.008567e+07
-1.811904e+10 -6.346052e+10 5.199847e+08
-2.270798e+10 -6.267190e+10 7.107632e+08
-6.783932e+10 -1.227772e+10 8.836926e+08
-6.911074e+10 1.479509e+10 -3.018173e+08
1.122002e+10 -6.542281e+10 -5.824401e+08
4.597994e+10 -4.399357e+10 5.241230e+08
-1.089257e+10 -6.439235e+10 6.221346e+08
4.447880e+10 -5.187980e+10 -7.227565e+08
-4.481978e+10 -5.153371e+10 2.481644e+08
-4.904411e+10 -4.468520e+10 4.396669e+08
1.717065e+10 -7.009415e+10 2.435879e+08
-4.685105e+10 -4.715514e+10 5.398437e+08
8.752492e+08 -6.550358e+10 5.738315e+08
-6.279157e+10 -1.933883e+10 1.582393e+09
-5.275234e+10 -4.315775e+10 -5.318703e+08
5.218615e+10 -4.061114e+10 -1.141952e+07
4.572195e+10 -4.307237e+10 2.707637e+08
-5.175812e+10 -3.964269e+10 -3.911978e+08
-1.634148e+10 -6.404093e+10 5.411087e+08
5.516818e+10 -3.550970e+10 1.524079e+09
5.370668e+10 -3.824258e+10 -5.627388e+08
-1.309705e+10 -6.270737e+10 1.150065e+09
1.477864e+10 -6.481111e+10 2.056825e+08
-5.907563e+09 -6.559072e+10 1.299394e+09
4.619763e+09 -6.535650e+10 1.571692e+09
-5.901825e+10 -3.245569e+10 -2.125540e+09
-5.964682e+10 -3.055039e+10 -3.792632e+08
4.660215e+10 -4.357047e+10 -7.741328e+07
-5.920944e+10 -2.826382e+10 -2.144521e+08
-6.051747e+10 -2.737788e+10 7.014655e+08
-6.105220e+10 -2.458067e+10 3.204939e+08
-6.912140e+10 2.569320e+09 6.920860e+08
-6.906761e+10 2.633114e+09 1.117431e+05
-6.670742e+10 5.583800e+09 -1.121360e+09
-6.460416e+10 5.521651e+09 -9.026214e+08
-2.007742e+10 -6.374891e+10 1.343568e+09
-6.312556e+10 -9.711607e+09 3.975012e+08
-6.469112e+10 -1.153321e+10 -1.430824e+09
4.591919e+10 -4.204058e+10 -1.040710e+09
4.407678e+10 -4.890092e+10 1.173952e+09
-4.549413e+10 -4.913407e+10 3.046566e+08
-6.604013e+10 9.084264e+09 -7.465029e+07
-7.038102e+10 6.278063e+09 3.957140e+08
3.714022e+10 -5.798328e+10 -5.361449e+06
-3.715026e+10 -5.799450e+10 6.177436e+06
-6.491782e+10 7.337489e+09 1.962227e+09
4.789572e+10 -4.620950e+10 3.426427e+08
4.727494e+10 -4.472278e+10 -1.324066e+09
-5.389249e+10 -3.532704e+10 -1.794438e+09
4.724237e+10 -4.096387e+10 1.879244e+08
-5.506944e+10 -3.643310e+10 -2.790511e+08
4.758502e+10 -4.575244e+10 6.072406e+08
4.858065e+10 -4.811025e+10 -1.780310e+09
-4.875794e+10 -4.566335e+10 -1.032484e+09
2.536376e+10 -6.493820e+10 -6.170196e+07
-8.150870e+09 -6.631128e+10 -5.450045e+08
-6.159249e+10 -2.296418e+10 -1.153715e+09
8.044676e+09 -6.704366e+10 5.996325e+08
5.939645e+10 -3.288436e+10 4.661892e+08
-5.676844e+10 -3.116780e+10 -6.826994e+08
4.709921e+10 -4.187130e+10 3.331096e+08
5.021094e+08 -6.731226e+10 3.793951e+08
-6.199470e+10 -2.156315e+10 6.241286e+08
-6.359833e+10 1.613507e+10 -4.438097e+08
-6.482126e+10 1.548137e+10 -3.020077e+09
4.505681e+10 -4.888525e+10 -2.617542e+08
-6.592395e+10 5.863537e+09 4.904827e+08
-4.522025e+10 -4.779004e+10 6.156698e+08
3.975455e+10 -5.353470e+10 -1.099297e+09
4.007875e+10 -5.123165e+10 1.170787e+09
-3.975854e+10 -5.354089e+10 1.099208e+09
4.829089e+10 -4.011854e+10 -9.963823e+08
-4.010457e+10 -5.123282e+10 -1.165202e+09
5.619651e+10 -3.187317e+10 -7.954310e+08
-5.546363e+10 -3.868969e+10 4.803369e+08
1.330153e+10 -6.497159e+10 9.267454e+08
1.593870e+10 -6.491228e+10 -1.157039e+09
-1.346728e+10 -6.679789e+10 4.208000e+08
-6.602615e+10 -1.061954e+09 -2.855669e+08
-3.168314e+10 -5.654984e+10 1.488858e+09
3.168657e+10 -5.660420e+10 -1.486501e+09
-6.582052e+10 3.640361e+08 -7.607496e+08
4.815556e+10 -4.041621e+10 3.184046e+08
5.071395e+10 -4.281945e+10 -1.252211e+09
5.013134e+10 -4.415411e+10 1.591280e+08
5.151688e+10 -3.982483e+10 9.826580e+07
-4.534218e+10 -4.660055e+10 5.028095e+08
-4.757302e+10 -4.618367e+10 4.587972e+08
-6.446381e+10 6.875725e+09 -6.954843e+08
-6.338115e+09 -6.747595e+10 6.081321e+08
1.173688e+10 -6.576464e+10 -1.893485e+08
1.277103e+10 -6.463787e+10 -1.136801e+08
-1.179778e+10 -6.636521e+10 2.685199e+08
4.841272e+10 -4.070594e+10 -1.591024e+08
-1.246318e+10 -6.389163e+10 -4.452632e+08
-6.434224e+10 -2.484857e+10 6.733646e+08
5.552081e+09 -6.723013e+10 -2.767286e+08
4.494172e+10 -4.663065e+10 4.827945e+08
-5.050760e+10 -4.037205e+10 7.083910e+08
-6.232771e+10 -2.143116e+10 3.594765e+08
-6.415806e+10 -1.755260e+10 7.079252e+07
-6.346252e+10 1.662121e+09 -7.473627e+08
4.959068e+10 -4.294437e+10 3.478713e+07
8.172753e+09 -6.514801e+10 -1.143474e+09
4.967752e+10 -3.882426e+10 2.098368e+08
-8.349035e+09 -6.502351e+10 8.063195e+08
-5.754286e+10 -3.434764e+10 3.112068e+08
-5.693923e+10 -3.326405e+10 -1.185107e+09
-5.364302e+10 -3.820994e+10 2.920394e+08
5.856714e+10 -3.477297e+10 -3.667679e+08
-4.370594e+10 -5.037317e+10 -1.129421e+09
4.586406e+10 -5.137184e+10 5.748438e+06
4.560511e+10 -4.912204e+10 -2.261181e+08
-5.330296e+10 -4.209363e+10 -1.222248e+09
-5.258412e+10 -3.940673e+10 6.154220e+07
4.988182e+10 -3.985276e+10 1.864683e+08
-3.061841e+10 -5.834274e+10 3.469218e+08
2.825518e+10 -5.880923e+10 -1.014134e+09
3.179330e+10 -6.137730e+10 -7.185360e+08
-2.746230e+10 -5.948159e+10 6.499386e+08
3.012070e+10 -5.912431e+10 4.746535e+07
2.929763e+10 -5.957140e+10 -8.293224e+08
-2.833779e+10 -5.943548e+10 6.019994e+08
-3.023975e+10 -5.748670e+10 6.805933e+08
5.410259e+10 -3.816199e+10 1.927710e+08
5.174199e+10 -3.902578e+10 2.154284e+09
4.881355e+10 -3.844607e+10 -9.329567e+08
-5.801299e+09 -6.303121e+10 9.482488e+08
-5.380769e+09 -6.605310e+10 2.300026e+09
6.505793e+09 -6.582818e+10 -9.162591e+08
-2.071657e+10 -6.614563e+10 7.291792e+07
-4.172918e+10 -5.057970e+10 -1.444042e+09
-3.953203e+10 -5.291869e+10 -9.901876e+07
4.171349e+10 -5.063743e+10 1.449793e+09
3.953861e+10 -5.292949e+10 1.024657e+08
6.114568e+10 -2.549682e+10 -4.800494e+07
-5.744145e+10 -3.454259e+10 1.061758e+09
4.869228e+10 -3.800006e+10 -6.541774e+08
5.932938e+10 -2.653487e+10 -4.339135e+08
5.738702e+10 -3.455809e+10 -1.213785e+09
4.252082e+09 -6.585530e+10 -1.000190e+09
5.403927e+10 -3.691350e+10 -1.254732e+08
7.460998e+09 -6.433591e+10 -5.130625e+08
-7.630842e+09 -6.640289e+10 -2.888780e+08
3.221561e+10 -5.568420e+10 -1.191415e+09
3.208206e+10 -5.854409e+10 8.781906e+07
-3.226773e+10 -5.568701e+10 1.189198e+09
-3.284660e+10 -5.846938e+10 1.597995e+08
5.195098e+10 -3.776931e+10 5.676858e+08
-6.138456e+10 -1.808897e+10 -1.543045e+09
-6.452557e+10 -1.652653e+10 -2.750731e+08
-6.366125e+10 1.568923e+10 -2.297254e+08
-6.483699e+10 1.107517e+10 8.825940e+08
-1.467465e+10 -6.478498e+10 -1.514615e+09
-5.749055e+10 -2.850850e+10 3.257210e+08
5.862203e+10 -3.006012e+10 1.509222e+09
-3.890097e+10 -5.525101e+10 1.332373e+09
-3.748486e+10 -5.602376e+10 -3.568146e+08
3.890623e+10 -5.525706e+10 -1.326079e+09
5.143042e+10 -3.764856e+10 1.808536e+09
3.749001e+10 -5.602267e+10 3.581143e+08
5.439662e+10 -4.133458e+10 -9.744666e+08
-6.205342e+10 -3.084760e+10 1.188488e+08
4.934031e+10 -4.356766e+10 -4.513968e+08
-6.238273e+10 -2.129130e+10 -3.943847e+07
1.111170e+09 -6.365105e+10 3.645339e+08
-1.639086e+09 -6.435621e+10 -7.713689e+07
-6.438777e+10 1.590341e+10 -3.523033e+08
-6.143765e+10 -2.515515e+10 -3.449889e+08
-3.646711e+10 -5.751973e+10 7.307490e+08
5.140898e+10 -3.870944e+10 -2.850575e+08
3.646860e+10 -5.752075e+10 -7.285025e+08
1.767377e+10 -6.260060e+10 5.258170e+08
2.301370e+10 -6.000520e+10 5.170852e+08
-2.171139e+10 -6.300597e+10 -1.315547e+09
-5.194525e+10 -3.966799e+10 1.738982e+08
2.166713e+10 -6.525780e+10 -7.019294e+08
-1.841754e+10 -6.141630e+10 -2.960228e+08
-6.607364e+10 8.174525e+08 -1.386590e+08
6.337384e+10 -2.509267e+10 -5.666474e+08
-4.791904e+10 -4.852454e+10 3.418947e+08
5.093132e+10 -3.619610e+10 -7.528608e+07
-4.653714e+10 -5.057059e+10 7.352411e+08
-1.799671e+10 -6.608049e+10 2.168161e+08
-1.905572e+10 -6.669941e+10 1.149861e+09
-6.587113e+10 -1.141508e+10 1.150430e+09
2.575258e+10 -6.076376e+10 2.826600e+07
-2.700410e+10 -6.022052e+10 -4.895465e+08
-2.925375e+10 -5.677909e+10 4.682740e+06
2.933137e+10 -5.991554e+10 6.239974e+07
1.260333e+10 -6.801958e+10 -1.557025e+08
-1.259184e+10 -6.798592e+10 2.785434e+08
5.105124e+10 -3.541908e+10 -4.686087e+08
1.913416e+10 -6.267677e+10 3.581242e+07
-1.479702e+10 -6.377083e+10 -2.156289e+07
-5.999161e+10 -2.504117e+10 -3.876575e+08
1.134433e+10 -6.767745e+10 8.210065e+08
-1.387447e+10 -6.709290e+10 -6.524698e+08
-4.422989e+10 -4.832537e+10 6.762107e+08
-4.323273e+10 -5.310914e+10 -2.994327e+08
4.319654e+10 -5.305815e+10 3.311524e+08
-4.671367e+10 -4.510392e+10 -2.556667e+08
-6.417251e+10 5.203079e+09 -7.425767e+08
5.236579e+10 -3.645753e+10 1.170251e+09
-6.380231e+10 2.661136e+09 7.092765e+08
1.309234e+10 -6.494966e+10 -9.848024e+08
-1.321847e+10 -6.788601e+10 6.126103e+08
5.638890e+10 -4.078277e+10 -1.659206e+08
-2.510344e+10 -5.919260e+10 1.603218e+09
-3.129699e+10 -5.757077e+10 -1.324557e+09
2.433190e+10 -5.932026e+10 -1.322559e+09
3.101438e+10 -5.696885e+10 1.037178e+09
-6.474224e+10 1.104276e+10 4.893247e+07
-6.543349e+10 -8.441058e+09 3.251439e+08
5.164778e+10 -3.432478e+10 2.903242e+08
-6.759186e+10 -8.773585e+09 4.964845e+08
-6.640686e+10 -5.929380e+09 -3.724136e+08
-6.545618e+10 -1.512362e+10 1.551800e+09
-6.398372e+10 -1.438314e+10 5.478639e+08
-6.473517e+10 -8.607143e+09 1.110260e+09
-6.503947e+10 -1.767186e+09 -5.785193e+08
-6.669318e+10 -9.604121e+08 -7.828233e+08
-6.685002e+10 -3.000372e+09 2.348182e+08
-6.444799e+10 -1.595376e+10 -1.049570e+09
-6.523800e+10 -5.900989e+09 1.072003e+09
5.275268e+10 -3.394501e+10 1.199637e+09
-6.623066e+10 -5.423874e+09 1.885428e+09
-6.536862e+10 1.630545e+10 -3.747675e+08
5.282429e+09 -6.492482e+10 -7.711040e+08
-5.807647e+09 -6.462864e+10 8.491441e+08
1.541868e+10 -6.198128e+10 -9.798425e+08
-6.272012e+10 -1.061983e+10 -5.777265e+08
-2.374639e+10 -6.484242e+10 -1.302158e+09
5.842341e+10 -3.662089e+10 4.941162e+08
-5.346625e+10 -3.686172e+10 -1.312662e+08
5.649767e+10 -3.339691e+10 1.949838e+08
5.187524e+10 -3.309776e+10 1.604216e+07
-6.427471e+10 -1.544799e+10 -1.043009e+09
-6.524188e+10 2.077409e+10 1.589178e+09
-6.092021e+10 2.078617e+10 -4.247002e+08
-5.475471e+10 -4.017817e+10 -6.753117e+08
-5.840050e+10 -3.720366e+10 -1.299958e+09
5.040827e+10 -3.952865e+10 1.022989e+09
9.973689e+09 -6.265996e+10 2.549996e+08
-1.097889e+10 -6.244409e+10 -6.232657e+08
4.258547e+10 -4.928442e+10 -7.363263e+08
4.276030e+10 -4.916640e+10 8.108916e+08
5.288596e+10 -3.425883e+10 3.805616e+08
-4.276154e+10 -4.974217e+10 9.323099e+08
-4.384416e+10 -4.716681e+10 1.812317e+08
4.602516e+10 -4.401083e+10 1.150241e+08
-6.424588e+10 1.210722e+10 -7.605323e+06
-6.326327e+10 1.138820e+10 9.209411e+08
5.957521e+10 -3.647459e+10 -1.634583e+09
-8.938089e+09 -6.739725e+10 -1.137877e+09
4.454542e+09 -6.985619e+10 -9.246292e+08
8.608787e+09 -6.773473e+10 1.581466e+09
-6.330966e+10 6.108039e+09 9.052294e+07
5.662001e+10 -3.220365e+10 -1.003379e+09
-6.251925e+10 -2.649983e+10 -1.002001e+08
2.936225e+10 -5.893493e+10 1.541019e+09
-3.039789e+10 -5.879169e+10 -1.228218e+09
2.946240e+10 -6.180786e+10 -5.752232e+08
3.196290e+10 -5.896170e+10 -8.267371e+08
-2.782526e+10 -6.036858e+10 5.930588e+08
-2.989171e+10 -6.069214e+10 2.738519e+08
5.843982e+10 -3.050737e+10 -5.721713e+07
5.991645e+10 -2.279787e+10 -7.745820e+07
5.884743e+10 -2.888763e+10 1.189516e+09
5.358286e+10 -3.362225e+10 -2.719529e+08
-7.080350e+10 -1.063964e+09 -1.116922e+09
-1.556511e+10 -6.647839e+10 -3.962718e+08
5.495520e+10 -3.897379e+10 2.025198e+08
-2.546883e+10 -6.430861e+10 1.399092e+09
2.350883e+10 -6.319733e+10 -2.631726e+08
2.621763e+10 -6.388057e+10 3.091257e+08
-6.174741e+10 1.924401e+10 -1.896521e+08
-6.921861e+10 -8.049058e+07 2.323450e+08
-6.480810e+10 -1.761206e+10 8.704816e+08
-5.075542e+10 -4.519495e+10 -1.437966e+08
5.321505e+10 -3.281100e+10 -8.385856e+08
-1.980197e+09 -6.709368e+10 2.693414e+08
-1.249241e+09 -6.714297e+10 -1.257923e+09
5.266584e+09 -6.452787e+10 6.142111e+07
-6.568534e+10 2.086245e+10 -1.088090e+09
-5.180368e+09 -6.855566e+10 -9.039690e+08
6.259155e+10 -2.427742e+10 -2.493415e+08
-6.264038e+10 2.686628e+10 4.264611e+08
6.484683e+10 -2.134569e+10 -3.963240e+08
6.592563e+10 -1.772162e+10 -4.589069e+08
-5.995287e+10 2.878450e+10 6.021036e+08
5.468568e+10 -3.091486e+10 -8.060809e+08
-5.051107e+10 4.602820e+10 -3.985870e+08
-5.293796e+10 4.304951e+10 -5.233487e+07
1.422677e+10 6.756597e+10 4.373497e+08
-8.645496e+09 6.846897e+10 4.436061e+08
-1.124646e+10 6.736259e+10 -4.030529e+08
-2.687946e+10 6.539424e+10 3.715652e+08
-5.521742e+10 4.003032e+10 -5.050503e+07
2.225263e+10 6.458303e+10 3.759456e+08
4.870207e+10 4.539433e+10 4.474029e+08
4.161761e+10 5.465033e+10 1.131259e+09
5.393578e+10 -3.158803e+10 2.512049e+08
-4.746677e+09 6.785699e+10 5.971903e+08
6.268072e+10 2.806124e+10 1.339877e+09
6.791428e+10 -1.632021e+09 8.823675e+08
3.595105e+10 5.791906e+10 -5.809163e+07
6.674613e+10 -1.396353e+10 -6.309114e+07
6.044297e+10 3.110467e+10 7.744482e+08
-1.996047e+10 6.409080e+10 1.397936e+08
1.162734e+10 6.986843e+10 4.412577e+08
-3.026608e+10 5.983814e+10 1.527564e+08
-4.504004e+10 5.119740e+10 -4.077862e+07
5.631136e+10 -2.974636e+10 -5.344782e+08
-3.386744e+10 5.996338e+10 4.145288e+08
-4.323510e+10 5.321193e+10 1.324552e+09
-4.782978e+10 4.872453e+10 -4.400677e+08
6.654618e+10 2.765709e+09 -1.166362e+08
6.748062e+10 -1.024903e+10 -6.487164e+07
2.940402e+10 6.160131e+10 -4.385122e+08
2.587201e+10 6.312299e+10 -7.400611e+07
5.859697e+10 3.782499e+10 5.140522e+08
6.824186e+10 4.963282e+09 1.800932e+08
5.953253e+10 3.491789e+10 4.390888e+08
5.463542e+10 -2.997887e+10 -3.312727e+08
-1.562401e+10 6.882290e+10 3.503792e+08
3.739993e+10 5.491085e+10 6.059480e+08
6.653491e+10 1.724346e+10 1.093683e+09
3.278610e+10 5.988259e+10 -4.517806e+08
1.676348e+10 6.480591e+10 1.726037e+08
4.953889e+10 5.048236e+10 3.712343e+08
6.344717e+10 2.008127e+10 5.854305e+08
2.072522e+09 6.704244e+10 2.386136e+08
6.650506e+10 2.433562e+10 4.140406e+08
5.104467e+10 4.355059e+10 2.183722e+07
5.571383e+10 -2.864486e+10 5.528204e+08
6.563447e+10 1.380400e+10 1.845185e+08
5.641834e+10 4.116362e+10 1.760174e+08
4.316320e+10 5.146102e+10 1.354776e+08
-2.346183e+10 6.441773e+10 1.355477e+09
7.056170e+10 -6.621400e+09 3.495001e+08
6.624855e+10 1.014802e+10 2.352026e+08
-3.591548e+10 5.794106e+10 -6.563172e+07
-5.722181e+10 3.688197e+10 -4.144322e+08
6.512317e+09 6.835008e+10 1.338125e+09
-1.637625e+09 6.703751e+10 1.619610e+08
5.695389e+10 -3.044615e+10 1.164479e+09
-3.925052e+10 5.593103e+10 3.119247e+08
-6.165339e+10 3.484878e+10 3.941261e+08
2.596722e+10 -6.491902e+10 -7.673272e+07
1.889292e+10 -6.212910e+10 2.996651e+08
-6.179210e+10 -1.432080e+10 -2.033808e+08
-4.580047e+10 -5.268557e+10 4.889298e+08
4.496498e+10 -5.210520e+10 -6.359261e+08
-6.654400e+10 -9.657781e+09 -9.633588e+08
-6.554739e+10 -1.348393e+10 -3.135916e+08
1.981860e+09 -6.691238e+10 -2.529286e+08
5.619778e+10 -2.894206e+10 -3.090551e+08
-5.557225e+10 -3.143090e+10 2.218302e+08
5.075097e+10 -4.493599e+10 -6.639933e+08
5.542897e+10 -3.220719e+10 6.173270e+08
-5.337263e+10 -3.977515e+10 2.580349e+08
-6.819282e+10 1.763466e+10 -5.998999e+08
-6.444644e+10 -2.117449e+10 1.504877e+09
5.831786e+10 -2.841445e+10 1.497419e+09
-2.679797e+10 -6.465255e+10 -5.673416e+08
5.386306e+10 -3.680191e+10 -1.255808e+09
-6.432955e+10 -2.048020e+10 -1.011091e+09
5.651136e+10 -2.841959e+10 3.171021e+08
-6.928094e+10 9.994652e+09 -1.764974e+09
3.455733e+10 -5.541463e+10 -4.736040e+08
-3.456655e+10 -5.540509e+10 4.787488e+08
3.130021e+10 -5.731945e+10 1.649464e+08
-3.015809e+10 -5.697957e+10 -6.277680e+08
1.853277e+10 -6.721184e+10 9.693654e+08
3.412037e+10 -5.333708e+10 -1.403306e+07
-3.411878e+10 -5.333667e+10 1.321956e+07
-2.084176e+10 -6.359546e+10 -8.438697e+07
-4.789755e+10 -4.300326e+10 2.634802e+08
5.989627e+10 -2.849447e+10 -6.158216e+08
1.000038e+10 -6.411287e+10 7.557182e+08
-1.006254e+10 -6.400167e+10 -5.694121e+08
-4.121590e+10 -5.572778e+10 5.208359e+08
4.121532e+10 -5.572503e+10 -5.212991e+08
6.287853e+10 -1.997125e+10 6.214906e+08
6.359879e+10 -2.224777e+10 4.878876e+07
6.468232e+10 -1.300317e+10 5.012482e+08
6.470641e+10 -1.453973e+10 -5.131911e+08
-5.957040e+10 2.480485e+10 8.743840e+08
-5.959946e+10 2.675143e+10 -8.651763e+08
5.723691e+10 -2.679273e+10 1.303078e+09
-4.417466e+10 4.880818e+10 6.817827e+08
-4.260960e+10 4.983724e+10 -2.004716e+08
-5.768213e+10 3.216518e+10 5.543693e+08
-5.717156e+10 3.347255e+10 -4.871749e+08
-1.172188e+10 6.483785e+10 6.121976e+08