# vtk DataFile Version 2.0
Electric current density generated by TTH
ASCII
DATASET UNSTRUCTURED_GRID
POINTS 8587 double
3.944573e-05 -9.661417e-21 -1.424037e-22
3.930901e-05 3.281334e-06 -1.424037e-22
2.401907e-05 3.128977e-05 -1.424037e-22
2.791668e-05 2.661392e-05 -5.013822e-07
-1.812576e-05 -3.413615e-05 -5.404500e-07
-3.827824e-05 5.347552e-06 -5.404500e-07
-3.534719e-05 -1.563318e-05 -5.404500e-07
-1.423133e-05 -3.593451e-05 -5.404500e-07
-3.103562e-05 -2.303498e-05 -5.404500e-07
-1.423133e-05 3.593451e-05 -5.404500e-07
2.591024e-06 3.856302e-05 -5.404500e-07
-3.686188e-05 1.161990e-05 -5.404500e-07
-3.534719e-05 1.563318e-05 -5.404500e-07
2.372850e-05 3.151069e-05 -1.424037e-22
-3.615372e-05 -1.366842e-05 -5.409467e-07
-2.007193e-05 3.302980e-05 -5.406060e-07
-2.519959e-05 -2.930530e-05 -5.404500e-07
-2.353452e-05 3.065854e-05 -5.404500e-07
-3.744990e-05 -9.556419e-06 -5.404500e-07
-5.966693e-06 3.818663e-05 -5.404500e-07
-3.826564e-05 -5.439753e-06 -5.406060e-07
-2.970952e-05 2.472174e-05 -5.404500e-07
-2.829185e-05 2.633232e-05 -5.404500e-07
-3.794075e-05 7.372235e-06 -5.406060e-07
2.343591e-05 3.172891e-05 -1.424037e-22
4.727009e-06 3.835981e-05 -5.404500e-07
-3.227913e-05 2.125970e-05 -5.409467e-07
-3.686188e-05 -1.161990e-05 -5.404500e-07
-3.838408e-06 3.845889e-05 -5.404500e-07
-1.223637e-05 3.666317e-05 -5.409467e-07
-2.680359e-05 2.784753e-05 -5.409467e-07
-3.442519e-05 1.757061e-05 -5.404500e-07
-8.076589e-06 3.779668e-05 -5.404500e-07
6.848426e-06 3.803839e-05 -5.404500e-07
-2.179692e-05 3.191730e-05 -5.404500e-07
2.314130e-05 3.194442e-05 -1.424037e-22
-1.791274e-06 3.860883e-05 -5.406060e-07
-2.678700e-05 -2.786174e-05 -5.404500e-07
-1.016159e-05 3.729024e-05 -5.404500e-07
-2.519959e-05 2.930530e-05 -5.404500e-07
-1.812576e-05 3.413615e-05 -5.404500e-07
-3.863507e-05 -1.072815e-06 -5.404500e-07
-3.616025e-05 1.364757e-05 -5.404500e-07
-3.339709e-05 1.945390e-05 -5.404500e-07
4.470536e-07 3.864738e-05 -5.404500e-07
-3.103562e-05 2.303498e-05 -5.404500e-07
2.284471e-05 3.215719e-05 -1.424037e-22
-1.620351e-05 3.508940e-05 -5.404500e-07
-3.744990e-05 9.556419e-06 -5.404500e-07
-3.226608e-05 -2.127722e-05 -5.404500e-07
-3.335050e-05 -1.953445e-05 -5.406060e-07
-3.442519e-05 -1.757061e-05 -5.404500e-07
-3.863507e-05 1.072815e-06 -5.404500e-07
-2.969653e-05 -2.473931e-05 -5.409467e-07
-2.353452e-05 -3.065854e-05 -5.404500e-07
-3.851601e-05 3.215138e-06 -5.404500e-07
-2.179692e-05 -3.191730e-05 -5.404500e-07
2.254617e-05 3.236720e-05 -1.424037e-22
-3.792250e-05 -7.463486e-06 -5.404500e-07
-1.618423e-05 -3.509968e-05 -5.409467e-07
-2.829185e-05 -2.633232e-05 -5.404500e-07
-3.851601e-05 -3.215138e-06 -5.404500e-07
-1.999215e-05 -3.307770e-05 -5.404500e-07
8.948737e-06 3.759973e-05 -5.404500e-07
1.102147e-05 3.704520e-05 -5.404500e-07
1.306024e-05 3.637651e-05 -5.404539e-07
3.556899e-05 1.514456e-05 -5.439081e-07
3.555606e-05 -1.516922e-05 -5.430647e-07
2.224570e-05 3.257445e-05 -1.424037e-22
2.480201e-05 -2.966613e-05 -5.472808e-07
-5.329618e-06 -3.820369e-05 5.035314e-07
3.678408e-05 1.178276e-05 5.299351e-07
3.654882e-05 1.280286e-05 5.647971e-07
3.700652e-05 -1.147753e-05 -5.691423e-07
3.618421e-05 -1.320525e-05 4.673844e-07
6.302717e-06 -3.802673e-05 -4.862067e-07
-7.255185e-06 -3.766263e-05 -2.805335e-07
3.820150e-05 6.580890e-06 -5.727207e-07
3.820150e-05 -6.580890e-06 -5.727207e-07
2.194332e-05 3.277890e-05 -1.424037e-22
2.912361e-05 2.498408e-05 3.088279e-07
2.912361e-05 -2.498408e-05 3.088279e-07
2.604227e-05 -2.871674e-05 5.731395e-07
3.724075e-05 9.518728e-06 -3.953289e-07
2.718747e-05 -2.763190e-05 5.727597e-07
3.879927e-05 8.159297e-07 5.786582e-07
1.025847e-05 -3.738314e-05 -5.728835e-07
2.477922e-05 -2.981152e-05 5.728858e-07
2.356591e-05 3.079673e-05 5.750741e-07
2.358115e-05 -3.080294e-05 5.770082e-07
2.163906e-05 3.298055e-05 -1.424037e-22
3.757968e-05 -9.464922e-06 -5.707053e-07
2.138006e-05 3.222059e-05 5.475310e-07
2.227896e-05 3.174150e-05 5.752346e-07
3.800955e-05 -7.951408e-06 -5.805268e-07
3.800473e-05 8.021638e-06 -5.809809e-07
3.875747e-05 -2.334012e-06 -5.802518e-07
3.875747e-05 2.334012e-06 -5.802518e-07
1.861047e-05 -3.380132e-05 5.104584e-07
1.767207e-05 -3.442704e-05 5.570632e-07
1.667300e-05 -3.491731e-05 5.558276e-07
2.133295e-05 3.317937e-05 -1.424037e-22
1.573646e-05 -3.535933e-05 5.585639e-07
1.426023e-05 -3.613611e-05 -5.811800e-07
-1.399169e-06 -3.858677e-05 5.238617e-07
-1.556434e-06 -3.831830e-05 -2.709224e-07
-3.313615e-06 -3.846079e-05 -5.195050e-07
-2.484452e-06 -3.879064e-05 -5.813781e-07
3.674421e-05 -1.234778e-05 5.725891e-07
5.563601e-06 -3.847539e-05 -5.812983e-07
7.134761e-06 -3.821373e-05 -5.813252e-07
2.834805e-05 2.648364e-05 5.771711e-07
3.927696e-05 3.644938e-06 -1.424037e-22
2.102501e-05 3.337536e-05 -1.424037e-22
2.831284e-05 -2.655897e-05 5.797189e-07
-5.721671e-06 -3.837846e-05 -5.781247e-07
-3.346823e-06 -3.840834e-05 4.915880e-07
3.266919e-05 2.101782e-05 -5.811235e-07
3.266919e-05 -2.101782e-05 -5.811235e-07
-4.104383e-06 -3.864580e-05 -5.814058e-07
2.649430e-05 2.809129e-05 5.249327e-07
2.606053e-05 2.883641e-05 5.813979e-07
2.133602e-05 -3.238334e-05 5.752935e-07
2.149662e-05 -3.228424e-05 -5.761483e-07
2.071527e-05 3.356848e-05 -1.424037e-22
2.732346e-05 2.768330e-05 5.805170e-07
2.649221e-05 2.802482e-05 -4.981941e-07
2.522831e-05 -2.906537e-05 4.424943e-07
3.598511e-05 1.366236e-05 4.460608e-07
3.834268e-05 -5.209328e-06 5.561876e-07
1.398591e-05 -3.618696e-05 5.773364e-07
3.834255e-05 5.208859e-06 5.561269e-07
1.885986e-05 3.389005e-05 -5.758877e-07
1.885986e-05 -3.389005e-05 -5.758877e-07
3.827394e-05 8.289981e-07 3.270475e-10
2.040376e-05 3.375873e-05 -1.424037e-22
1.246452e-05 -3.669770e-05 -5.713681e-07
-9.886496e-06 -3.747122e-05 -5.707512e-07
-9.075963e-06 -3.776267e-05 -5.808123e-07
2.751942e-05 2.683717e-05 3.963390e-07
-4.818364e-06 -3.813670e-05 -3.973506e-07
2.826991e-05 -2.648614e-05 -5.677203e-07
3.103208e-05 2.324671e-05 5.743005e-07
3.054121e-05 2.397279e-05 5.801444e-07
3.103208e-05 -2.324671e-05 5.743005e-07
3.054121e-05 -2.397279e-05 5.801444e-07
2.009050e-05 3.394609e-05 -1.424037e-22
1.934056e-05 3.369376e-05 5.812319e-07
2.234656e-05 -3.143179e-05 4.989602e-07
3.786350e-05 8.029943e-06 5.593270e-07
3.763338e-05 8.912553e-06 5.494943e-07
3.787857e-05 -8.018963e-06 5.627160e-07
3.491167e-07 -3.870107e-05 -5.584768e-07
3.371229e-05 -1.946625e-05 5.778186e-07
3.371229e-05 1.946625e-05 5.778186e-07
-3.179361e-08 -3.849877e-05 4.521230e-07
2.536554e-05 2.930862e-05 -5.721307e-07
1.977553e-05 3.413054e-05 -1.424037e-22
2.455690e-05 2.969893e-05 -4.802288e-07
2.408420e-05 3.050461e-05 -5.814041e-07
2.699859e-05 -2.770818e-05 -5.536371e-07
2.628325e-05 -2.834123e-05 -5.415429e-07
-4.519888e-06 -3.865082e-05 5.792630e-07
3.838488e-05 -3.623371e-06 -4.926164e-07
3.815394e-05 6.355191e-06 5.512823e-07
3.808840e-05 7.205002e-06 5.726647e-07
3.815394e-05 -6.355191e-06 5.512816e-07
3.808840e-05 -7.205002e-06 5.726647e-07
1.945885e-05 3.431208e-05 -1.424037e-22
1.378714e-05 -3.573595e-05 -1.526369e-07
3.838562e-05 3.635291e-06 -4.937792e-07
2.761349e-05 2.742251e-05 -5.790553e-07
2.427203e-05 -3.043653e-05 5.777311e-07
1.183499e-05 -3.714321e-05 -5.691379e-07
1.098953e-05 -3.686699e-05 -4.273001e-07
-9.039215e-07 -3.898252e-05 -5.669895e-07
2.504103e-05 2.988209e-05 5.682987e-07
3.868195e-05 4.857577e-06 -5.685829e-07
3.868195e-05 -4.857577e-06 -5.685829e-07
1.914052e-05 3.449067e-05 -1.424037e-22
1.995364e-05 -3.275407e-05 2.773304e-07
1.946878e-05 -3.352065e-05 5.727302e-07
2.238267e-05 -3.163464e-05 -5.704971e-07
1.992242e-05 3.277181e-05 2.753291e-07
2.921450e-05 -2.535965e-05 -5.533531e-07
2.915668e-05 2.542589e-05 -5.533063e-07
2.854522e-05 2.615187e-05 -5.615554e-07
2.366070e-05 -3.061785e-05 -5.561212e-07
2.308771e-05 -3.120691e-05 -5.796369e-07
3.437479e-05 -1.771962e-05 -5.490738e-07
1.882054e-05 3.466631e-05 -1.424037e-22
3.501770e-05 1.642864e-05 -5.514030e-07
3.437479e-05 1.771962e-05 -5.490738e-07
3.501770e-05 -1.642864e-05 -5.514030e-07
3.451053e-05 1.775356e-05 5.788026e-07
3.512167e-05 1.652790e-05 5.794185e-07
3.509672e-05 -1.656459e-05 5.788026e-07
3.449662e-05 -1.779570e-05 5.794185e-07
2.254820e-05 3.155804e-05 -5.760680e-07
2.329933e-05 3.124052e-05 -5.713202e-07
3.856295e-05 -3.662925e-06 5.671865e-07
1.849895e-05 3.483898e-05 -1.424037e-22
3.872000e-05 -2.820433e-06 5.799074e-07
3.856056e-05 3.671361e-06 5.668287e-07
3.642140e-05 -1.210864e-05 -3.238651e-07
3.048153e-05 -2.402950e-05 -5.792409e-07
3.095748e-05 -2.332035e-05 -5.716547e-07
3.048153e-05 2.402950e-05 -5.792409e-07
3.095748e-05 2.332035e-05 -5.716547e-07
1.477366e-05 3.596244e-05 -5.812277e-07
1.997257e-05 -3.328890e-05 -5.797759e-07
1.609978e-05 3.537422e-05 -5.814055e-07
1.817578e-05 3.500867e-05 -1.424037e-22
1.997097e-05 3.329080e-05 -5.798359e-07
3.883000e-05 2.338380e-06 5.802897e-07
2.133536e-05 3.246991e-05 -5.812805e-07
3.871581e-05 4.456071e-06 5.714605e-07
3.871779e-05 -4.459131e-06 5.710219e-07
3.355681e-05 1.970169e-05 -5.793713e-07
3.375844e-05 1.880942e-05 -5.384033e-07
3.355681e-05 -1.970169e-05 -5.793713e-07
3.375844e-05 -1.880942e-05 -5.384033e-07
1.144087e-05 -3.719219e-05 5.794396e-07
3.924155e-05 4.008229e-06 -1.424037e-22
1.785105e-05 3.517536e-05 -1.424037e-22
9.944985e-06 -3.764827e-05 5.765084e-07
-8.834355e-06 -3.789674e-05 5.793794e-07
-7.425901e-06 -3.819771e-05 5.793794e-07
3.785331e-05 -8.786226e-06 -5.813881e-07
1.739325e-05 -3.480718e-05 -5.795313e-07
1.740308e-05 3.479828e-05 -5.798076e-07
3.152120e-05 -2.175198e-05 1.314601e-07
3.213079e-05 -2.169301e-05 5.734087e-07
3.152120e-05 2.175198e-05 1.314601e-07
3.213079e-05 2.169301e-05 5.734087e-07
1.752479e-05 3.533903e-05 -1.424037e-22
2.342854e-05 3.034546e-05 -2.453815e-07
1.713717e-05 -3.423457e-05 -4.021524e-08
2.639042e-05 2.874776e-05 -5.589939e-07
1.242789e-05 -3.690867e-05 5.758009e-07
3.901416e-05 6.469967e-07 -5.603086e-07
3.901755e-05 -6.661959e-07 -5.592665e-07
-9.890626e-06 -3.766650e-05 5.760015e-07
1.485881e-05 -3.552838e-05 -4.612611e-07
[...]
POINT_DATA 8587
VECTORS 10.000GHz_fone_imag double
2.782326e-05 3.811333e-05 2.203195e-02
4.434740e-04 8.130754e-05 2.195462e-02
4.974388e-06 -2.897183e-04 2.184777e-02
1.475943e-02 1.386288e-02 -1.259724e-02
-1.017394e-02 -1.946113e-02 -8.947738e-03
-2.176659e-02 2.890051e-03 -8.942549e-03
-1.999971e-02 -9.010964e-03 -8.951072e-03
-8.274824e-03 -2.031173e-02 -9.129282e-03
-1.773031e-02 -1.289968e-02 -9.114787e-03
-8.218131e-03 2.035958e-02 -8.947507e-03
1.324875e-03 2.192572e-02 -8.938307e-03
-2.085451e-02 6.791452e-03 -9.116243e-03
-2.003238e-02 8.853651e-03 -9.237582e-03
2.764924e-04 3.404352e-04 2.196650e-02
-2.040942e-02 -7.965837e-03 -9.387876e-03
-1.133507e-02 1.876543e-02 -9.100213e-03
-1.427268e-02 -1.661164e-02 -9.238222e-03
-1.320005e-02 1.734486e-02 -9.082758e-03
-2.122877e-02 -5.547366e-03 -8.959410e-03
-3.379976e-03 2.148575e-02 -9.509568e-03
-2.171832e-02 -3.014731e-03 -9.087258e-03
-1.673446e-02 1.390476e-02 -9.483191e-03
-1.615844e-02 1.484044e-02 -8.948297e-03
-2.150897e-02 4.230963e-03 -9.090418e-03
-3.262300e-04 1.218335e-04 2.196276e-02
2.670612e-03 2.175530e-02 -9.235703e-03
-1.837350e-02 1.184921e-02 -9.444825e-03
-2.073620e-02 -6.553000e-03 -9.500982e-03
-1.973441e-03 2.185204e-02 -9.132157e-03
-7.120946e-03 2.067467e-02 -9.438563e-03
-1.532218e-02 1.564346e-02 -9.448540e-03
-1.951375e-02 9.956400e-03 -9.236062e-03
-4.567756e-03 2.125779e-02 -9.508114e-03
3.874883e-03 2.156905e-02 -9.222699e-03
-1.241283e-02 1.807446e-02 -9.179181e-03
-1.921928e-04 -3.818125e-04 2.196455e-02
-1.007496e-03 2.183606e-02 -9.285249e-03
-1.517793e-02 -1.579266e-02 -9.232191e-03
-5.985192e-03 2.099091e-02 -9.453496e-03
-1.420033e-02 1.649059e-02 -9.513633e-03
-1.037362e-02 1.914857e-02 -9.458161e-03
-2.175056e-02 -6.248082e-04 -9.505882e-03
-2.049769e-02 7.720057e-03 -9.225421e-03
-1.893232e-02 1.100151e-02 -9.230117e-03
7.360426e-05 2.178749e-02 -9.465995e-03
-1.766514e-02 1.281810e-02 -9.453406e-03
-1.209045e-04 -1.504336e-04 2.185135e-02
-9.343189e-03 1.967446e-02 -9.424851e-03
-2.106746e-02 5.340684e-03 -9.518143e-03
-1.826692e-02 -1.206453e-02 -9.229521e-03
-1.894134e-02 -1.101450e-02 -9.098806e-03
-1.936188e-02 -9.896265e-03 -9.510134e-03
-2.175742e-02 5.790938e-04 -9.510333e-03
-1.669145e-02 -1.421685e-02 -9.353915e-03
-1.333434e-02 -1.738672e-02 -9.229113e-03
-2.173009e-02 1.582985e-03 -9.429072e-03
-1.234781e-02 -1.809872e-02 -9.227013e-03
-1.117889e-04 -2.662627e-04 2.202303e-02
-2.147892e-02 -4.235210e-03 -9.236445e-03
-8.978041e-03 -1.991764e-02 -9.420217e-03
-1.601343e-02 -1.493045e-02 -9.226587e-03
-2.173193e-02 -1.979334e-03 -9.472509e-03
-1.132627e-02 -1.873607e-02 -9.267901e-03
5.063269e-03 2.131035e-02 -9.237915e-03
6.237902e-03 2.099488e-02 -9.232207e-03
7.647597e-03 2.064799e-02 -9.075829e-03
2.039455e-02 8.640535e-03 -8.990295e-03
2.021162e-02 -8.691176e-03 -9.176614e-03
-2.875407e-05 8.935213e-05 2.194556e-02
1.428321e-02 -1.673589e-02 -8.666730e-03
2.773690e-03 2.049184e-02 -1.251067e-02
-2.057835e-02 -6.632305e-03 -1.059044e-02
-2.150859e-02 -7.354400e-03 -6.361803e-03
2.168581e-02 -6.584883e-03 -5.319763e-03
-1.810076e-02 6.462269e-03 -1.468818e-02
3.046125e-03 -1.939252e-02 -1.385015e-02
-2.106969e-03 -1.127991e-02 -2.189912e-02
2.284497e-02 4.000423e-03 -4.658599e-03
2.276891e-02 -3.961659e-03 -4.633204e-03
9.241506e-05 -1.132942e-04 2.177687e-02
-9.771136e-03 -8.419052e-03 -2.091183e-02
-9.763855e-03 8.406777e-03 -2.091334e-02
-1.563407e-02 1.710498e-02 -4.506196e-03
1.577414e-02 3.900469e-03 -1.840670e-02
-1.634086e-02 1.630471e-02 -4.332825e-03
-2.319883e-02 -2.548769e-04 -3.005067e-03
6.402225e-03 -2.195757e-02 -4.928454e-03
-1.465266e-02 1.792543e-02 -4.815024e-03
-1.421602e-02 -1.810720e-02 -3.938518e-03
-1.407747e-02 1.826467e-02 -3.238181e-03
-3.876030e-05 2.003561e-04 2.188756e-02
2.203607e-02 -5.713679e-03 -4.860819e-03
-1.204173e-02 -1.830176e-02 -8.523985e-03
-1.317638e-02 -1.879219e-02 -4.113184e-03
2.265628e-02 -4.469152e-03 -1.676110e-03
2.271305e-02 4.791275e-03 -1.498152e-03
2.318915e-02 -1.513795e-03 -2.202326e-03
2.305413e-02 1.579695e-03 -2.258997e-03
-9.869338e-03 1.808880e-02 -1.206720e-02
-1.022923e-02 2.018469e-02 -7.246031e-03
-9.731700e-03 2.010387e-02 -7.507815e-03
1.942216e-05 -7.547492e-05 2.178375e-02
-9.356591e-03 2.047697e-02 -7.124602e-03
8.592605e-03 -2.153995e-02 -1.266592e-03
8.907215e-04 2.140054e-02 -1.082074e-02
-3.163617e-04 -1.120904e-02 -2.175184e-02
-1.843815e-03 -2.111835e-02 -1.104149e-02
-1.569779e-03 -2.306978e-02 -6.230159e-04
-2.190615e-02 7.195701e-03 -4.479115e-03
3.294959e-03 -2.273363e-02 -2.415640e-04
4.132334e-03 -2.280082e-02 -3.126826e-04
-1.708087e-02 -1.545755e-02 -3.458443e-03
3.222337e-05 6.077423e-05 2.186445e-02
-3.176059e-04 -1.203699e-04 2.191917e-02
-1.697058e-02 1.592421e-02 -2.439935e-03
-3.396443e-03 -2.301776e-02 -3.325928e-03
1.829608e-03 2.040673e-02 -1.303246e-02
1.948946e-02 1.255570e-02 -1.147710e-03
1.948967e-02 -1.255709e-02 -1.154687e-03
-2.379562e-03 -2.302313e-02 -4.487158e-04
-1.463426e-02 -1.555063e-02 -1.080133e-02
-1.547588e-02 -1.694436e-02 -7.567346e-04
-1.251694e-02 1.913306e-02 -4.143547e-03
1.296159e-02 -1.906421e-02 -3.770676e-03
-1.614881e-04 -2.928918e-04 2.202392e-02
-1.619222e-02 -1.662299e-02 5.688514e-04
1.398908e-02 1.448690e-02 -1.253200e-02
-1.184905e-02 1.322185e-02 -1.611780e-02
-1.720796e-02 -6.552646e-03 -1.583280e-02
-2.242823e-02 3.276845e-03 -7.469134e-03
-8.289035e-03 2.155678e-02 -3.352607e-03
-2.247342e-02 -3.232240e-03 -7.481113e-03
1.143308e-02 2.039730e-02 -3.428087e-03
1.150172e-02 -2.025118e-02 -3.485722e-03
2.988914e-04 -1.065558e-04 -2.462150e-02
-1.629221e-04 -3.036958e-04 2.198756e-02
7.528078e-03 -2.183398e-02 -5.013866e-03
-5.819755e-03 -2.215233e-02 -5.198085e-03
-5.579195e-03 -2.267592e-02 -1.423070e-03
-1.164771e-02 -1.098275e-02 -1.792353e-02
-1.783599e-03 -1.587079e-02 -1.788839e-02
1.647811e-02 -1.575905e-02 -5.669118e-03
-1.848862e-02 -1.381082e-02 -4.089862e-03
-1.831324e-02 -1.447927e-02 -1.405771e-03
-1.848937e-02 1.381212e-02 -4.091557e-03
-1.831423e-02 1.448544e-02 -1.404870e-03
5.644856e-05 -3.172031e-04 2.184103e-02
-1.156661e-02 -2.007282e-02 -1.467968e-03
-1.180353e-02 1.649850e-02 -1.287037e-02
-2.210947e-02 -4.679342e-03 -7.102917e-03
-2.146981e-02 -5.205583e-03 -7.826571e-03
-2.231066e-02 4.498732e-03 -6.871153e-03
3.799435e-04 -2.267644e-02 -7.034705e-03
-1.985640e-02 1.144507e-02 2.199546e-03
-1.986082e-02 -1.144258e-02 2.204369e-03
3.513706e-04 1.846449e-02 -1.526497e-02
1.491749e-02 1.742641e-02 -4.986799e-03
1.990905e-04 4.066498e-05 2.185331e-02
1.269457e-02 1.499978e-02 -1.352297e-02
1.447777e-02 1.816898e-02 -6.752623e-04
1.557735e-02 -1.593409e-02 -7.974046e-03
1.504577e-02 -1.590463e-02 -8.849957e-03
2.527845e-03 2.281535e-02 1.573261e-03
1.988781e-02 -1.880851e-03 -1.317776e-02
-2.208900e-02 -3.729342e-03 -7.954765e-03
-2.271478e-02 -4.134139e-03 -4.577037e-03
-2.212734e-02 3.721159e-03 -8.004033e-03
-2.267759e-02 4.123601e-03 -4.568868e-03
-8.863505e-05 5.503289e-05 2.183649e-02
2.350793e-03 -6.340375e-03 -2.358214e-02
1.990178e-02 1.948074e-03 -1.325603e-02
1.636723e-02 1.616107e-02 1.456058e-03
-1.424106e-02 1.799398e-02 1.785384e-03
6.974206e-03 -2.163250e-02 4.285606e-03
4.794128e-03 -1.645026e-02 -1.697979e-02
-6.056498e-04 -2.237695e-02 5.183624e-03
-1.453071e-02 -1.727391e-02 4.842788e-03
2.237969e-02 2.828263e-03 4.643245e-03
2.239583e-02 -2.844686e-03 4.573640e-03
1.218794e-04 -8.351382e-05 2.195689e-02
-6.047863e-03 1.009431e-02 -2.150204e-02
-1.153871e-02 1.986338e-02 -4.445175e-03
1.332845e-02 -1.877668e-02 -5.166936e-03
-6.226747e-03 -1.023113e-02 -2.145598e-02
1.675531e-02 -1.466638e-02 -8.068055e-03
1.683661e-02 1.477674e-02 -7.991280e-03
1.678288e-02 1.542976e-02 -6.268749e-03
1.377794e-02 -1.780261e-02 -7.455620e-03
1.382721e-02 -1.868636e-02 -2.262054e-03
1.961083e-02 -1.010230e-02 -8.580939e-03
2.367997e-04 1.538357e-04 2.188951e-02
1.997287e-02 9.609660e-03 -8.359962e-03
1.973990e-02 1.034054e-02 -8.473909e-03
2.010916e-02 -9.399315e-03 -8.254781e-03
-2.060083e-02 -1.068585e-02 -2.739728e-03
-2.094051e-02 -1.003067e-02 -2.390955e-03
-2.106450e-02 9.835323e-03 -2.910863e-03
-2.062304e-02 1.051447e-02 -2.497112e-03
1.330680e-02 1.892054e-02 -3.553438e-03
1.361426e-02 1.815789e-02 3.591689e-03
-2.252719e-02 1.974604e-03 -5.711553e-03
2.124909e-04 2.621421e-04 2.195891e-02
-2.290839e-02 1.774889e-03 -1.916726e-03
-2.277184e-02 -2.266233e-03 -5.940058e-03
1.277162e-02 -4.289271e-03 -2.039045e-02
1.812733e-02 -1.449170e-02 -2.698105e-03
1.835761e-02 -1.373462e-02 -4.990259e-03
1.813626e-02 1.448817e-02 -2.702311e-03
1.836054e-02 1.373541e-02 -4.988081e-03
8.810516e-03 2.150195e-02 -5.847976e-05
1.199785e-02 -1.994171e-02 -2.551202e-03
9.449442e-03 2.118332e-02 -6.159150e-04
-7.607462e-05 -2.597053e-05 2.210225e-02
1.206267e-02 1.997450e-02 -2.392123e-03
-2.311722e-02 -1.524313e-03 7.340600e-04
1.272162e-02 1.935852e-02 -1.071106e-03
-2.258636e-02 -2.786968e-03 3.984857e-03
-2.252157e-02 2.659068e-03 4.001242e-03
1.984040e-02 1.171403e-02 1.774232e-03
1.912020e-02 1.075852e-02 -9.170821e-03
1.984316e-02 -1.171966e-02 1.763468e-03
1.909790e-02 -1.077639e-02 -9.228257e-03
-6.686052e-03 2.189748e-02 1.296481e-03
3.719743e-04 -2.424737e-04 2.195882e-02
4.101107e-04 4.737050e-04 2.212804e-02
-5.913855e-03 2.239424e-02 1.962486e-03
5.335495e-03 2.247194e-02 1.208978e-03
4.326533e-03 2.271483e-02 1.330865e-03
2.260922e-02 -5.304036e-03 -9.834699e-04
1.015479e-02 -2.060534e-02 1.349042e-03
1.051297e-02 2.059793e-02 1.324586e-03
-4.511341e-03 2.935217e-03 -2.381280e-02
-1.926637e-02 1.298723e-02 -4.852735e-03
-4.510608e-03 -2.935512e-03 -2.381190e-02
-1.926559e-02 -1.298725e-02 -4.851798e-03
-9.092378e-06 3.018535e-04 2.191542e-02
6.205708e-03 8.151059e-03 -2.213236e-02
6.838061e-04 -1.551672e-03 -2.470475e-02
1.474959e-02 1.638295e-02 5.838516e-03
-7.457603e-03 2.162061e-02 2.942101e-03
2.212390e-02 3.038114e-04 5.730386e-03
2.215592e-02 -2.296808e-04 6.000643e-03
5.851584e-03 2.215855e-02 3.078365e-03
7.310269e-03 -1.708458e-02 -1.535505e-02
-1.007214e-02 6.266322e-03 -2.129828e-02
-1.007153e-02 -6.266386e-03 -2.129841e-02
6.509783e-05 3.487715e-04 2.227813e-02
-2.189874e-02 -6.274551e-03 2.559283e-03
2.144098e-02 7.909772e-03 2.187455e-03
2.180837e-02 -8.002217e-03 1.846241e-03
1.401348e-02 -1.768663e-02 4.456634e-03
6.548418e-04 6.300166e-04 -2.466261e-02
-2.180015e-02 6.516325e-03 2.946413e-03
3.478765e-04 2.321786e-02 6.859833e-04
-5.209024e-04 -1.395468e-03 -2.457313e-02
-1.273515e-03 1.368115e-03 -2.472644e-02
1.502116e-03 -1.809525e-03 -2.446411e-02
-2.396365e-04 1.570789e-04 2.194377e-02
6.370007e-03 -1.686921e-03 -2.371488e-02
9.010712e-03 -2.612428e-03 -2.271459e-02
-2.939505e-03 1.649903e-02 -1.731105e-02
2.050812e-02 9.024619e-03 5.208059e-03
2.046071e-02 -9.022470e-03 5.140953e-03
1.997641e-02 -9.900449e-03 5.107238e-03
2.024949e-02 9.944946e-03 4.754405e-03
2.773315e-03 5.218257e-04 -2.467922e-02
2.866836e-03 -5.417911e-04 -2.465075e-02
-2.123260e-02 -6.541400e-03 5.882562e-03
-6.090559e-05 -4.163450e-04 2.199852e-02
-2.175838e-02 4.988377e-03 5.601012e-03
-8.620392e-03 2.057597e-02 5.209709e-03
1.566365e-04 -3.370784e-05 -2.478067e-02
1.373207e-04 -8.355676e-05 -2.464863e-02
1.665093e-02 -1.499717e-02 5.482327e-03
-4.422479e-03 3.510486e-03 -2.392433e-02
-4.419259e-03 -3.515543e-03 -2.391373e-02
1.557696e-02 -1.535450e-02 6.139229e-03
1.507915e-03 2.116388e-02 8.303191e-03
1.065118e-03 2.209318e-02 5.622411e-03
-2.094025e-05 -6.560613e-05 2.193399e-02
2.256593e-02 4.217300e-03 -6.120680e-03
2.262499e-02 -4.269471e-03 -6.211501e-03
-2.839497e-03 -3.987159e-03 -2.428334e-02
-2.015046e-02 8.822739e-03 6.186335e-03
-1.931404e-02 1.072023e-02 6.209661e-03
-2.009500e-02 -8.729399e-03 6.214846e-03
-1.926333e-02 -1.070972e-02 6.210608e-03
3.985694e-03 2.275302e-02 -4.134746e-03
-2.605443e-03 2.305500e-02 -1.565536e-03
-1.991673e-03 1.950258e-02 -1.385728e-02
2.218939e-04 -7.466616e-05 2.191632e-02
-2.002901e-03 2.324720e-02 -4.035074e-04
-4.891779e-03 2.272905e-02 -8.693254e-04
-4.198172e-03 1.881507e-02 -1.401588e-02
-3.288917e-03 2.274181e-02 1.219821e-03
-7.210887e-04 2.315627e-02 -1.701636e-03
-4.367554e-04 2.308786e-02 -1.315617e-05
-1.080806e-03 1.699007e-02 -1.720089e-02
5.578957e-03 -2.254746e-02 1.635897e-03
1.758427e-03 -2.299118e-02 1.736428e-03
1.873282e-03 -2.310535e-02 6.131421e-04
-1.368710e-04 2.736445e-04 2.195510e-02
-1.671900e-03 -6.600978e-03 -2.362724e-02
2.188922e-02 1.738690e-03 6.458753e-03
2.188544e-02 -1.747951e-03 6.392243e-03
2.117351e-02 5.082146e-03 6.579377e-03
-3.906229e-03 2.112516e-02 6.813394e-03
-2.669004e-03 1.293673e-03 -2.463248e-02
1.984781e-04 2.423315e-04 -2.477414e-02
-1.277605e-02 1.820645e-02 5.764137e-03
-1.133122e-02 -1.898915e-02 6.222195e-03
-5.340756e-03 2.120369e-02 6.857943e-03
-2.844725e-04 -2.342761e-04 2.187297e-02
-1.347088e-03 -4.112495e-03 -2.426620e-02
-7.469936e-03 -2.150433e-02 2.594075e-03
3.197893e-04 -5.890173e-04 -2.473370e-02
-2.190803e-03 3.522118e-03 -2.439523e-02
-1.350709e-02 -1.683005e-02 7.311386e-03
2.067431e-02 3.189926e-03 8.197695e-03
2.063250e-02 -3.206472e-03 8.255594e-03
-1.652023e-02 -1.415530e-02 7.247800e-03
-1.607249e-02 -1.431066e-02 7.482497e-03
-1.648350e-02 1.416560e-02 7.331915e-03
-1.685920e-06 -2.279995e-04 2.172489e-02
-1.600704e-02 1.430073e-02 7.523468e-03
1.494647e-02 1.532350e-02 7.818549e-03
-3.988534e-03 -2.071521e-02 8.425718e-03
-3.737710e-03 -2.117020e-02 7.667693e-03
-7.623091e-03 -1.198545e-02 -1.988521e-02
1.225059e-02 -1.545515e-03 -2.115625e-02
5.027354e-03 3.108464e-04 -2.424128e-02
1.241670e-02 1.525443e-03 -2.106574e-02
2.223135e-03 2.111343e-02 8.058326e-03
-4.112991e-04 1.049216e-03 -2.458725e-02
-6.085473e-05 8.978220e-05 2.192501e-02
9.356988e-05 -3.226450e-05 2.178146e-02
-2.096194e-02 -1.023381e-02 -2.255224e-03
-2.075931e-02 1.072006e-02 -1.868665e-03
-7.495580e-04 -1.704195e-04 -2.472712e-02
-9.794355e-04 -3.230320e-04 -2.456796e-02
-7.961984e-04 1.609268e-04 -2.466845e-02
-9.713469e-04 3.778183e-04 -2.471848e-02
-1.062024e-02 -2.028116e-02 3.671469e-03
7.679107e-03 2.005076e-02 7.447780e-03
9.713869e-03 2.001853e-02 5.877627e-03
6.064635e-04 -2.135770e-02 -1.114184e-02
9.553052e-05 1.542376e-04 2.188545e-02
-6.340530e-04 2.653036e-04 -2.468834e-02
-1.235766e-02 -1.731170e-02 -1.094085e-02
-1.727913e-02 6.733441e-03 -1.567388e-02
2.120765e-02 7.210052e-03 5.401845e-03
-1.102250e-02 -4.477585e-03 -2.150752e-02
-6.711507e-03 -2.153086e-02 4.982972e-03
-1.639095e-04 -2.112189e-02 8.940934e-03
7.697360e-04 -3.292553e-03 -2.425714e-02
2.068352e-03 -2.334903e-03 -2.445550e-02
3.424691e-03 -2.346694e-04 -2.415057e-02
3.780028e-05 1.505826e-04 2.180126e-02
8.572706e-03 4.143308e-05 -2.302875e-02
-2.103538e-02 -1.538437e-03 8.641824e-03
-4.911399e-05 -1.878591e-04 -2.458062e-02
8.537779e-03 -4.978609e-04 -2.308688e-02
-1.574830e-03 -4.599473e-03 -2.385771e-02
1.403669e-03 3.682574e-03 -2.435662e-02
-1.105910e-03 -3.973812e-03 -2.417610e-02
-8.883853e-04 -4.033702e-03 -2.417723e-02
1.938548e-03 4.376473e-03 -2.383727e-02
2.635831e-03 3.177953e-03 -2.418629e-02
-3.447789e-05 2.905696e-04 2.184424e-02
2.419616e-03 3.326343e-03 -2.417733e-02
4.865709e-03 -9.533479e-04 -2.393198e-02
4.910203e-03 6.949679e-04 -2.393313e-02
4.037361e-03 8.717654e-04 -2.417979e-02
3.745580e-03 1.670319e-03 -2.438455e-02
2.232125e-03 3.452962e-03 -2.417273e-02
3.762724e-03 -1.120469e-03 -2.435179e-02
3.376179e-03 -3.435819e-03 -2.383877e-02
3.894643e-03 -2.834780e-03 -2.399582e-02
4.767861e-03 4.728200e-04 -2.390755e-02
-1.501087e-04 -2.707612e-04 2.186486e-02
2.081212e-03 -4.315205e-03 -2.400004e-02
5.007929e-05 -4.778728e-03 -2.389230e-02
3.610939e-03 -1.975072e-03 -2.415988e-02
-6.252090e-04 -4.063088e-03 -2.416951e-02
2.326988e-03 -4.170916e-03 -2.390297e-02
4.529137e-03 1.411893e-03 -2.395192e-02
4.079489e-03 -5.483876e-04 -2.438977e-02
4.236605e-03 2.146788e-03 -2.394147e-02
2.930692e-03 2.883437e-03 -2.416970e-02
4.286149e-03 2.499169e-03 -2.391395e-02
2.367879e-04 8.083427e-05 2.200206e-02
3.703571e-03 3.183437e-03 -2.394734e-02
2.811953e-03 3.026733e-03 -2.418417e-02
1.243397e-04 -4.812825e-03 -2.387612e-02
-4.004728e-04 -4.095673e-03 -2.418291e-02
3.801877e-03 -1.605283e-03 -2.418206e-02
3.880409e-03 -1.362178e-03 -2.418047e-02
2.434970e-03 -3.449890e-03 -2.426278e-02
4.396001e-04 -3.929532e-03 -2.435448e-02
2.570622e-03 -4.230922e-03 -2.393774e-02
3.972327e-03 1.017901e-03 -2.437396e-02
-2.621482e-04 -1.197211e-04 2.184187e-02
4.034424e-03 -2.569805e-03 -2.382349e-02
1.309355e-03 -4.630619e-03 -2.398750e-02
3.709952e-03 -1.816683e-03 -2.418011e-02
4.588612e-03 -1.182264e-03 -2.392351e-02
3.010562e-03 -2.790855e-03 -2.439087e-02
1.589583e-03 -4.527545e-03 -2.383521e-02
4.749120e-03 -1.406792e-04 -2.394368e-02
1.532550e-03 -3.820630e-03 -2.439429e-02
3.073082e-03 -3.626200e-03 -2.394865e-02
9.731921e-04 -4.638094e-03 -2.394208e-02
3.858464e-05 -1.565433e-04 2.201897e-02
2.613345e-03 -3.160543e-03 -2.429209e-02
3.635999e-03 -3.052093e-03 -2.395464e-02
4.540989e-03 1.796489e-03 -2.395208e-02
-2.720979e-04 -4.101296e-03 -2.440027e-02
7.298776e-04 -4.688541e-03 -2.393841e-02
3.371826e-03 2.349033e-03 -2.417400e-02
2.072798e-03 3.566858e-03 -2.416192e-02
4.787221e-03 -3.222156e-04 -2.399252e-02
4.738474e-03 1.164503e-04 -2.394064e-02
3.119226e-03 2.381857e-03 -2.435655e-02
6.690530e-05 1.037646e-04 2.202873e-02
1.919127e-03 3.645062e-03 -2.439434e-02
-1.721280e-03 -4.450953e-04 -2.477895e-02
2.049899e-02 5.970107e-03 7.889900e-03
4.867288e-03 -1.992506e-02 9.674764e-03
-8.614828e-03 7.132200e-03 -2.203530e-02
-8.604878e-03 -7.105840e-03 -2.198838e-02
2.046977e-03 -1.633657e-02 -1.776683e-02
3.332009e-03 -1.609906e-02 -1.779444e-02
9.800830e-03 4.868856e-04 -2.239819e-02
1.069465e-02 -1.868742e-02 7.100173e-03
-1.294767e-04 -1.400785e-04 2.191223e-02
-9.943735e-03 -1.141327e-02 -1.912161e-02
1.074993e-02 1.868928e-02 7.177268e-03
-1.315077e-02 1.794456e-02 -8.916073e-03
-7.631908e-04 -3.182140e-03 -2.456208e-02
7.488918e-04 -2.997562e-03 -2.446628e-02
-9.917870e-03 -2.021776e-02 4.940174e-03
9.010856e-04 -2.407362e-04 -2.469620e-02
1.228815e-02 1.755408e-02 8.136670e-03
-1.786234e-03 5.809765e-03 -2.390139e-02
2.376729e-03 1.292460e-02 -2.041342e-02
3.296657e-04 -5.944761e-05 2.201618e-02
-1.133917e-04 -2.385550e-04 2.194912e-02
-1.771729e-02 -1.149629e-02 8.527447e-03
-1.771775e-02 1.149731e-02 8.526600e-03
1.913179e-02 1.033465e-02 6.890341e-03
1.915382e-02 -1.026564e-02 6.841660e-03
-3.253840e-04 -6.245778e-05 -2.488918e-02
-1.740160e-02 -1.088886e-02 9.545163e-03
-1.740195e-02 1.088890e-02 9.545019e-03
-1.994955e-02 6.466871e-03 8.909779e-03
-1.445194e-02 1.533825e-02 8.384685e-03
-2.143341e-02 -3.186965e-03 7.198273e-03
1.106888e-04 -6.688130e-05 2.186503e-02
-2.143835e-02 3.204236e-03 7.206058e-03
-7.492322e-03 5.317148e-03 -2.322244e-02
-7.492169e-03 -5.317369e-03 -2.322170e-02
6.969505e-03 2.147583e-02 5.102506e-03
7.539059e-03 2.202535e-02 1.464790e-03
4.578409e-03 2.208474e-02 5.124189e-03
4.826213e-03 2.264292e-02 1.832805e-03
-8.670989e-03 -2.068562e-02 5.128546e-03
-9.332448e-03 -2.121143e-02 1.361672e-03
-1.686751e-02 -1.500959e-02 5.051275e-03
-1.849495e-04 -1.639713e-04 2.184966e-02
-1.766392e-02 -1.509008e-02 1.337115e-03
-1.107868e-02 -1.962240e-02 5.120214e-03
-1.148471e-02 -2.008933e-02 1.824835e-03
-2.223826e-02 -3.816758e-03 5.076893e-03
-2.287903e-02 -3.417198e-03 1.703164e-03
-1.605386e-02 -1.583847e-02 5.113931e-03
-1.656061e-02 -1.615843e-02 1.841900e-03
-2.224876e-02 3.652194e-03 5.051188e-03
-2.273199e-02 4.247275e-03 1.716946e-03
-1.420143e-02 -1.752269e-02 5.128653e-03
3.255566e-05 -8.315052e-05 2.201734e-02
-1.466538e-02 -1.789660e-02 1.852855e-03
-1.320981e-02 -1.828381e-02 5.113981e-03
-1.365865e-02 -1.868057e-02 1.842854e-03
-2.177335e-02 6.478715e-03 4.666016e-03
-2.233642e-02 5.923163e-03 1.631951e-03
-1.217669e-02 -1.899275e-02 5.116845e-03
-1.259966e-02 -1.941523e-02 1.838810e-03
-2.270952e-02 -1.103655e-03 4.665156e-03
-2.311664e-02 -1.759122e-03 1.603358e-03
-2.152486e-02 -7.285162e-03 4.655498e-03