# vtk DataFile Version 2.0
Electric current density generated by TTH
ASCII
DATASET UNSTRUCTURED_GRID
POINTS 4219 double
3.334271e-05 -8.166609e-21 -2.414831e-22
3.287990e-05 5.536148e-06 -2.414831e-22
-8.704323e-06 3.218651e-05 -2.414831e-22
-2.753543e-06 -3.152625e-05 6.835415e-07
1.067917e-05 -3.049698e-05 -9.849437e-07
3.004926e-05 1.313941e-05 8.825071e-07
-1.644844e-05 -2.671399e-05 -4.260450e-08
-1.522347e-05 -2.773197e-05 6.723573e-07
3.036964e-05 -9.612901e-06 -8.485175e-07
2.535672e-05 1.910232e-05 -7.746129e-07
2.535672e-05 -1.910232e-05 -7.746129e-07
-2.389706e-05 2.247416e-05 8.782413e-07
3.040493e-05 8.790836e-06 6.876523e-07
-9.299353e-06 3.201966e-05 -2.414831e-22
2.708171e-05 -1.874128e-05 7.992329e-07
2.708171e-05 1.874128e-05 7.992329e-07
-1.039741e-05 -2.989161e-05 6.856354e-07
-6.083065e-06 -3.105905e-05 6.865189e-07
-3.835064e-08 -3.164919e-05 6.865896e-07
4.450351e-06 -3.135408e-05 7.057650e-07
2.525072e-05 -2.107940e-05 -8.274555e-07
2.525072e-05 2.107940e-05 -8.274555e-07
2.970781e-05 -1.113955e-05 -7.591114e-07
7.636148e-07 3.295387e-05 7.777555e-07
-9.891189e-06 3.184181e-05 -2.414831e-22
-1.568145e-05 2.899367e-05 7.777555e-07
-3.114525e-05 -1.079417e-05 7.777555e-07
-3.282127e-05 -3.050362e-06 7.777555e-07
2.966868e-05 1.022896e-05 1.511710e-07
3.084150e-05 -6.789029e-06 6.070285e-07
3.046401e-05 9.663725e-06 9.025757e-07
2.224656e-05 2.256791e-05 -7.257396e-07
2.224656e-05 -2.256791e-05 -7.257396e-07
2.773457e-05 -1.476232e-05 3.033062e-07
2.418723e-05 -2.225032e-05 -8.449365e-07
-1.047963e-05 3.165302e-05 -2.414831e-22
2.418723e-05 2.225032e-05 -8.449365e-07
2.345778e-05 2.117298e-05 6.319758e-07
2.345778e-05 -2.117298e-05 6.319758e-07
-3.182697e-05 8.022384e-06 8.690201e-07
-2.889116e-05 1.557611e-05 8.690201e-07
-3.066354e-05 1.170733e-05 8.690201e-07
-2.663314e-05 1.918307e-05 8.690201e-07
3.022121e-05 -1.299983e-05 -8.237173e-07
1.700383e-05 -2.822995e-05 -7.833782e-07
1.705088e-05 2.821108e-05 -7.770870e-07
-1.106447e-05 3.145336e-05 -2.414831e-22
1.049696e-05 -3.112486e-05 8.552650e-07
8.547447e-06 3.166618e-05 8.809530e-07
1.444842e-05 -2.947863e-05 8.654583e-07
-5.198677e-06 3.094097e-05 -8.662590e-08
3.186041e-05 7.926581e-06 8.640455e-07
3.240294e-05 5.418101e-06 8.520750e-07
3.241055e-05 -5.376697e-06 8.516618e-07
1.550896e-05 -2.906381e-05 -7.928167e-07
8.897071e-06 -3.020742e-05 -4.706010e-07
-1.049341e-05 -3.055880e-05 -9.848307e-07
-1.164550e-05 3.124290e-05 -2.414831e-22
9.213195e-08 -3.231013e-05 -9.848313e-07
4.385689e-06 -3.201123e-05 -9.848313e-07
-6.338713e-06 -3.168239e-05 -9.848313e-07
2.073001e-05 2.556389e-05 -8.142575e-07
2.073001e-05 -2.556389e-05 -8.142575e-07
1.346618e-05 3.000864e-05 -8.282745e-07
-2.625058e-05 1.803077e-05 -8.436204e-07
-2.836273e-05 1.448299e-05 -8.436204e-07
-3.069904e-05 8.471749e-06 -8.436204e-07
3.011759e-05 -1.309695e-05 8.582445e-07
-1.222254e-05 3.102170e-05 -2.414831e-22
-2.076595e-05 2.415753e-05 8.493351e-07
-3.032929e-05 -9.591821e-06 8.203427e-07
-1.588723e-05 2.755599e-05 8.189559e-07
-3.157957e-05 -3.803642e-06 8.189559e-07
-1.281364e-07 3.180756e-05 8.189562e-07
2.771988e-05 1.479472e-05 3.102339e-07
-2.921436e-05 1.143584e-05 -6.307270e-08
2.090409e-05 -2.395523e-05 -8.092617e-07
2.090409e-05 2.395523e-05 -8.092617e-07
-2.250561e-05 2.399734e-05 8.231345e-07
-1.279538e-05 3.078985e-05 -2.414831e-22
3.181968e-05 4.196430e-06 -9.505949e-07
3.246081e-05 4.988761e-06 -8.583090e-07
3.181968e-05 -4.196430e-06 -9.505949e-07
3.246081e-05 -4.988761e-06 -8.583090e-07
2.340255e-05 2.128275e-05 -6.692697e-07
2.340255e-05 -2.128275e-05 -6.692697e-07
-3.020237e-05 -8.496273e-06 -8.662559e-08
-1.966343e-05 2.444830e-05 -8.662559e-08
3.112221e-05 -6.506242e-06 -8.102314e-07
3.112221e-05 6.506242e-06 -8.102314e-07
-1.336382e-05 3.054742e-05 -2.414831e-22
2.165964e-05 2.478021e-05 8.147434e-07
2.165964e-05 -2.478021e-05 8.147434e-07
3.022488e-05 1.305179e-05 -8.074586e-07
-2.007816e-05 -2.612554e-05 7.877978e-07
-3.140819e-05 1.000691e-05 -7.769028e-07
-2.786440e-05 1.756665e-05 -7.952806e-07
-3.241392e-05 5.860908e-06 -7.952806e-07
-2.990298e-05 1.381367e-05 -7.953528e-07
-2.535748e-05 2.102404e-05 -7.952806e-07
-1.912766e-05 2.684505e-05 -7.779487e-07
-1.392768e-05 3.029449e-05 -2.414831e-22
-3.219682e-05 -7.063217e-06 -7.779487e-07
-3.294522e-06 3.279741e-05 -7.779486e-07
7.556375e-06 -3.206321e-05 7.937646e-07
1.894139e-05 -2.539936e-05 -7.211190e-07
1.894139e-05 2.539936e-05 -7.211190e-07
2.239712e-05 2.423470e-05 7.478466e-07
2.239712e-05 -2.423470e-05 7.478466e-07
-3.036509e-05 -1.279840e-05 -7.859481e-07
-1.208881e-05 -3.062525e-05 -8.058327e-07
-1.298831e-05 -3.033250e-05 -7.503704e-07
3.277165e-05 6.144573e-06 -2.414831e-22
-1.448674e-05 3.003116e-05 -2.414831e-22
-1.393532e-06 -3.289534e-05 -8.058291e-07
-2.339297e-06 -3.291328e-05 -7.503745e-07
9.478683e-06 -3.152798e-05 -8.078210e-07
8.567667e-06 -3.186458e-05 -7.503745e-07
5.938110e-06 -3.238494e-05 -8.058291e-07
6.895452e-06 -3.226409e-05 -7.534288e-07
-4.994267e-06 -3.254386e-05 -8.058291e-07
-4.050136e-06 -3.274317e-05 -7.534289e-07
-1.537594e-05 -2.911403e-05 -8.058192e-07
-1.454912e-05 -2.961150e-05 -7.534459e-07
-1.504084e-05 2.975752e-05 -2.414831e-22
-2.405091e-05 -2.238057e-05 -8.518066e-07
-2.345875e-05 -2.319331e-05 -7.569434e-07
2.929672e-05 1.276574e-05 -9.013232e-07
-2.123829e-05 2.317959e-05 3.580478e-07
-6.043048e-06 3.112538e-05 -7.411524e-07
2.815501e-05 1.442488e-05 -6.717780e-07
-1.684477e-05 -2.686638e-05 7.444639e-07
-2.144420e-05 -2.498914e-05 -8.029745e-07
-2.216624e-05 -2.443534e-05 -7.545885e-07
2.922629e-05 1.516134e-05 8.058641e-07
-1.558976e-05 2.947365e-05 -2.414831e-22
2.717322e-05 1.868491e-05 -7.660774e-07
2.717322e-05 -1.868491e-05 -7.660774e-07
1.584677e-06 3.176839e-05 8.190094e-07
-1.438052e-05 2.837151e-05 8.190093e-07
-2.976562e-05 -1.121383e-05 8.190093e-07
-3.173864e-05 -2.097781e-06 8.190093e-07
1.959753e-05 -2.652827e-05 7.623393e-07
1.959753e-05 2.652827e-05 7.623393e-07
1.783887e-05 -2.771304e-05 7.813157e-07
1.781833e-05 2.772471e-05 7.823050e-07
-1.613333e-05 2.917965e-05 -2.414831e-22
2.355860e-05 -2.299414e-05 8.091006e-07
2.355860e-05 2.299414e-05 8.091006e-07
1.136194e-05 3.085025e-05 -8.381348e-07
1.151222e-05 -3.088533e-05 -7.790014e-07
-1.995383e-05 -2.485316e-05 8.586020e-07
-8.687180e-06 3.179509e-05 7.794763e-07
3.202318e-05 -2.134970e-06 9.503375e-07
3.202318e-05 2.134970e-06 9.503375e-07
2.430687e-05 2.222815e-05 7.963607e-07
2.430687e-05 -2.222815e-05 7.963607e-07
-1.667136e-05 2.887564e-05 -2.414831e-22
2.421858e-05 2.042469e-05 -7.182137e-07
2.421858e-05 -2.042469e-05 -7.182137e-07
2.923022e-05 -1.515696e-05 8.048262e-07
3.343616e-06 3.271231e-05 -8.339160e-07
-5.457168e-06 3.242678e-05 -8.339046e-07
-1.332135e-05 3.006357e-05 -8.339046e-07
-3.287401e-05 -7.591157e-07 -8.339046e-07
-2.082173e-05 2.545058e-05 -8.339046e-07
-3.157870e-05 -9.168531e-06 -8.339046e-07
-9.606602e-06 3.144821e-05 -8.339046e-07
-1.720366e-05 2.856170e-05 -2.414831e-22
7.255152e-06 3.207272e-05 -8.337105e-07
-1.801013e-05 -2.754086e-05 -8.181940e-07
-2.871413e-05 -1.606730e-05 8.202704e-07
1.008896e-05 -3.018732e-05 8.325267e-07
-3.060942e-05 1.202479e-05 -8.314389e-07
-1.532213e-05 -2.918120e-05 7.804660e-07
3.027596e-05 8.928460e-06 -5.875231e-07
1.498973e-05 2.829111e-05 9.254763e-07
2.370218e-05 -2.297516e-05 -7.386020e-07
2.370218e-05 2.297516e-05 -7.386020e-07
-1.773005e-05 2.823795e-05 -2.414831e-22
-2.960864e-05 -1.443898e-05 7.936828e-07
-2.413487e-05 -2.128909e-05 -9.704135e-07
2.613751e-05 2.007835e-05 7.804749e-07
2.613751e-05 -2.007835e-05 7.804749e-07
2.577829e-05 -1.851100e-05 7.660005e-07
2.577829e-05 1.851100e-05 7.660005e-07
4.701749e-06 3.260686e-05 7.919068e-07
-3.297057e-05 9.324957e-07 7.608985e-07
-1.208969e-05 3.064561e-05 7.919071e-07
-2.837430e-05 -1.673717e-05 -7.928066e-07
-1.825035e-05 2.790450e-05 -2.414831e-22
2.549145e-05 2.087291e-05 7.898922e-07
2.549145e-05 -2.087291e-05 7.898922e-07
-2.234872e-05 -2.266399e-05 -8.331332e-07
-2.172630e-05 -2.328198e-05 -8.424919e-07
-1.882470e-06 -3.164512e-05 7.362667e-07
-3.181053e-05 2.648531e-06 8.841956e-07
-1.599423e-08 3.172231e-05 -7.546552e-07
-1.574758e-05 2.753759e-05 -7.546547e-07
-2.068506e-05 2.408031e-05 -7.730105e-07
-3.150786e-05 -3.682401e-06 -7.546547e-07
-1.876438e-05 2.756147e-05 -2.414831e-22
-3.024299e-05 -9.611502e-06 -7.639735e-07
3.238994e-05 -6.290124e-06 7.514433e-07
3.239325e-05 6.304367e-06 7.463329e-07
3.150517e-05 -3.806333e-06 7.645456e-07
3.150517e-05 3.806333e-06 7.645456e-07
-2.635364e-05 -1.795117e-05 8.666253e-07
2.722304e-05 1.605410e-05 -6.369740e-07
2.721369e-05 -1.604325e-05 -6.205883e-07
2.867851e-05 -1.360927e-05 7.722127e-07
-1.291546e-05 -2.910106e-05 -8.386205e-07
-1.927196e-05 2.720897e-05 -2.414831e-22
-1.369632e-05 -2.870916e-05 -8.196700e-07
-8.717434e-06 -3.062168e-05 -8.386230e-07
-7.866743e-06 -3.082070e-05 -8.196322e-07
-2.673727e-06 -3.172589e-05 -8.386231e-07
-3.539836e-06 -3.161125e-05 -8.196340e-07
1.790773e-06 -3.178795e-05 -8.386231e-07
2.659734e-06 -3.169743e-05 -8.196338e-07
7.934237e-06 -3.081306e-05 -8.258141e-07
7.006949e-06 -3.102747e-05 -8.196338e-07
4.186513e-06 3.118009e-05 4.094409e-07
3.265214e-05 6.750888e-06 -2.414831e-22
-1.977293e-05 2.684712e-05 -2.414831e-22
-1.182987e-05 2.915112e-05 4.097497e-07
1.125217e-05 -2.952568e-05 6.284512e-07
-1.027657e-05 -3.127658e-05 8.081017e-07
5.320865e-07 -3.291732e-05 8.080976e-07
-6.887784e-06 -3.219303e-05 8.080976e-07
3.051292e-05 -8.783926e-06 7.787207e-07
2.214670e-05 -2.438430e-05 -7.946357e-07
2.214670e-05 2.438430e-05 -7.946357e-07
2.531744e-05 1.923543e-05 8.107946e-07
2.531744e-05 -1.923543e-05 8.107946e-07
-2.026710e-05 2.647605e-05 -2.414831e-22
-2.636146e-05 1.712238e-05 -3.474241e-07
-3.007548e-05 9.141550e-06 -3.474241e-07
-2.835515e-05 1.356789e-05 -3.474241e-07
3.101307e-05 8.080764e-06 -9.365076e-07
1.273243e-05 -2.900012e-05 7.094119e-07
3.110486e-06 -3.281515e-05 -7.781254e-07
1.466428e-06 -3.292961e-05 -7.781254e-07
[...]
POINT_DATA 4219
VECTORS 10.000GHz_fone_imag double
-1.503688e-04 1.592531e-05 1.817449e-02
-1.011845e-04 1.036372e-04 1.808299e-02
4.202003e-05 6.303369e-04 1.816078e-02
1.393605e-03 1.510698e-02 -1.648913e-02
6.328861e-03 -1.923608e-02 -1.887104e-03
-1.602639e-02 -7.122481e-03 8.240571e-03
-7.413852e-04 -6.547359e-04 -2.253961e-02
7.066728e-03 1.295344e-02 -1.633980e-02
1.743064e-02 -5.521901e-03 -1.180136e-02
1.360198e-02 1.023837e-02 -1.412390e-02
1.360308e-02 -1.024126e-02 -1.412677e-02
1.272020e-02 -1.173987e-02 8.541332e-03
-1.456321e-02 -4.282369e-03 -1.624093e-02
-4.998954e-04 2.009299e-04 1.811371e-02
-1.277975e-02 9.194764e-03 1.049925e-02
-1.279286e-02 -9.194177e-03 1.051045e-02
4.798160e-03 1.439311e-02 -1.609695e-02
3.166465e-03 1.484375e-02 -1.601905e-02
-1.802875e-04 1.518401e-02 -1.603413e-02
-2.362528e-03 1.587573e-02 -1.543038e-02
1.225838e-02 -1.035838e-02 9.842889e-03
1.225646e-02 1.035656e-02 9.843258e-03
1.550959e-02 -5.317312e-03 -1.447696e-02
-3.648595e-04 -1.502717e-02 1.083744e-02
1.476365e-04 9.102532e-05 1.822937e-02
7.135044e-03 -1.324722e-02 1.083505e-02
1.424157e-02 4.796113e-03 1.084552e-02
1.498888e-02 1.453561e-03 1.076739e-02
-3.056199e-03 -7.065799e-04 -2.285046e-02
-1.313596e-02 2.760191e-03 -1.785780e-02
-1.856636e-02 -5.716328e-03 -8.983024e-03
1.116197e-02 1.145843e-02 -1.533872e-02
1.116163e-02 -1.145871e-02 -1.533708e-02
-6.044376e-03 3.205907e-03 -2.158917e-02
1.219682e-02 -1.112972e-02 9.208299e-03
-2.228142e-04 4.411280e-04 1.825163e-02
1.219683e-02 1.113052e-02 9.207517e-03
-9.993270e-03 -9.383925e-03 -1.764947e-02
-9.993240e-03 9.383039e-03 -1.764841e-02
1.665086e-02 -4.156682e-03 8.720396e-03
1.494462e-02 -8.058189e-03 8.828428e-03
1.609493e-02 -6.287429e-03 8.647002e-03
1.385339e-02 -9.954384e-03 8.720407e-03
1.486381e-02 -6.335415e-03 1.002020e-02
8.027532e-03 -1.312458e-02 1.111029e-02
7.910279e-03 1.329070e-02 1.119769e-02
-1.958386e-04 1.877939e-04 1.818517e-02
-5.375911e-03 1.605236e-02 9.057520e-03
-4.674933e-03 -1.714531e-02 8.381914e-03
-7.347030e-03 1.532443e-02 8.870370e-03
-3.300656e-05 1.738370e-03 -2.296057e-02
-1.652508e-02 -3.694995e-03 8.701319e-03
-1.679631e-02 -2.802945e-03 9.052998e-03
-1.665248e-02 2.941512e-03 9.056034e-03
7.327963e-03 -1.382597e-02 1.087347e-02
2.930036e-03 -9.730593e-03 -1.979162e-02
-6.653486e-03 -1.926107e-02 -1.884619e-03
-3.249186e-05 -3.790601e-04 1.812180e-02
5.064888e-05 -2.035993e-02 -1.885152e-03
2.824576e-03 -2.034325e-02 -1.907179e-03
-4.062062e-03 -1.996612e-02 -1.880820e-03
1.000422e-02 1.239238e-02 1.028925e-02
1.000316e-02 -1.239161e-02 1.028846e-02
6.367207e-03 1.489881e-02 9.898140e-03
-1.509359e-02 1.025577e-02 -1.151730e-02
-1.625450e-02 8.271204e-03 -1.151039e-02
-1.732115e-02 5.010761e-03 -1.170534e-02
-1.523621e-02 6.800963e-03 9.131926e-03
-4.839528e-05 3.975085e-04 1.808318e-02
1.176062e-02 -1.377089e-02 -1.165770e-02
1.676986e-02 5.463873e-03 -1.239402e-02
8.572925e-03 -1.537211e-02 -1.249867e-02
1.749893e-02 1.877000e-03 -1.250256e-02
-1.761422e-04 -1.762944e-02 -1.246927e-02
-6.316257e-03 -3.363603e-03 -2.156227e-02
-1.402326e-03 2.675141e-04 -2.264282e-02
1.171689e-02 -1.340280e-02 -1.306953e-02
1.171857e-02 1.340408e-02 -1.306880e-02
1.114921e-02 -1.188749e-02 9.924096e-03
1.087249e-04 1.294817e-04 1.824091e-02
1.968413e-02 2.801391e-03 -6.153894e-03
1.660511e-02 2.759384e-03 8.929125e-03
1.970452e-02 -2.879216e-03 -6.345276e-03
1.678924e-02 -2.583286e-03 8.868533e-03
1.089533e-02 1.045926e-02 -1.616627e-02
1.089601e-02 -1.045950e-02 -1.616709e-02
-2.049547e-03 -3.376176e-04 -2.280770e-02
-1.084460e-03 1.378801e-03 -2.266186e-02
1.705498e-02 -3.572082e-03 -1.287025e-02
1.702151e-02 3.623384e-03 -1.289107e-02
-3.553305e-04 3.500658e-05 1.799214e-02
-1.058451e-02 -1.186014e-02 1.007989e-02
-1.058491e-02 1.186235e-02 1.007962e-02
1.453299e-02 6.470733e-03 1.053301e-02
9.694356e-03 1.199000e-02 1.082239e-02
-1.419471e-02 4.831892e-03 1.112484e-02
-1.306570e-02 8.347474e-03 1.057983e-02
-1.504080e-02 2.842128e-03 1.080142e-02
-1.411088e-02 6.488604e-03 1.063668e-02
-1.178277e-02 9.792024e-03 1.077745e-02
-8.804943e-03 1.246717e-02 1.129936e-02
1.007586e-04 1.608691e-06 1.793263e-02
-1.477427e-02 -2.855163e-03 1.137722e-02
-1.821916e-03 1.486424e-02 1.123681e-02
-3.732319e-03 1.528171e-02 1.048126e-02
9.447967e-03 -1.275373e-02 -1.550238e-02
9.455783e-03 1.274190e-02 -1.550126e-02
-9.971250e-03 -1.071406e-02 1.174128e-02
-9.971285e-03 1.071529e-02 1.174100e-02
-1.413744e-02 -5.710406e-03 1.069295e-02
-5.924910e-03 -1.474609e-02 1.023037e-02
-5.829937e-03 -1.355689e-02 1.169508e-02
5.088638e-05 -1.535689e-04 1.804362e-02
-2.032726e-04 5.398186e-05 1.800709e-02
-7.362923e-04 -1.594321e-02 1.035858e-02
-1.104502e-03 -1.480564e-02 1.171505e-02
4.596650e-03 -1.532614e-02 1.016128e-02
3.470982e-03 -1.414099e-02 1.188604e-02
2.822268e-03 -1.602211e-02 1.011238e-02
3.361689e-03 -1.415199e-02 1.193738e-02
-2.224414e-03 -1.577808e-02 1.037893e-02
-1.777132e-03 -1.454200e-02 1.178471e-02
-7.454178e-03 -1.391446e-02 1.021254e-02
-6.302763e-03 -1.325407e-02 1.170563e-02
-9.340506e-05 5.835722e-05 1.811455e-02
-1.263768e-02 -1.162978e-02 8.870634e-03
-1.080743e-02 -1.056372e-02 1.131940e-02
1.760506e-02 7.885294e-03 -9.619627e-03
4.915513e-03 -5.769539e-03 -2.115824e-02
-3.207901e-03 1.578681e-02 -1.528696e-02
1.319380e-02 6.458835e-03 -1.651964e-02
8.363726e-03 1.369058e-02 -1.480088e-02
-1.023305e-02 -1.184426e-02 1.054036e-02
-9.802165e-03 -1.096811e-02 1.163984e-02
-1.409695e-02 -7.224966e-03 1.048919e-02
-1.646885e-05 -9.568470e-05 1.797603e-02
1.247799e-02 8.515093e-03 1.119805e-02
1.249289e-02 -8.510768e-03 1.120771e-02
-9.424795e-04 -1.775385e-02 -1.269828e-02
7.986026e-03 -1.588156e-02 -1.269764e-02
1.648774e-02 6.265145e-03 -1.267510e-02
1.771006e-02 1.132503e-03 -1.259282e-02
-8.700674e-03 1.219972e-02 1.125037e-02
-8.712796e-03 -1.219624e-02 1.124990e-02
-8.511851e-03 1.289399e-02 1.101858e-02
-8.383972e-03 -1.285004e-02 1.096416e-02
1.677428e-04 -4.788169e-04 1.790113e-02
-1.165917e-02 1.135740e-02 1.008104e-02
-1.165864e-02 -1.135730e-02 1.008221e-02
5.490989e-03 1.554028e-02 9.448224e-03
5.391846e-03 -1.453908e-02 1.112220e-02
1.151682e-02 1.419858e-02 -1.104754e-02
4.001861e-03 -1.447278e-02 1.130791e-02
-2.013307e-02 1.227247e-03 -6.721994e-03
-2.020765e-02 -1.055929e-03 -6.702846e-03
-1.137561e-02 -1.045323e-02 1.074909e-02
-1.137505e-02 1.045277e-02 1.074942e-02
2.813470e-04 -5.952057e-07 1.802836e-02
1.244996e-02 1.009564e-02 -1.554537e-02
1.244964e-02 -1.009851e-02 -1.554513e-02
-1.408162e-02 7.313546e-03 1.058088e-02
1.502883e-03 1.613078e-02 9.702195e-03
-2.995800e-03 1.586978e-02 9.939071e-03
-6.697121e-03 1.475718e-02 9.678381e-03
-1.613007e-02 -6.721060e-04 9.867480e-03
-1.054635e-02 1.284187e-02 9.654681e-03
-1.577004e-02 -4.790737e-03 9.725680e-03
-4.717337e-03 1.570869e-02 9.467960e-03
2.806927e-04 9.808234e-05 1.800833e-02
3.644658e-03 1.602966e-02 9.508268e-03
-8.742201e-03 -1.338014e-02 9.907383e-03
1.404935e-02 8.002283e-03 9.993547e-03
-5.757399e-03 1.716788e-02 -1.206782e-02
-1.526637e-02 6.047918e-03 9.429749e-03
7.208259e-03 1.362691e-02 1.100493e-02
1.281660e-02 3.698265e-03 -1.808344e-02
-9.009204e-03 -1.752003e-02 -7.631290e-03
1.036428e-02 -9.962125e-03 1.159355e-02
1.036252e-02 9.961898e-03 1.159477e-02
-3.186555e-04 4.648652e-04 1.790333e-02
1.408327e-02 6.789235e-03 1.064575e-02
-1.534014e-02 -1.330446e-02 -4.570546e-03
-1.207153e-02 -9.256942e-03 1.106176e-02
-1.206838e-02 9.257547e-03 1.106044e-02
-1.341139e-02 9.636429e-03 -1.452134e-02
-1.341181e-02 -9.645636e-03 -1.452526e-02
-2.382675e-03 -1.533759e-02 1.071465e-02
1.496898e-02 -2.605518e-04 1.122609e-02
5.528279e-03 -1.450343e-02 1.071517e-02
-1.343073e-02 -7.972807e-03 1.073099e-02
-1.304496e-04 -6.711728e-05 1.802258e-02
-1.209259e-02 -9.794617e-03 1.052773e-02
-1.209195e-02 9.795348e-03 1.052636e-02
-1.269286e-02 -1.262501e-02 -1.177757e-02
-1.241356e-02 -1.327364e-02 -1.178367e-02
1.097862e-03 1.602493e-02 -1.486286e-02
1.904869e-02 -1.685293e-03 -1.004622e-02
-1.535184e-04 1.663055e-02 -1.456703e-02
-8.361594e-03 1.433942e-02 -1.455652e-02
-1.089744e-02 1.264792e-02 -1.385519e-02
-1.647785e-02 -2.100288e-03 -1.456729e-02
-1.716876e-04 -7.220400e-05 1.811617e-02
-1.614398e-02 -4.758467e-03 -1.421212e-02
-1.450932e-02 2.968877e-03 1.146314e-02
-1.460837e-02 -2.860911e-03 1.178031e-02
-1.659193e-02 1.895996e-03 -1.425285e-02
-1.659480e-02 -2.282062e-03 -1.404797e-02
1.547182e-02 1.056138e-02 -1.106180e-02
1.195648e-02 6.918070e-03 -1.688021e-02
1.168429e-02 -6.867975e-03 -1.746569e-02
-1.505013e-02 7.198636e-03 -1.420563e-02
-7.346627e-03 -1.649270e-02 -1.197832e-02
8.086224e-05 -3.498882e-04 1.797241e-02
-7.626796e-03 -1.602695e-02 -1.248768e-02
-4.822880e-03 -1.733777e-02 -1.206520e-02
-4.447556e-03 -1.711462e-02 -1.271864e-02
-1.565549e-03 -1.807073e-02 -1.178596e-02
-1.897811e-03 -1.773871e-02 -1.262930e-02
8.858017e-04 -1.797037e-02 -1.234529e-02
1.714646e-03 -1.763083e-02 -1.266051e-02
4.336721e-03 -1.738885e-02 -1.238637e-02
3.976266e-03 -1.751825e-02 -1.243842e-02
-1.377238e-03 -8.840530e-03 -2.085852e-02
-8.453510e-06 1.106445e-04 1.806307e-02
2.811447e-04 -2.651378e-04 1.805450e-02
3.189768e-03 -8.351120e-03 -2.086558e-02
-4.913762e-03 1.288804e-02 -1.760660e-02
5.184908e-03 1.468172e-02 1.056456e-02
8.431874e-05 1.557905e-02 1.058413e-02
2.922266e-03 1.525798e-02 1.053193e-02
-1.631490e-02 4.989474e-03 -1.367613e-02
1.055905e-02 -1.161625e-02 1.068511e-02
1.055973e-02 1.161703e-02 1.068485e-02
-1.393835e-02 -1.073636e-02 -1.273512e-02
-1.393698e-02 1.073107e-02 -1.273398e-02
3.535026e-04 6.866299e-05 1.821033e-02
-6.602444e-03 4.309507e-03 -2.115305e-02
-7.549630e-03 2.403186e-03 -2.115772e-02
-7.072521e-03 3.384026e-03 -2.119209e-02
1.884153e-02 4.956310e-03 -7.332965e-03
-6.089647e-03 1.429884e-02 -1.605922e-02
1.491737e-03 -1.515259e-02 1.092412e-02
7.150001e-04 -1.558792e-02 1.101718e-02
-3.724210e-03 -1.496518e-02 1.108981e-02
-4.442033e-03 -1.494589e-02 1.104814e-02
1.299248e-02 -6.308292e-03 1.196806e-02
-1.918656e-04 1.874603e-04 1.825513e-02
1.314024e-02 6.482985e-03 1.168926e-02
1.787427e-03 1.388059e-02 1.200916e-02
-1.440944e-02 -6.835339e-03 -1.472829e-02
1.300385e-02 -8.884297e-03 -1.589999e-02
1.404942e-02 -7.123424e-03 -1.587900e-02
1.501441e-02 -4.275869e-03 -1.574367e-02
1.022520e-02 -1.014303e-02 1.205437e-02
-9.411634e-03 -1.015281e-02 -1.747369e-02
-9.412820e-03 1.015326e-02 -1.747326e-02
-1.526827e-02 -3.141545e-03 -1.564706e-02
2.282955e-05 3.357745e-04 1.804731e-02
9.513238e-04 -1.527564e-02 -1.601330e-02
8.487507e-03 -1.277015e-02 -1.595317e-02
1.134657e-02 -1.000172e-02 -1.621143e-02
1.519870e-02 -2.094775e-03 -1.603225e-02
1.511057e-02 2.856460e-03 -1.601840e-02
-5.419282e-04 7.894101e-03 -2.132965e-02
-5.816664e-03 5.003552e-03 -2.135076e-02
-4.295363e-03 6.276857e-03 -2.139448e-02
-8.098491e-03 1.048996e-03 -2.104137e-02
-7.592479e-03 -1.586589e-03 -2.151303e-02
-2.138959e-04 7.400233e-05 1.808477e-02
1.381622e-02 -3.104612e-03 1.238535e-02
1.317154e-02 -5.419014e-03 1.239607e-02
1.136036e-02 -8.509270e-03 1.236615e-02
1.247440e-02 -7.042747e-03 1.228014e-02
-2.436424e-04 -2.410853e-03 -2.265846e-02
5.174779e-04 -2.547298e-03 -2.290571e-02
-1.174147e-04 -2.361945e-03 -2.262688e-02
-1.063162e-03 -2.237656e-03 -2.267527e-02
-1.005372e-02 1.450880e-02 -1.246651e-02
-1.005811e-02 -1.441364e-02 -1.252408e-02
-1.932828e-04 3.212929e-04 1.810699e-02
9.443818e-03 -4.976958e-03 -1.994424e-02
-4.806339e-03 -1.428264e-02 1.135443e-02
1.342707e-04 -1.508047e-02 1.131708e-02
1.885596e-03 -1.477676e-02 1.150180e-02
-3.086745e-03 -1.471969e-02 1.140982e-02
8.346631e-03 -1.224681e-02 1.148422e-02
8.406330e-03 1.230580e-02 1.152747e-02
2.718370e-03 -1.677609e-02 -1.371270e-02
5.562777e-03 1.363352e-02 -1.625348e-02
-1.001583e-02 -9.118182e-03 -1.727173e-02
-2.707364e-05 -7.533432e-05 1.810556e-02
-1.001592e-02 9.117641e-03 -1.727129e-02
1.302979e-02 1.405145e-02 -9.200629e-03
9.501463e-03 1.015495e-02 1.187746e-02
4.074889e-03 -1.643242e-02 -1.410959e-02
7.512680e-03 1.237506e-02 1.195254e-02
-1.100587e-02 -6.166002e-03 -1.823833e-02
1.306999e-02 -8.351395e-03 1.096160e-02
1.303296e-02 8.284097e-03 1.086706e-02
-1.337750e-02 1.186368e-02 -1.176252e-02
-1.754454e-02 -3.195600e-03 -1.209370e-02
1.315168e-04 1.873262e-05 1.793736e-02
-9.861085e-03 1.487730e-02 -1.204567e-02
-1.766690e-02 2.803512e-03 -1.199806e-02
-1.121488e-03 1.778224e-02 -1.215699e-02
8.257771e-03 1.674788e-02 -1.120599e-02
-1.033227e-02 -1.743206e-02 -1.325856e-03
6.535649e-03 -1.394918e-02 1.070612e-02
-3.577830e-03 1.677948e-02 -1.342958e-02
1.468220e-02 -3.315783e-03 1.144918e-02
1.452514e-02 3.516783e-03 1.147412e-02
1.282194e-02 -1.549441e-02 -6.851878e-03
-1.224014e-04 4.334616e-04 1.792724e-02
1.282521e-02 1.549531e-02 -6.849431e-03
1.546380e-02 2.519284e-03 1.063346e-02
1.554255e-02 -2.632188e-03 1.060565e-02
1.150617e-02 8.432649e-03 1.174036e-02
1.251591e-02 -4.372036e-03 1.312044e-02
-1.297194e-02 -3.560844e-03 1.266413e-02
5.504205e-03 1.254470e-02 1.260583e-02
-5.576998e-03 1.207103e-02 1.286235e-02
1.387480e-02 5.683358e-03 1.108709e-02
6.369447e-03 -1.346912e-02 1.109326e-02
-2.948281e-04 4.893229e-05 1.794094e-02
1.478325e-02 3.866297e-04 1.124344e-02
-1.152494e-03 -1.485191e-02 1.109467e-02
9.616769e-03 -7.350867e-03 1.392552e-02
9.614140e-03 7.350152e-03 1.392421e-02
1.298744e-02 1.540252e-02 -6.216789e-03
9.668726e-03 -1.087296e-02 1.183105e-02
-4.919315e-03 1.210366e-03 -2.227554e-02
1.784974e-02 6.904515e-03 -9.464640e-03
-7.729565e-03 1.888649e-02 -5.913251e-03
-1.709630e-02 -8.822989e-04 -1.346094e-02
-5.627536e-04 5.332919e-05 1.802545e-02
-1.588522e-04 3.007922e-04 1.802542e-02
-1.584834e-02 -6.131386e-03 -1.356798e-02
-7.628234e-03 1.570672e-02 -1.308341e-02
1.166088e-03 1.743999e-02 -1.308599e-02
1.080556e-02 -4.195247e-03 -1.919467e-02
-1.715576e-02 6.395781e-03 -1.044364e-02
1.057859e-02 9.293282e-03 1.221221e-02
1.057896e-02 -9.293214e-03 1.221241e-02
4.139353e-03 -1.065566e-02 -1.924093e-02
1.884372e-02 -8.124609e-04 -1.056581e-02
2.120575e-03 1.435243e-02 -1.677236e-02
-1.563737e-04 6.923946e-05 1.806274e-02
1.213233e-02 -5.075455e-03 1.302211e-02
1.234903e-02 7.126373e-03 1.218177e-02
-5.981761e-03 -1.223150e-02 1.268832e-02
2.849435e-03 -1.328335e-02 1.278836e-02
-1.680719e-02 -7.784477e-03 -1.125291e-02
1.789874e-02 8.769001e-03 -6.379296e-03
-4.944679e-03 1.342893e-02 1.180545e-02
1.267768e-02 3.810384e-03 1.343120e-02
-1.452750e-02 7.422279e-03 -1.497558e-02
-2.391436e-03 1.059116e-02 -1.948601e-02
-2.852508e-04 3.329176e-05 1.818094e-02
7.637100e-03 -8.425847e-03 -1.946357e-02
7.637610e-03 8.426632e-03 -1.946356e-02
1.045411e-02 1.478222e-02 -1.203301e-02
9.360070e-03 9.648737e-03 1.292079e-02
3.548363e-03 1.344130e-02 1.254957e-02
-1.034398e-03 1.390461e-02 1.237058e-02
-1.649105e-02 -9.665809e-03 -9.805708e-03
-1.449794e-03 1.278522e-02 1.354587e-02
1.365815e-02 2.785353e-03 -1.697562e-02
1.381063e-02 -2.581035e-03 -1.686987e-02
-2.727439e-05 -1.152481e-04 1.789893e-02
-1.511508e-02 -1.348443e-02 -1.079108e-03
-1.511435e-02 1.348392e-02 -1.078584e-03
-1.196114e-02 -6.594080e-03 1.278363e-02
-8.350562e-03 -1.128008e-02 1.236801e-02
-1.466460e-02 -7.527008e-03 -1.448364e-02
7.836793e-03 1.195929e-02 1.218298e-02
9.335406e-03 1.391165e-02 -1.427934e-02
9.323331e-03 -1.417014e-02 -1.415829e-02
-4.466086e-03 1.433451e-02 -1.638142e-02
-4.735641e-03 1.874858e-02 -8.570683e-03
2.349246e-04 2.146193e-04 1.818048e-02
2.022397e-02 8.534288e-04 1.057779e-03
2.031122e-02 -6.957194e-04 1.095358e-03
-1.250373e-02 6.025380e-03 1.236920e-02
-1.954441e-02 1.563691e-03 4.284133e-03
-1.946574e-02 -1.544362e-03 4.133193e-03
1.112898e-02 -3.413395e-03 1.447088e-02
6.514885e-03 1.337612e-02 1.165306e-02
1.832156e-02 -7.903836e-03 -6.953093e-03
1.552277e-02 -1.004874e-02 -1.137929e-02
1.551395e-02 1.003464e-02 -1.135738e-02
-3.997027e-04 4.618484e-04 1.809716e-02
1.083162e-02 -7.812121e-03 1.292728e-02
1.082399e-02 7.814853e-03 1.292406e-02
5.824498e-04 3.509884e-04 -2.293822e-02
-1.774037e-02 -6.685572e-03 -1.024460e-02
-3.924103e-03 -1.658903e-02 -1.378614e-02
3.251521e-03 -9.410714e-03 -2.006920e-02
4.554272e-03 -1.677423e-02 -1.358666e-02
-6.365008e-03 -1.647898e-02 -1.303115e-02
1.401136e-02 5.289755e-03 1.159941e-02
-4.524836e-03 2.741895e-03 -2.227054e-02
-4.566774e-04 -2.750406e-05 1.798655e-02
-4.491894e-03 -2.774428e-03 -2.227966e-02
-1.759630e-03 -1.099814e-02 -1.941220e-02
1.467628e-03 -1.163701e-02 -1.950954e-02
-3.790641e-04 -1.122575e-02 -1.930095e-02
-4.051673e-03 -1.041208e-02 -1.931047e-02
1.118859e-02 1.706766e-02 -4.491784e-03
-1.281071e-03 -2.418394e-03 -2.272393e-02
-1.781018e-02 -9.143309e-03 -7.280439e-03
-1.334149e-02 -1.524317e-02 -1.711039e-03
-1.334238e-02 1.524504e-02 -1.712560e-03
-1.172868e-04 2.223120e-04 1.804283e-02
1.188839e-02 8.794219e-03 -1.707857e-02
3.948160e-03 1.633834e-02 -1.398303e-02
-1.663626e-03 1.687224e-02 -1.396423e-02
-7.526086e-04 1.643963e-02 -1.436593e-02
4.729042e-03 1.587532e-02 -1.437894e-02
-8.583248e-03 1.606114e-02 -1.181669e-02
-3.281800e-03 -1.199010e-02 1.399078e-02
-1.143293e-02 -5.574205e-03 1.391957e-02
-2.104376e-03 -1.757095e-03 -2.262287e-02
8.170161e-03 -6.858200e-03 -1.981441e-02
-3.273157e-04 2.509285e-04 1.783321e-02
8.171362e-03 6.856575e-03 -1.981394e-02
-5.084076e-03 -9.858724e-03 -1.939396e-02
-1.358842e-02 4.958402e-03 1.213428e-02
-1.192510e-02 -5.435154e-03 1.330047e-02
-7.543048e-03 2.271305e-03 -2.142615e-02
-4.780634e-03 2.323050e-03 -2.220152e-02
-7.345775e-03 -2.916782e-03 -2.143442e-02
-8.120941e-03 -1.206803e-04 -2.137510e-02
-3.476149e-03 9.328226e-03 -2.038695e-02
1.600905e-03 9.829694e-03 -2.039280e-02
-3.677419e-04 1.163784e-04 1.805672e-02
-2.836617e-03 -1.804157e-02 -1.152842e-02
6.483530e-03 -1.708260e-02 -1.153966e-02
9.357082e-03 4.612089e-03 -1.979972e-02
1.616739e-02 -1.052487e-02 -8.779707e-03
1.609322e-02 1.051633e-02 -8.698918e-03
1.078974e-03 1.984801e-03 -2.279031e-02
9.083775e-04 -1.956743e-03 -2.264433e-02
-1.302802e-02 -1.572090e-02 -1.673108e-03
-1.891737e-02 6.106169e-03 -7.317369e-03
-1.653812e-02 1.071802e-02 -7.119939e-03
1.208843e-04 -1.336197e-05 1.798652e-02
-1.438066e-04 -3.972384e-05 1.790017e-02
-1.786837e-02 8.374340e-03 -6.984120e-03
-1.549842e-02 1.285424e-02 -7.008608e-03
-1.970613e-02 3.555451e-03 -7.109782e-03
-1.165034e-02 1.613953e-02 -7.357550e-03
-1.939409e-02 -4.118274e-03 -7.294371e-03
-2.111175e-03 2.002862e-02 -7.199474e-03
1.482768e-05 -3.632859e-04 -2.296846e-02
-3.681112e-03 -1.912531e-03 -2.227344e-02
9.666201e-03 9.071355e-03 1.332194e-02
9.736969e-03 1.012242e-03 -2.026725e-02
7.413368e-05 1.939151e-04 1.818858e-02
9.703962e-03 -1.517694e-03 -2.035936e-02
1.693222e-02 9.227262e-03 -9.150491e-03
-6.585343e-03 -1.115713e-02 1.333249e-02
-1.536235e-02 -1.369184e-02 -3.571026e-03
1.255390e-02 2.961450e-03 -1.828972e-02
1.822152e-02 -8.561203e-03 -6.090221e-03
1.923819e-02 -6.156754e-03 -5.878015e-03
1.695024e-02 -1.083597e-02 -6.142256e-03
1.533447e-02 -1.277016e-02 -7.220358e-03
1.932609e-02 -3.647979e-03 -7.926491e-03
-4.490280e-04 3.514860e-04 1.809368e-02
1.028807e-02 1.764518e-02 -4.087853e-03
-5.000960e-03 -1.684946e-02 -1.309953e-02
1.054397e-03 7.429605e-03 -2.145870e-02
-1.001507e-02 -7.903245e-03 1.344223e-02
-8.489516e-04 -2.502831e-03 -2.272982e-02
-1.879568e-03 -1.904776e-02 -9.732595e-03
7.814461e-03 -1.747578e-02 -9.712587e-03
1.743887e-02 7.583447e-03 -9.926721e-03
1.928319e-02 2.120103e-04 -9.204218e-03
2.088371e-03 -2.020751e-02 -5.803754e-03
-3.833027e-04 -7.389431e-05 1.796929e-02
1.135643e-02 -1.626282e-02 -7.264771e-03
1.948621e-02 3.871929e-03 -7.016805e-03
1.422182e-02 1.317368e-02 -9.202602e-03
-1.292449e-02 3.787016e-03 1.297941e-02
-1.108943e-02 7.426600e-03 1.299530e-02
-1.355232e-02 1.799522e-03 1.277433e-02
-1.169635e-02 6.055122e-03 1.311980e-02
-1.019848e-02 8.745815e-03 1.305436e-02
-1.303704e-02 -2.542031e-03 1.324175e-02
-7.451592e-03 1.107726e-02 1.323171e-02
-1.684875e-04 2.222831e-04 1.801349e-02
-9.111158e-04 1.336551e-02 1.316416e-02