# vtk DataFile Version 2.0
Electric current density generated by TTH
ASCII
DATASET UNSTRUCTURED_GRID
POINTS 2876 double
-1.783617e-05 2.217791e-05 -3.207467e-22
-1.468679e-05 2.129185e-05 2.530889e-07
-2.576537e-05 3.828722e-06 -7.067423e-07
-2.349256e-05 1.128797e-05 -7.302840e-07
-7.021809e-06 -2.718876e-05 9.218617e-07
-5.133528e-06 2.759422e-05 -9.349793e-07
-2.469287e-05 7.810248e-06 -3.834608e-07
-1.925216e-05 -1.854844e-05 -1.241360e-06
8.071775e-06 2.470421e-05 6.052269e-07
-1.364590e-05 -2.306170e-05 1.260722e-06
-5.099982e-07 -2.601238e-05 6.560353e-07
-1.846789e-05 2.165470e-05 -3.207467e-22
-6.671467e-06 -2.729677e-05 -9.019049e-07
7.041414e-06 2.509574e-05 -7.319769e-07
2.442079e-05 1.069882e-05 -1.214753e-06
2.442079e-05 -1.069882e-05 -1.214753e-06
-1.779603e-05 -2.176050e-05 8.906151e-07
5.024691e-06 2.608123e-05 1.169153e-06
1.903678e-05 1.780764e-05 7.357549e-07
1.903678e-05 -1.780764e-05 7.357549e-07
-2.749492e-05 5.527714e-06 -9.566090e-07
2.500870e-05 1.292117e-05 8.470648e-07
-1.908426e-05 2.111350e-05 -3.207467e-22
2.500870e-05 -1.292117e-05 8.470648e-07
1.630409e-05 -2.289727e-05 8.927147e-07
-2.804450e-05 -1.910150e-06 8.920542e-07
-2.493659e-05 -1.303705e-05 -8.593365e-07
1.892784e-05 -1.963307e-05 1.303993e-06
1.892784e-05 1.963307e-05 1.303993e-06
1.630889e-05 2.289620e-05 8.906571e-07
2.666892e-07 2.807419e-05 -9.272718e-07
1.398336e-06 2.807678e-05 -8.897932e-07
9.822759e-06 2.394153e-05 -3.092494e-07
-1.968478e-05 2.055476e-05 -3.207467e-22
8.626637e-06 2.441070e-05 -3.547759e-07
-1.389028e-05 2.438719e-05 -9.370566e-07
-2.028931e-05 1.938914e-05 -9.384389e-07
-1.531930e-05 2.351232e-05 -9.399077e-07
-1.909465e-05 2.056423e-05 -9.402026e-07
-1.223466e-05 -2.294526e-05 6.310907e-07
1.087577e-05 2.591250e-05 -8.996942e-07
-2.539641e-05 1.176323e-05 -1.006602e-06
-2.581472e-05 1.221726e-06 7.942528e-08
2.625651e-05 -1.006818e-05 -8.798599e-07
-2.026896e-05 1.997894e-05 -3.207467e-22
2.625651e-05 1.006818e-05 -8.798599e-07
-1.796411e-06 -2.681309e-05 1.279796e-06
-3.695941e-06 -2.659478e-05 1.274631e-06
-2.370879e-05 -1.234240e-05 -1.239787e-06
-2.478738e-05 -1.322199e-05 9.090998e-07
-6.206579e-06 -2.601550e-05 -1.245300e-06
-3.174988e-06 2.569011e-05 -3.379271e-07
-2.625375e-05 3.624793e-07 -9.564435e-07
1.011257e-05 2.402001e-05 7.276078e-07
-2.768199e-05 4.885340e-06 8.917475e-07
-2.083629e-05 1.938654e-05 -3.207467e-22
-2.694663e-05 -8.023174e-06 8.853307e-07
-2.677516e-05 -3.248771e-06 1.297227e-06
9.388806e-06 2.651058e-05 -8.761714e-07
-1.725655e-05 2.221802e-05 -8.668229e-07
-2.192049e-05 1.762915e-05 -8.695140e-07
-1.185198e-05 2.551402e-05 -8.667181e-07
-4.794789e-06 -2.774965e-05 8.334475e-07
-2.608709e-05 -1.053474e-05 8.650548e-07
1.269562e-06 -2.808232e-05 8.904117e-07
-2.685078e-05 -1.362809e-06 1.282369e-06
-2.138632e-05 1.877803e-05 -3.207467e-22
2.174893e-05 1.778847e-05 9.052046e-07
2.174893e-05 -1.778847e-05 9.052046e-07
2.108490e-05 -1.502694e-05 -3.602629e-07
2.108490e-05 1.502694e-05 -3.602629e-07
-2.816853e-05 -3.400589e-07 -8.215013e-07
1.003405e-05 -2.507560e-05 1.301816e-06
1.886720e-05 -2.085215e-05 -8.796539e-07
1.886720e-05 2.085215e-05 -8.796539e-07
-2.569852e-05 -3.298788e-06 -4.170119e-07
-2.277340e-05 -1.223157e-05 1.542576e-07
-2.191858e-05 1.815392e-05 -3.207467e-22
-1.493716e-05 2.205618e-05 1.205077e-06
2.603117e-05 -1.068020e-05 8.615779e-07
2.603117e-05 1.068020e-05 8.615779e-07
-5.679183e-06 2.520994e-05 -3.638448e-08
2.888520e-06 2.572153e-05 -3.290233e-07
-2.090591e-05 1.522371e-05 2.297819e-07
-5.931772e-06 2.590254e-05 1.175240e-06
1.176479e-05 2.560385e-05 -8.129378e-07
-2.212373e-05 1.731923e-05 9.057685e-07
2.944417e-06 -2.597693e-05 -8.365973e-07
-2.243263e-05 1.751473e-05 -3.207467e-22
-2.469480e-05 1.000900e-05 1.208394e-06
-2.512434e-05 -6.824967e-06 -6.853004e-07
1.264317e-05 2.411310e-05 -1.307346e-06
2.570531e-05 -9.323873e-06 -1.295202e-06
2.570531e-05 9.323873e-06 -1.295202e-06
1.583812e-06 2.591033e-05 5.421366e-07
6.828461e-06 -2.728638e-05 -8.719290e-07
6.751689e-06 2.728362e-05 -8.951383e-07
-1.686503e-05 -2.250532e-05 8.769872e-07
2.792689e-05 3.511941e-06 -8.501299e-07
-2.292806e-05 1.686099e-05 -3.207467e-22
2.798534e-05 2.566008e-06 -8.992534e-07
2.792689e-05 -3.511941e-06 -8.501299e-07
2.798534e-05 -2.566008e-06 -8.992534e-07
-2.108249e-05 -1.664766e-05 1.277522e-06
-1.729000e-06 2.582446e-05 -3.253835e-07
1.998222e-05 1.668617e-05 -6.823106e-07
1.998222e-05 -1.668617e-05 -6.823106e-07
1.221623e-05 -2.299593e-05 6.926475e-07
-8.415491e-06 2.684235e-05 8.687673e-07
1.353670e-05 -2.464347e-05 -8.843479e-07
-2.340443e-05 1.619325e-05 -3.207467e-22
2.273268e-05 -1.233251e-05 2.348480e-07
2.273268e-05 1.233251e-05 2.348480e-07
1.136796e-05 2.412575e-05 -1.218062e-06
1.715287e-05 -1.989775e-05 9.696140e-07
1.715268e-05 1.989795e-05 9.696357e-07
5.302640e-06 2.761150e-05 8.849274e-07
-2.521134e-05 -1.055890e-05 1.296781e-06
2.741876e-06 2.800689e-05 8.571801e-07
5.745004e-06 -2.535888e-05 6.277972e-07
8.267916e-06 -2.563902e-05 1.292338e-06
-2.386137e-05 1.551206e-05 -3.207467e-22
1.057013e-05 -2.363117e-05 3.449189e-07
1.764480e-05 -2.191204e-05 8.658661e-07
1.764480e-05 2.191204e-05 8.658661e-07
9.861624e-06 -2.632481e-05 8.900490e-07
-7.847211e-06 2.703280e-05 -8.479097e-07
-2.706767e-05 -1.412519e-06 -1.308731e-06
-2.304310e-05 1.386519e-05 1.283911e-06
8.446292e-06 -2.685433e-05 -8.448931e-07
-2.694019e-05 1.951689e-06 1.302047e-06
-5.820136e-06 2.753663e-05 8.523041e-07
-2.429848e-05 1.481798e-05 -3.207467e-22
-1.565089e-05 2.327529e-05 9.538795e-07
-5.222829e-06 -2.530959e-05 -6.570198e-08
1.218851e-05 -2.533649e-05 -8.852286e-07
4.394740e-06 2.779859e-05 8.536389e-07
-2.590271e-05 3.112045e-06 -7.665218e-07
-2.686979e-05 -5.596553e-07 1.280320e-06
-1.263372e-05 2.344376e-05 1.202073e-06
-2.330688e-05 -1.116468e-05 -6.854544e-08
5.303416e-06 2.761560e-05 -8.803512e-07
-1.760908e-05 -2.091730e-05 1.295432e-06
-2.471542e-05 1.411159e-05 -3.207467e-22
2.418436e-05 9.126014e-06 -1.420743e-07
2.418436e-05 -9.126014e-06 -1.420743e-07
-2.744163e-05 -6.301588e-06 -8.394379e-07
2.553104e-05 6.540442e-06 1.040411e-06
2.553104e-05 -6.540442e-06 1.040411e-06
1.640530e-05 2.103769e-05 -1.221256e-06
-2.620483e-05 1.019934e-05 -8.808979e-07
-3.144144e-06 2.800654e-05 8.065173e-07
1.286194e-05 2.502690e-05 8.598103e-07
-1.973310e-05 -1.797214e-05 1.226075e-06
-2.511182e-05 1.339348e-05 -3.207467e-22
-2.614107e-05 1.025266e-05 9.229758e-07
7.823984e-06 2.570251e-05 -1.278428e-06
-3.586618e-06 2.790917e-05 -8.595968e-07
-2.638393e-05 -4.840268e-06 1.268189e-06
1.642039e-05 -2.103334e-05 -1.223504e-06
8.895226e-06 -2.427793e-05 -1.975941e-07
-2.402196e-05 -9.544793e-06 1.403589e-07
-2.381330e-05 -1.223783e-05 1.254129e-06
-2.095306e-05 -1.884553e-05 8.080333e-07
-2.705461e-05 7.793205e-06 8.408599e-07
-2.548736e-05 1.266425e-05 -3.207467e-22
-2.145746e-06 -2.757258e-05 -1.208180e-06
-5.394138e-06 2.653340e-05 1.307421e-06
4.237723e-06 2.584281e-05 8.876598e-07
-2.627306e-05 -8.999426e-06 -1.153010e-06
-2.739130e-05 -6.510135e-06 8.413073e-07
-2.575068e-05 2.462389e-06 2.642692e-07
-2.602102e-05 1.192252e-06 -7.067965e-07
-2.643565e-05 -9.718109e-06 8.279963e-07
-2.738019e-05 6.554896e-06 -8.418036e-07
2.784426e-05 -4.362260e-06 8.046930e-07
-2.584173e-05 1.192449e-05 -3.207467e-22
2.784426e-05 4.362260e-06 8.046930e-07
2.376289e-05 -1.525186e-05 -7.323160e-07
2.376289e-05 1.525186e-05 -7.323160e-07
1.038027e-05 -2.488496e-05 -1.296039e-06
-7.952762e-06 -2.473989e-05 5.999189e-07
-1.841172e-05 1.956166e-05 1.277664e-06
2.053914e-05 -1.921161e-05 8.765288e-07
2.053914e-05 1.921161e-05 8.765288e-07
2.812543e-05 -1.930728e-06 7.946696e-07
2.812543e-05 1.930728e-06 7.946696e-07
-2.617464e-05 1.117483e-05 -3.207467e-22
2.475421e-05 7.420899e-06 -6.063048e-08
2.475421e-05 -7.420899e-06 -6.063048e-08
-2.386967e-05 1.504349e-05 7.635409e-07
3.278259e-06 -2.563365e-05 -5.658793e-08
-2.158503e-05 -1.807278e-05 8.439694e-07
9.105901e-06 2.539350e-05 -1.297941e-06
8.021352e-06 2.705576e-05 7.563591e-07
-1.712184e-05 -1.957171e-05 6.323897e-07
-2.511726e-05 6.667199e-06 6.006518e-07
1.566847e-05 2.340180e-05 -8.310327e-07
-2.648581e-05 1.041589e-05 -3.207467e-22
5.133327e-06 2.664150e-05 -1.309407e-06
2.654430e-05 -4.646686e-06 1.293748e-06
2.654430e-05 4.646686e-06 1.293748e-06
1.567565e-05 -2.339740e-05 -8.306138e-07
1.423161e-05 2.307883e-05 -1.309033e-06
1.144720e-05 -2.408488e-05 -1.216853e-06
-2.813598e-05 -2.059289e-06 -7.682975e-07
8.022934e-06 -2.706110e-05 7.484313e-07
2.710866e-05 -8.037533e-07 1.309200e-06
2.710866e-05 8.037533e-07 1.309200e-06
-2.677497e-05 9.648301e-06 -3.207467e-22
1.073719e-05 -2.492650e-05 1.309509e-06
2.619312e-05 -2.044720e-06 9.716627e-07
2.619312e-05 2.044720e-06 9.716627e-07
-1.349544e-05 2.211165e-05 4.027404e-07
-7.172425e-06 2.491682e-05 -4.703502e-07
-1.458587e-05 -2.258951e-05 -1.283179e-06
2.789070e-05 9.654498e-07 -1.068831e-06
2.789633e-05 -9.095616e-07 -1.066166e-06
5.347926e-06 -2.631166e-05 1.274461e-06
2.247601e-05 -1.494725e-05 1.299942e-06
-2.704189e-05 8.872694e-06 -3.207467e-22
2.247601e-05 1.494725e-05 1.299942e-06
-7.721583e-06 -2.611414e-05 -1.307037e-06
-1.947502e-05 -2.032136e-05 -8.503518e-07
-1.349721e-05 2.470663e-05 8.428487e-07
2.797472e-05 -3.485185e-06 7.955171e-07
2.797472e-05 3.485185e-06 7.955171e-07
2.593468e-05 1.094264e-05 -8.479587e-07
2.593468e-05 -1.094264e-05 -8.479587e-07
6.704430e-06 2.733230e-05 8.551164e-07
-2.258429e-05 -1.683452e-05 8.243647e-07
-2.728636e-05 8.089716e-06 -3.207467e-22
-2.359970e-05 1.086330e-05 5.866043e-07
-2.559174e-05 1.168263e-05 8.669882e-07
2.472578e-05 8.666064e-06 9.010436e-07
2.472578e-05 -8.666064e-06 9.010436e-07
-1.473492e-05 -2.407036e-05 -7.527451e-07
-2.815717e-05 7.949142e-07 8.242142e-07
-2.346773e-05 -1.383794e-05 -1.306240e-06
1.341956e-05 -2.327416e-05 1.278169e-06
-9.753288e-06 2.643168e-05 8.175532e-07
-9.186512e-06 -2.533989e-05 1.294637e-06
-2.750815e-05 7.300019e-06 -3.207467e-22
-1.849672e-05 -1.981075e-05 -1.308691e-06
[...]
POINT_DATA 2876
VECTORS 10.000GHz_fone_imag double
1.917805e+10 1.491203e+10 8.285560e+07
2.522108e+10 1.843309e+10 8.770344e+07
5.608065e+09 2.906815e+10 7.835461e+08
1.268324e+10 2.779503e+10 -3.113158e+08
-2.172206e+10 6.881118e+09 -7.152382e+08
2.404363e+10 3.474695e+09 -9.545122e+08
8.408267e+09 2.933088e+10 -4.899712e+08
-2.083320e+10 2.147148e+10 -8.129848e+07
2.885438e+10 -7.502394e+09 1.028292e+09
-2.317618e+10 1.308130e+10 -1.151646e+09
-3.029975e+10 -6.939655e+08 6.284907e+08
1.605303e+10 1.331779e+10 -1.931326e+08
-2.280594e+10 6.121866e+09 -5.175572e+08
3.035785e+10 -9.095593e+09 3.403231e+08
1.151418e+10 -2.585153e+10 1.348465e+09
-1.152713e+10 -2.588390e+10 -1.340828e+09
-1.769406e+10 1.439683e+10 1.511134e+09
2.826801e+10 -5.043274e+09 3.346426e+08
2.066242e+10 -2.328030e+10 -7.098079e+08
-2.067356e+10 -2.330943e+10 7.054756e+08
4.865123e+09 2.451084e+10 3.110721e+08
1.047696e+10 -1.975638e+10 9.803115e+08
1.772782e+10 1.570595e+10 1.398919e+09
-1.046816e+10 -1.973986e+10 -9.808163e+08
-1.880347e+10 -1.292637e+10 -3.901586e+08
-2.042439e+09 2.760492e+10 1.328111e+09
-1.038337e+10 2.041075e+10 3.333644e+08
-1.918286e+10 -1.878726e+10 4.464614e+08
1.919080e+10 -1.879971e+10 -4.463412e+08
1.804671e+10 -1.351378e+10 1.570899e+09
2.244811e+10 -3.753905e+08 -1.987602e+08
2.237567e+10 -1.025082e+09 2.297241e+06
3.185620e+10 -1.252092e+10 -1.835610e+08
1.574596e+10 1.500808e+10 1.346833e+08
3.542299e+10 -1.361723e+10 1.560083e+09
2.060936e+10 1.147229e+10 -5.011786e+08
1.901595e+10 1.975417e+10 2.398727e+09
1.915457e+10 1.288879e+10 -7.800386e+08
1.631763e+10 1.638841e+10 1.917516e+09
-2.653673e+10 1.305494e+10 7.261102e+08
2.157219e+10 -9.967960e+09 -7.244680e+08
1.093541e+10 2.218003e+10 -5.987279e+08
1.903334e+09 3.333112e+10 -2.795243e+08
-7.511841e+09 -2.142216e+10 -4.857902e+08
1.781130e+10 1.773088e+10 -1.831104e+09
7.511553e+09 -2.142871e+10 4.867381e+08
-2.693295e+10 1.741722e+09 -1.798622e+09
-2.713859e+10 2.849267e+09 -1.379581e+09
-1.377985e+10 2.696003e+10 3.249723e+08
-1.040576e+10 1.954808e+10 -6.174746e+08
-2.763669e+10 8.955862e+09 3.669216e+08
3.064671e+10 4.859145e+09 2.516615e+08
8.873253e+08 2.898546e+10 -4.793053e+08
2.810473e+10 -1.147824e+10 -4.012971e+08
4.507635e+09 2.406534e+10 7.094768e+07
1.783085e+10 1.812297e+10 1.690377e+09
-5.526722e+09 2.193528e+10 -1.855931e+09
-3.948053e+09 2.951866e+10 1.968041e+09
2.137197e+10 -9.391412e+09 -1.335597e+09
1.962364e+10 1.551390e+10 -1.696941e+08
1.395496e+10 1.786844e+10 -5.799175e+08
2.017713e+10 9.611542e+09 -1.007744e+09
-2.177575e+10 3.663210e+09 4.078581e+08
-9.387706e+09 2.116965e+10 1.274783e+09
-2.376668e+10 -1.647395e+09 -1.514319e+09
-2.127446e+09 2.875933e+10 -1.002024e+09
1.460946e+10 1.905962e+10 -1.559210e+09
1.735010e+10 -2.029142e+10 -4.769694e+08
-1.735238e+10 -2.029313e+10 4.780430e+08
-1.869210e+10 -2.673247e+10 -1.976738e+09
1.869023e+10 -2.673163e+10 1.978164e+09
-7.939478e+08 2.311986e+10 7.038431e+08
-2.611051e+10 -9.064687e+09 6.251504e+08
-1.724372e+10 -1.476515e+10 4.215991e+08
1.723605e+10 -1.476285e+10 -4.266021e+08
-5.400194e+09 3.201105e+10 -2.353588e+08
-1.520537e+10 2.792193e+10 -2.430473e+08
1.391607e+10 1.695914e+10 1.042646e+09
2.494531e+10 1.406183e+10 -1.176169e+09
-9.254938e+09 -2.057452e+10 -4.619223e+08
9.255304e+09 -2.057707e+10 4.613603e+08
2.933501e+10 6.073467e+09 -3.152105e+08
3.369203e+10 -3.886040e+09 -1.036144e+09
1.992560e+10 2.568520e+10 -5.579034e+08
2.784293e+10 5.811667e+09 7.433109e+08
2.086734e+10 -9.463729e+09 -4.236597e+08
1.498335e+10 1.946425e+10 -1.746505e+08
-2.938258e+10 -2.789900e+09 -2.922091e+08
1.464194e+10 1.771671e+10 -1.353335e+08
1.036386e+10 2.678827e+10 -5.405630e+08
-8.542066e+09 3.304011e+10 1.547158e+08
2.153528e+10 -1.234030e+10 -1.237551e+09
-9.067293e+09 -2.497192e+10 -5.946337e+07
9.062936e+09 -2.497128e+10 5.904634e+07
3.065134e+10 -8.378722e+08 8.763594e+08
-2.359716e+10 -5.338781e+09 -4.016469e+08
2.305828e+10 -5.646690e+09 -1.949598e+08
-1.788421e+10 1.341831e+10 -7.277820e+08
2.591936e+09 -2.249124e+10 -3.514977e+08
1.232378e+10 1.763940e+10 -1.813896e+09
3.533082e+09 -2.341149e+10 -1.828388e+08
-2.645582e+09 -2.218902e+10 2.651268e+08
-2.801325e+09 -2.289646e+10 1.235105e+09
-1.537563e+10 2.213348e+10 7.466503e+08
3.302653e+10 2.509608e+09 -9.798764e+07
1.880354e+10 -2.281867e+10 -1.224010e+07
-1.880114e+10 -2.281832e+10 1.179469e+07
-2.896062e+10 -1.370851e+10 -3.192022e+08
2.123181e+10 8.102092e+09 1.693160e+09
-2.321877e+10 -1.040680e+10 2.049462e+09
1.262582e+10 1.741417e+10 -4.810812e+08
-1.542228e+10 -2.612295e+10 5.334305e+08
1.542158e+10 -2.612356e+10 -5.320760e+08
2.533716e+10 -1.125446e+10 4.697415e+08
-2.264411e+10 -2.200153e+10 1.978061e+09
2.262092e+10 -2.203210e+10 -2.011397e+09
2.290065e+10 -4.669788e+09 1.432690e+08
-8.907623e+09 2.338773e+10 -5.625940e+08
2.273708e+10 -2.275462e+09 -2.336332e+08
-3.231057e+10 -7.599854e+09 9.520036e+08
-2.980318e+10 -7.797149e+09 -6.809036e+08
1.208679e+10 1.935320e+10 -1.104963e+09
-2.719339e+10 -1.466548e+10 -3.092295e+08
-1.682031e+10 -1.383250e+10 1.261273e+08
1.699946e+10 -1.395075e+10 -2.913238e+08
-2.092841e+10 -1.095110e+10 -3.574174e+08
2.158709e+10 6.431353e+09 1.143707e+09
-2.132999e+09 2.784243e+10 -7.930802e+07
1.231125e+10 2.384420e+10 8.644769e+06
-2.453621e+10 -5.826527e+09 1.907454e+09
2.263603e+09 2.741852e+10 -4.871131e+08
2.206981e+10 4.806601e+09 -3.512443e+08
1.166831e+10 1.876898e+10 2.879837e+08
1.992292e+10 1.396014e+10 -4.613900e+08
-3.356671e+10 7.175319e+09 -2.973350e+08
-1.977011e+10 -1.055384e+10 -5.629712e+07
2.329172e+10 -4.023868e+09 2.712645e+08
1.749349e+09 2.856339e+10 1.085451e+09
-1.426291e+09 2.665500e+10 1.123780e+09
2.335680e+10 1.172105e+10 -7.975399e+07
-1.363613e+10 2.888679e+10 -1.553615e+08
2.290334e+10 -3.913125e+09 -2.137933e+07
-1.946521e+10 1.677814e+10 -7.498456e+08
1.153565e+10 1.920557e+10 -3.852603e+08
1.282299e+10 -2.880154e+10 -8.933334e+08
-1.282266e+10 -2.880259e+10 8.922161e+08
-5.824560e+09 2.105647e+10 -1.623011e+08
7.428578e+09 -2.802723e+10 -7.943578e+08
-7.432793e+09 -2.803026e+10 7.921284e+08
2.232461e+10 -1.709755e+10 -1.991379e+08
8.016423e+09 2.086748e+10 -3.226151e+08
2.369321e+10 2.876568e+09 -2.388287e+08
2.087344e+10 -1.111520e+10 6.858049e+08
-1.865111e+10 2.051469e+10 -8.182049e+07
1.065192e+10 2.016496e+10 1.938352e+09
8.933842e+09 2.138416e+10 3.002874e+08
2.764867e+10 -8.391399e+09 2.805668e+08
2.260785e+10 2.845251e+09 -6.704636e+07
-3.773073e+09 2.929668e+10 -2.256417e+09
-2.301620e+10 -1.725540e+10 -1.003911e+08
-3.204868e+10 -1.251751e+10 2.733436e+08
-1.175763e+10 3.148950e+10 -1.469696e+09
-1.333593e+10 2.513122e+10 -1.315170e+09
-1.479545e+10 1.641676e+10 1.078621e+08
5.859321e+09 2.208733e+10 -6.023952e+08
1.017589e+10 2.001954e+10 6.781837e+08
-2.698883e+10 9.214555e+08 6.032142e+08
2.523723e+10 4.602872e+09 -5.067696e+08
3.098720e+10 -4.779992e+09 -7.979663e+08
-7.050170e+09 2.178678e+10 -4.563861e+08
-7.427323e+09 2.501069e+10 1.616481e+09
3.049912e+09 3.084572e+10 -2.680950e+09
3.153305e+09 3.206150e+10 1.207752e+09
-1.019117e+10 2.602577e+10 -7.759446e+07
5.955260e+09 2.298756e+10 -4.399533e+08
-2.787237e+09 -2.257190e+10 6.931124e+08
9.548091e+09 2.080222e+10 1.874332e+08
2.966829e+09 -2.260712e+10 -9.145657e+08
-1.281952e+10 -1.913642e+10 -3.923756e+08
1.281901e+10 -1.913371e+10 3.942772e+08
-2.543885e+10 -9.479205e+09 -1.643992e+09
-2.983247e+10 1.062125e+10 6.963838e+08
1.939503e+10 1.824368e+10 1.357988e+09
-1.559198e+10 -1.690500e+10 -2.148420e+08
1.559422e+10 -1.690483e+10 2.145159e+08
-8.937341e+08 -2.278629e+10 -6.834824e+08
2.108311e+09 -2.777370e+10 8.258327e+07
8.525664e+09 2.002391e+10 -2.008386e+08
8.394462e+09 -3.066310e+10 -7.714614e+08
-8.392065e+09 -3.065783e+10 7.615410e+08
1.258522e+10 2.089132e+10 -4.926190e+08
-3.087483e+10 -3.679841e+09 8.319045e+08
-1.476717e+10 1.711372e+10 -1.104747e+08
2.619659e+10 -9.906280e+09 -6.926614e+08
2.236068e+10 -5.076276e+09 1.009161e+09
-2.399138e+10 1.863539e+10 9.299435e+08
7.642397e+09 2.878589e+10 -1.232451e+08
1.828189e+10 -1.419309e+10 1.133948e+09
7.490229e+09 2.010530e+10 -4.336632e+07
2.533780e+10 -4.719339e+09 -2.242593e+08
-4.114042e+09 -2.624476e+10 -9.726313e+08
4.345419e+09 -2.598147e+10 9.273455e+08
-1.842894e+10 -1.208352e+10 -5.919761e+08
3.003912e+10 -1.947172e+10 2.597564e+08
-2.511391e+10 -1.141163e+10 1.069977e+09
-1.638326e+09 2.274305e+10 -9.030089e+08
-2.134827e+10 -7.784692e+09 -1.060926e+09
-2.953985e+08 -2.527045e+10 -4.445737e+08
1.221326e+09 -2.607783e+10 2.112279e+08
8.409424e+09 2.025263e+10 3.018471e+08
-2.441389e+10 -9.931613e+09 -3.730869e+08
-2.928708e+09 -2.948741e+10 -2.744376e+08
2.048298e+09 -2.862419e+10 -3.143120e+08
2.472403e+10 1.710761e+10 -9.901187e+08
2.931879e+10 9.288309e+09 8.018320e+08
-2.315099e+10 1.468980e+10 -3.392397e+07
1.220068e+09 -2.375050e+10 -2.117643e+08
-3.997739e+08 -2.469788e+10 3.068605e+08
-2.718454e+10 -5.721568e+09 -2.270198e+08
-1.608139e+10 -2.238647e+10 2.484985e+08
7.326975e+09 2.255635e+10 6.271795e+08
1.608274e+10 -2.238515e+10 -2.483726e+08
-2.598338e+10 7.468777e+09 1.703223e+09
-1.739253e+10 1.604648e+10 1.763758e+09
2.078338e+10 1.130554e+10 -5.096506e+08
-2.961600e+09 -2.291816e+10 -6.192596e+08
2.653389e+09 -2.246120e+10 -3.978638e+08
9.396311e+09 -2.220436e+10 -5.975281e+06
-9.391599e+09 -2.218089e+10 2.199467e+06
2.165125e+10 -5.580368e+09 -1.527501e+09
-1.333494e+10 1.844162e+10 -9.409867e+08
5.169566e+09 2.175480e+10 -5.339207e+08
1.130703e+10 2.741059e+10 -2.493813e+07
1.095051e+10 2.139533e+10 4.918685e+08
9.891576e+09 -2.858053e+10 7.924159e+08
-9.892882e+09 -2.857919e+10 -7.941119e+08
-2.091901e+10 1.203747e+10 5.494737e+08
1.766068e+09 2.214363e+10 -1.463682e+08
-1.266436e+10 2.087974e+10 -2.500695e+08
-2.434751e+10 -1.466920e+10 6.168216e+08
2.243203e+10 8.242676e+09 -3.525529e+07
-2.901067e+10 9.907640e+09 3.632344e+08
6.262945e+09 2.061478e+10 6.705787e+07
-1.944243e+10 1.795784e+10 1.243180e+09
-2.248277e+10 -4.047061e+09 -1.601623e+09
1.582857e+10 2.066488e+10 -1.555989e+09
-1.627937e+10 2.468249e+10 -2.476140e+08
-2.463511e+10 1.454547e+10 1.739154e+09
4.511404e+09 -2.504703e+10 2.049087e+08
-2.162466e+09 -2.573071e+10 3.152471e+08
-2.246834e+10 -2.154682e+09 3.851462e+08
-2.169242e+10 -9.314634e+09 8.711729e+08
2.883397e+09 2.537185e+10 5.749390e+08
5.454005e+09 2.260243e+10 -4.634822e+08
3.150601e+09 2.377680e+10 -1.077876e+09
2.716616e+10 -3.788846e+09 -1.275928e+08
-8.318796e+09 2.993824e+10 5.202801e+08
1.706119e+10 1.293727e+10 -8.524529e+08
-2.948930e+10 5.968885e+09 -5.172149e+08
3.138373e+10 -1.757319e+08 -1.744193e+07
-2.904243e+10 1.113810e+10 2.614758e+09
-2.258700e+10 1.856509e+10 2.584855e+08
2.713972e+10 9.090037e+09 6.524593e+08
-3.213899e+10 -5.920159e+09 -8.432875e+08
3.086475e+09 2.161164e+10 1.324201e+09
-2.152628e+10 1.061005e+10 1.440979e+09
3.128402e+10 4.026527e+09 6.070506e+08
-1.913826e+10 6.812940e+09 -4.316029e+08
-1.379029e+10 -2.478461e+10 2.500512e+08
1.376840e+10 -2.477449e+10 -2.493077e+08
-8.258734e+09 -2.027795e+10 4.708979e+08
8.258959e+09 -2.028179e+10 -4.689268e+08
-1.323262e+09 2.988640e+10 4.038498e+08
1.225974e+10 -2.896563e+10 -6.621753e+08
-1.226091e+10 -2.896026e+10 6.623439e+08
3.501775e+09 2.042216e+10 -4.243201e+08
-2.440128e+10 1.797818e+10 -3.677418e+08
3.033221e+10 -4.800398e+09 -2.490670e+08
-3.794429e+09 -2.799792e+10 -8.321950e+07
3.584773e+09 -2.843044e+10 1.763363e+08
-5.140846e+09 -2.922538e+10 8.442457e+08
5.183612e+09 -2.930090e+10 -9.727181e+08
-1.634899e+09 3.080518e+10 2.474876e+08
2.707102e+10 -1.105497e+10 5.653087e+08
2.983056e+10 1.003732e+10 -4.005270e+08
-1.419390e+10 1.755619e+10 -1.923686e+09
4.411376e+09 2.207734e+10 9.154443e+08
3.045025e+10 4.569476e+09 -6.897853e+08
-1.960502e+10 1.176226e+10 4.099909e+08
-1.571690e+10 1.585240e+10 2.809000e+08
8.758206e+09 2.952878e+10 -3.975022e+08
5.751487e+09 2.293784e+10 7.569444e+08
-2.255158e+10 4.282952e+09 -7.229486e+08
-3.383603e+10 -8.668596e+07 -1.894041e+09
-2.842345e+10 -9.456724e+09 -1.030743e+09
1.677867e+10 1.600470e+10 -9.103049e+08
2.683661e+10 1.466666e+10 9.244173e+07
3.008190e+09 2.433686e+10 4.371494e+08
-1.421516e+10 2.324085e+10 3.849437e+08
-1.176424e+10 -1.981912e+10 9.407256e+08
1.175614e+10 -1.980460e+10 -9.510430e+08
3.131104e+10 -4.885259e+09 -6.637879e+08
1.899190e+10 1.648827e+10 -2.062075e+09
-2.124157e+10 1.640778e+10 5.585978e+08
2.432232e+10 1.261918e+10 -5.232099e+08
-6.547437e+09 -2.595072e+10 6.452538e+08
6.545538e+09 -2.594364e+10 -6.468289e+08
-1.151098e+10 2.086516e+10 1.390016e+09
8.747089e+08 2.233925e+10 -2.403365e+08
2.890083e+10 5.678631e+09 -7.685036e+08
-2.266238e+10 -1.513673e+10 -1.166586e+09
-2.768587e+10 1.050624e+10 -2.799390e+08
2.460643e+10 -1.439201e+10 -2.008478e+09
-2.476521e+10 1.841434e+10 5.193352e+08
6.554209e+09 -2.589054e+10 2.287973e+08
-6.554460e+09 -2.589205e+10 -2.288624e+08
9.551202e+09 -2.863243e+10 7.545358e+08
-9.553713e+09 -2.862883e+10 -7.489638e+08
2.160146e+10 -3.306850e+09 1.765190e+08
6.281134e+08 2.109577e+10 9.548181e+08
-2.052945e+10 9.916517e+09 4.130782e+08
-3.212179e+10 2.325207e+09 -4.604097e+08
-2.600027e+10 3.011939e+09 8.956238e+08
2.482998e+10 -1.549776e+10 -5.344127e+06
1.111705e+10 2.406737e+10 3.286847e+08
-1.225030e+10 2.045376e+10 1.641883e+09
-2.228844e+10 -9.307347e+09 -7.959080e+08
-1.171851e+10 2.819277e+10 -7.616883e+08
-2.159703e+10 2.197733e+10 2.923245e+08
2.985522e+10 -8.278018e+09 8.277782e+06
1.591266e+09 2.132137e+10 2.391658e+08
2.730476e+10 -9.266728e+09 2.601231e+08
1.168449e+10 -2.289539e+10 -8.067175e+08
-1.168405e+10 -2.289781e+10 8.067477e+08
-3.159212e+10 3.497706e+09 8.881741e+08
3.928784e+09 2.618504e+10 6.315374e+08
-7.780560e+09 2.488785e+10 -1.624308e+09
-2.708595e+10 1.438998e+10 1.976091e+09
2.755642e+10 2.686663e+09 -5.005671e+07
-2.643302e+10 1.287180e+10 -7.382502e+07
5.759399e+09 -2.283052e+10 1.015534e+09
-3.351137e+08 2.329341e+10 4.000332e+07
-5.758081e+09 -2.283629e+10 -1.018601e+09
-2.807622e+10 -2.938365e+07 1.635440e+09
-2.107637e+10 -9.924369e+09 6.347009e+08
3.137217e+10 5.224627e+09 1.273649e+08
-2.872703e+10 1.775972e+10 -1.096711e+08
-1.443662e+10 -2.147865e+10 3.082977e+08
1.443603e+10 -2.147618e+10 -3.078278e+08
-3.110021e+10 -1.768709e+10 -7.232719e+08
2.572006e+10 1.118903e+10 3.897452e+08
2.058200e+10 2.207474e+10 1.790708e+09
-1.634153e+09 2.194148e+10 2.134297e+09
2.260237e+10 1.878440e+10 -6.807065e+08
-3.053641e+10 1.866221e+09 6.231296e+08
2.140710e+10 -2.200960e+10 7.211927e+08
-2.140772e+10 -2.201092e+10 -7.251974e+08
-2.743415e+10 1.350238e+08 -2.378450e+08
2.148098e+10 -6.566046e+09 1.615697e+08
2.269522e+10 2.161392e+10 2.343406e+09
-1.852089e+10 2.158883e+10 8.480901e+07
2.182265e+10 1.081756e+10 -9.423102e+08
9.514396e+09 2.329500e+10 1.301566e+08
-1.527547e+09 2.216822e+10 5.382640e+08
1.941995e+10 -1.400955e+10 -1.423769e+09
-7.899533e+09 2.821776e+10 -1.176414e+09
2.058952e+10 8.370030e+09 -1.061185e+09
2.012766e+10 -9.603432e+09 -1.183283e+09
-2.879867e+10 6.771076e+09 -2.172742e+08
3.014382e+10 -1.802521e+10 -1.415345e+08
-2.672605e+10 -2.387547e+09 -4.077504e+08
-1.142908e+10 2.803692e+10 -1.172746e+09
-2.842418e+09 2.578769e+10 3.245013e+08
-1.942240e+10 -1.342657e+10 8.443965e+08
-1.560382e+09 2.453885e+10 1.240348e+09
-9.093689e+09 2.641646e+10 2.228378e+07
1.199076e+10 -2.639471e+10 4.752238e+08
-1.198901e+10 -2.639568e+10 -4.734308e+08
2.521889e+10 1.627604e+10 -2.919649e+08
-7.667108e+09 -2.118553e+10 -1.414747e+08
7.667716e+09 -2.118541e+10 1.405663e+08
2.715567e+10 -1.396617e+10 1.416631e+09
1.888994e+10 -2.144488e+10 7.597736e+08
-1.889084e+10 -2.144746e+10 -7.597240e+08
2.902743e+10 -2.775088e+09 -4.630912e+08
-3.658584e+09 2.165580e+10 3.045409e+08
-3.320180e+10 1.445028e+10 9.628303e+08
7.557760e+09 2.858518e+10 -1.685389e+08
-2.555438e+10 -1.245745e+10 8.566768e+07
8.820891e+09 2.529659e+10 3.441919e+07
4.765586e+09 -2.188769e+10 -1.054971e+08
4.378129e+09 -2.269092e+10 -5.422465e+08
-4.762084e+09 -2.187076e+10 9.461521e+07
-4.386069e+09 -2.265286e+10 5.172019e+08
2.585951e+10 7.106767e+09 1.405941e+08
-2.236178e+10 2.887374e+10 7.188971e+07
-3.603778e+09 2.138766e+10 4.619517e+08
-1.329855e+10 -1.942537e+10 1.821136e+08
1.329879e+10 -1.942650e+10 -1.815452e+08
-1.605253e+10 1.564915e+10 -3.822049e+08
-2.524376e+10 1.207928e+10 -1.375208e+09
1.888153e+09 2.322770e+10 -3.727190e+08
-1.095586e+10 -2.391342e+10 -2.889578e+08
1.094881e+10 -2.391176e+10 2.897314e+08
-2.210371e+09 2.351713e+10 4.410468e+08
4.788584e+09 -2.753580e+10 -1.863255e+08
-4.785975e+09 -2.755123e+10 1.863665e+08
-1.697773e+09 2.493824e+10 -2.912126e+08
-5.976028e+09 -2.113468e+10 5.020499e+08
5.974491e+09 -2.113524e+10 -5.043441e+08
2.269078e+10 1.704127e+09 -5.086108e+08
2.040179e+10 -8.148532e+09 4.366165e+08
-2.936049e+10 -1.647567e+09 1.149575e+09
1.966841e+10 -1.836291e+10 5.433075e+08
-1.967434e+10 -1.837038e+10 -5.425374e+08
2.261546e+10 4.775739e+09 -1.038819e+09
1.624048e+10 2.298665e+10 3.341870e+08
1.536830e+10 2.584773e+10 2.421625e+08
-6.611237e+09 3.100061e+10 -9.009510e+08
2.921068e+10 -7.301403e+09 -7.776882e+08
2.350386e+10 -1.408128e+08 3.466581e+08
-1.538007e+09 3.026803e+10 7.623745e+08
2.227344e+10 -8.558426e+09 -3.471650e+08
2.066339e+10 -9.198702e+09 1.727816e+08
-8.041080e+09 3.982025e+10 9.241325e+08
-2.267134e+10 -1.599981e+09 7.340185e+08
1.050835e+10 2.284886e+10 -1.067109e+09
-1.372866e+10 -1.850667e+10 -4.063603e+07
1.372770e+10 -1.850490e+10 4.112107e+07
-7.717571e+09 2.489383e+10 -5.247171e+07
2.507827e+10 -1.148839e+10 2.217018e+08
-2.508774e+10 6.242557e+09 -6.966219e+08
2.567235e+10 2.533566e+10 1.957848e+09
1.495089e+10 -2.592585e+10 -5.376195e+08
-1.495117e+10 -2.592668e+10 5.374152e+08
2.662411e+10 2.283774e+09 -3.298653e+08
-2.375745e+10 5.967474e+09 -9.393216e+07
-2.152302e+10 -4.187872e+09 -9.300032e+08
-3.013127e+10 -3.105001e+09 3.096103e+08
-1.775567e+10 2.121877e+10 -1.668812e+08
-6.322675e+09 2.066895e+10 1.385746e+09
2.519727e+10 4.202769e+09 -5.707527e+07
-1.724741e+08 -3.015580e+10 -3.096435e+08
3.840841e+08 -3.084156e+10 6.334520e+07
3.452458e+09 -2.536676e+10 2.394993e+08
-3.537474e+09 -2.509481e+10 -2.579427e+08
1.352941e+10 -2.761294e+10 1.134220e+09
-1.352963e+10 -2.761390e+10 -1.134257e+09
2.083524e+10 -1.933141e+10 -7.240360e+08
5.300624e+09 2.646593e+10 -7.972869e+08
-2.224548e+10 -3.349420e+09 -2.581071e+08
-5.294604e+09 2.053400e+10 -5.266699e+08
-9.648925e+09 1.955739e+10 6.841553e+08
-1.743179e+10 1.966098e+10 4.614568e+08
2.068754e+10 -1.721367e+10 -1.448834e+09
-1.605768e+10 -1.585909e+10 -1.218707e+07
1.605533e+10 -1.585928e+10 9.898905e+06
-2.093854e+10 -1.936556e+10 7.087232e+08
8.601345e+09 2.405064e+10 1.830335e+08
2.331525e+10 9.063197e+09 -6.127086e+08
1.239252e+10 2.894800e+10 -6.777707e+08
2.014108e+10 2.412848e+10 -2.302729e+09
-5.733445e+09 2.219250e+10 2.159781e+08
-2.456249e+10 -1.161757e+10 -1.129023e+09
-1.422388e+10 1.913267e+10 1.046331e+08
-1.555626e+10 2.644172e+10 -4.329100e+08
-2.045911e+10 1.156729e+10 -2.420063e+08
-4.669725e+09 -3.028269e+10 2.626343e+07
3.073857e+09 -2.871837e+10 4.598768e+08
-4.223473e+09 2.397513e+10 4.647151e+08
2.404592e+10 -5.869380e+09 -1.686126e+09
-2.080651e+10 -1.720830e+10 1.354458e+09
-2.763164e+10 -1.750131e+10 8.327721e+06
-9.892897e+09 2.482605e+10 -6.529582e+08
1.265472e+10 1.879931e+10 -2.144380e+09
-2.858984e+10 -5.408675e+09 -2.281343e+08
-1.914179e+10 1.477290e+10 5.225930e+08
-3.030678e+10 1.182683e+10 1.191071e+08
2.941505e+10 1.562027e+09 -4.685160e+08
-3.695158e+09 2.933286e+10 -6.771218e+08
-2.508121e+10 -5.550340e+09 1.507581e+09
1.827759e+10 2.665722e+10 1.030609e+09
-1.877135e+10 -1.956876e+10 -4.012192e+07
1.876915e+10 -1.956622e+10 3.877440e+07
-1.000366e+10 2.103584e+10 3.562142e+08
-2.784050e+10 -1.597264e+10 6.950748e+08
1.431313e+10 2.618050e+10 7.397834e+08
-2.583607e+10 -2.511084e+09 1.655294e+06
5.634883e+09 -3.074059e+10 5.592878e+08
-5.639010e+09 -3.073901e+10 -5.768205e+08
-6.325635e+09 -2.172554e+10 -1.755444e+08
6.325075e+09 -2.172552e+10 1.746349e+08