# vtk DataFile Version 2.0
Electric current density generated by TTH
ASCII
DATASET UNSTRUCTURED_GRID
POINTS 2715 double
2.846030e-05 -6.970763e-21 -3.207467e-22
2.750815e-05 7.300019e-06 -3.207467e-22
-2.728636e-05 8.089716e-06 -3.207467e-22
1.630409e-05 -2.289727e-05 8.927147e-07
-2.804450e-05 -1.910150e-06 8.920542e-07
-2.493659e-05 -1.303705e-05 -8.593365e-07
1.892784e-05 -1.963307e-05 1.303993e-06
1.892784e-05 1.963307e-05 1.303993e-06
1.630889e-05 2.289620e-05 8.906571e-07
2.666892e-07 2.807419e-05 -9.272718e-07
1.398336e-06 2.807678e-05 -8.897932e-07
9.822759e-06 2.394153e-05 -3.092494e-07
8.626637e-06 2.441070e-05 -3.547759e-07
-2.750815e-05 7.300019e-06 -3.207467e-22
-1.389028e-05 2.438719e-05 -9.370566e-07
-2.028931e-05 1.938914e-05 -9.384389e-07
-1.531930e-05 2.351232e-05 -9.399077e-07
-1.909465e-05 2.056423e-05 -9.402026e-07
-1.223466e-05 -2.294526e-05 6.310907e-07
1.087577e-05 2.591250e-05 -8.996942e-07
-2.539641e-05 1.176323e-05 -1.006602e-06
-2.581472e-05 1.221726e-06 7.942528e-08
2.625651e-05 -1.006818e-05 -8.798599e-07
2.625651e-05 1.006818e-05 -8.798599e-07
-2.770710e-05 6.504259e-06 -3.207467e-22
-1.796411e-06 -2.681309e-05 1.279796e-06
-3.695941e-06 -2.659478e-05 1.274631e-06
-2.370879e-05 -1.234240e-05 -1.239787e-06
-2.478738e-05 -1.322199e-05 9.090998e-07
-6.206579e-06 -2.601550e-05 -1.245300e-06
-3.174988e-06 2.569011e-05 -3.379271e-07
-2.625375e-05 3.624793e-07 -9.564435e-07
1.011257e-05 2.402001e-05 7.276078e-07
-2.768199e-05 4.885340e-06 8.917475e-07
-2.694663e-05 -8.023174e-06 8.853307e-07
-2.788303e-05 5.703095e-06 -3.207467e-22
-2.677516e-05 -3.248771e-06 1.297227e-06
9.388806e-06 2.651058e-05 -8.761714e-07
-1.725655e-05 2.221802e-05 -8.668229e-07
-2.192049e-05 1.762915e-05 -8.695140e-07
-1.185198e-05 2.551402e-05 -8.667181e-07
-4.794789e-06 -2.774965e-05 8.334475e-07
-2.608709e-05 -1.053474e-05 8.650548e-07
1.269562e-06 -2.808232e-05 8.904117e-07
-2.685078e-05 -1.362809e-06 1.282369e-06
2.174893e-05 1.778847e-05 9.052046e-07
-2.803580e-05 4.897194e-06 -3.207467e-22
2.174893e-05 -1.778847e-05 9.052046e-07
2.108490e-05 -1.502694e-05 -3.602629e-07
2.108490e-05 1.502694e-05 -3.602629e-07
-2.816853e-05 -3.400589e-07 -8.215013e-07
1.003405e-05 -2.507560e-05 1.301816e-06
1.886720e-05 -2.085215e-05 -8.796539e-07
1.886720e-05 2.085215e-05 -8.796539e-07
-2.569852e-05 -3.298788e-06 -4.170119e-07
-2.277340e-05 -1.223157e-05 1.542576e-07
-1.493716e-05 2.205618e-05 1.205077e-06
-2.816529e-05 4.087226e-06 -3.207467e-22
2.603117e-05 -1.068020e-05 8.615779e-07
2.603117e-05 1.068020e-05 8.615779e-07
-5.679183e-06 2.520994e-05 -3.638448e-08
2.888520e-06 2.572153e-05 -3.290233e-07
-2.090591e-05 1.522371e-05 2.297819e-07
-5.931772e-06 2.590254e-05 1.175240e-06
1.176479e-05 2.560385e-05 -8.129378e-07
-2.212373e-05 1.731923e-05 9.057685e-07
2.944417e-06 -2.597693e-05 -8.365973e-07
-2.469480e-05 1.000900e-05 1.208394e-06
-2.827137e-05 3.273862e-06 -3.207467e-22
-2.512434e-05 -6.824967e-06 -6.853004e-07
1.264317e-05 2.411310e-05 -1.307346e-06
2.570531e-05 -9.323873e-06 -1.295202e-06
2.570531e-05 9.323873e-06 -1.295202e-06
1.583812e-06 2.591033e-05 5.421366e-07
6.828461e-06 -2.728638e-05 -8.719290e-07
6.751689e-06 2.728362e-05 -8.951383e-07
-1.686503e-05 -2.250532e-05 8.769872e-07
2.792689e-05 3.511941e-06 -8.501299e-07
2.798534e-05 2.566008e-06 -8.992534e-07
-2.835398e-05 2.457779e-06 -3.207467e-22
2.792689e-05 -3.511941e-06 -8.501299e-07
2.798534e-05 -2.566008e-06 -8.992534e-07
-2.108249e-05 -1.664766e-05 1.277522e-06
-1.729000e-06 2.582446e-05 -3.253835e-07
1.998222e-05 1.668617e-05 -6.823106e-07
1.998222e-05 -1.668617e-05 -6.823106e-07
1.221623e-05 -2.299593e-05 6.926475e-07
-8.415491e-06 2.684235e-05 8.687673e-07
1.353670e-05 -2.464347e-05 -8.843479e-07
2.273268e-05 -1.233251e-05 2.348480e-07
-2.841303e-05 1.639654e-06 -3.207467e-22
2.273268e-05 1.233251e-05 2.348480e-07
1.136796e-05 2.412575e-05 -1.218062e-06
1.715287e-05 -1.989775e-05 9.696140e-07
1.715268e-05 1.989795e-05 9.696357e-07
5.302640e-06 2.761150e-05 8.849274e-07
-2.521134e-05 -1.055890e-05 1.296781e-06
2.741876e-06 2.800689e-05 8.571801e-07
5.745004e-06 -2.535888e-05 6.277972e-07
8.267916e-06 -2.563902e-05 1.292338e-06
1.057013e-05 -2.363117e-05 3.449189e-07
-2.844848e-05 8.201679e-07 -3.207467e-22
1.764480e-05 -2.191204e-05 8.658661e-07
1.764480e-05 2.191204e-05 8.658661e-07
9.861624e-06 -2.632481e-05 8.900490e-07
-7.847211e-06 2.703280e-05 -8.479097e-07
-2.706767e-05 -1.412519e-06 -1.308731e-06
-2.304310e-05 1.386519e-05 1.283911e-06
8.446292e-06 -2.685433e-05 -8.448931e-07
-2.694019e-05 1.951689e-06 1.302047e-06
-5.820136e-06 2.753663e-05 8.523041e-07
-1.565089e-05 2.327529e-05 9.538795e-07
2.728636e-05 8.089716e-06 -3.207467e-22
-2.846030e-05 7.931886e-20 -3.207467e-22
-5.222829e-06 -2.530959e-05 -6.570198e-08
1.218851e-05 -2.533649e-05 -8.852286e-07
4.394740e-06 2.779859e-05 8.536389e-07
-2.590271e-05 3.112045e-06 -7.665218e-07
-2.686979e-05 -5.596553e-07 1.280320e-06
-1.263372e-05 2.344376e-05 1.202073e-06
-2.330688e-05 -1.116468e-05 -6.854544e-08
5.303416e-06 2.761560e-05 -8.803512e-07
-1.760908e-05 -2.091730e-05 1.295432e-06
2.418436e-05 9.126014e-06 -1.420743e-07
-2.844848e-05 -8.201679e-07 -3.207467e-22
2.418436e-05 -9.126014e-06 -1.420743e-07
-2.744163e-05 -6.301588e-06 -8.394379e-07
2.553104e-05 6.540442e-06 1.040411e-06
2.553104e-05 -6.540442e-06 1.040411e-06
1.640530e-05 2.103769e-05 -1.221256e-06
-2.620483e-05 1.019934e-05 -8.808979e-07
-3.144144e-06 2.800654e-05 8.065173e-07
1.286194e-05 2.502690e-05 8.598103e-07
-1.973310e-05 -1.797214e-05 1.226075e-06
-2.614107e-05 1.025266e-05 9.229758e-07
-2.841303e-05 -1.639654e-06 -3.207467e-22
7.823984e-06 2.570251e-05 -1.278428e-06
-3.586618e-06 2.790917e-05 -8.595968e-07
-2.638393e-05 -4.840268e-06 1.268189e-06
1.642039e-05 -2.103334e-05 -1.223504e-06
8.895226e-06 -2.427793e-05 -1.975941e-07
-2.402196e-05 -9.544793e-06 1.403589e-07
-2.381330e-05 -1.223783e-05 1.254129e-06
-2.095306e-05 -1.884553e-05 8.080333e-07
-2.705461e-05 7.793205e-06 8.408599e-07
-2.145746e-06 -2.757258e-05 -1.208180e-06
-2.835398e-05 -2.457779e-06 -3.207467e-22
-5.394138e-06 2.653340e-05 1.307421e-06
4.237723e-06 2.584281e-05 8.876598e-07
-2.627306e-05 -8.999426e-06 -1.153010e-06
-2.739130e-05 -6.510135e-06 8.413073e-07
-2.575068e-05 2.462389e-06 2.642692e-07
-2.602102e-05 1.192252e-06 -7.067965e-07
-2.643565e-05 -9.718109e-06 8.279963e-07
-2.738019e-05 6.554896e-06 -8.418036e-07
2.784426e-05 -4.362260e-06 8.046930e-07
2.784426e-05 4.362260e-06 8.046930e-07
-2.827137e-05 -3.273862e-06 -3.207467e-22
2.376289e-05 -1.525186e-05 -7.323160e-07
2.376289e-05 1.525186e-05 -7.323160e-07
1.038027e-05 -2.488496e-05 -1.296039e-06
-7.952762e-06 -2.473989e-05 5.999189e-07
-1.841172e-05 1.956166e-05 1.277664e-06
2.053914e-05 -1.921161e-05 8.765288e-07
2.053914e-05 1.921161e-05 8.765288e-07
2.812543e-05 -1.930728e-06 7.946696e-07
2.812543e-05 1.930728e-06 7.946696e-07
2.475421e-05 7.420899e-06 -6.063048e-08
-2.816529e-05 -4.087226e-06 -3.207467e-22
2.475421e-05 -7.420899e-06 -6.063048e-08
-2.386967e-05 1.504349e-05 7.635409e-07
3.278259e-06 -2.563365e-05 -5.658793e-08
-2.158503e-05 -1.807278e-05 8.439694e-07
9.105901e-06 2.539350e-05 -1.297941e-06
8.021352e-06 2.705576e-05 7.563591e-07
-1.712184e-05 -1.957171e-05 6.323897e-07
-2.511726e-05 6.667199e-06 6.006518e-07
1.566847e-05 2.340180e-05 -8.310327e-07
5.133327e-06 2.664150e-05 -1.309407e-06
-2.803580e-05 -4.897194e-06 -3.207467e-22
2.654430e-05 -4.646686e-06 1.293748e-06
2.654430e-05 4.646686e-06 1.293748e-06
1.567565e-05 -2.339740e-05 -8.306138e-07
1.423161e-05 2.307883e-05 -1.309033e-06
1.144720e-05 -2.408488e-05 -1.216853e-06
-2.813598e-05 -2.059289e-06 -7.682975e-07
8.022934e-06 -2.706110e-05 7.484313e-07
2.710866e-05 -8.037533e-07 1.309200e-06
2.710866e-05 8.037533e-07 1.309200e-06
1.073719e-05 -2.492650e-05 1.309509e-06
-2.788303e-05 -5.703095e-06 -3.207467e-22
2.619312e-05 -2.044720e-06 9.716627e-07
2.619312e-05 2.044720e-06 9.716627e-07
-1.349544e-05 2.211165e-05 4.027404e-07
-7.172425e-06 2.491682e-05 -4.703502e-07
-1.458587e-05 -2.258951e-05 -1.283179e-06
2.789070e-05 9.654498e-07 -1.068831e-06
2.789633e-05 -9.095616e-07 -1.066166e-06
5.347926e-06 -2.631166e-05 1.274461e-06
2.247601e-05 -1.494725e-05 1.299942e-06
2.247601e-05 1.494725e-05 1.299942e-06
-2.770710e-05 -6.504259e-06 -3.207467e-22
-7.721583e-06 -2.611414e-05 -1.307037e-06
-1.947502e-05 -2.032136e-05 -8.503518e-07
-1.349721e-05 2.470663e-05 8.428487e-07
2.797472e-05 -3.485185e-06 7.955171e-07
2.797472e-05 3.485185e-06 7.955171e-07
2.593468e-05 1.094264e-05 -8.479587e-07
2.593468e-05 -1.094264e-05 -8.479587e-07
6.704430e-06 2.733230e-05 8.551164e-07
-2.258429e-05 -1.683452e-05 8.243647e-07
-2.359970e-05 1.086330e-05 5.866043e-07
-2.750815e-05 -7.300019e-06 -3.207467e-22
-2.559174e-05 1.168263e-05 8.669882e-07
2.472578e-05 8.666064e-06 9.010436e-07
2.472578e-05 -8.666064e-06 9.010436e-07
-1.473492e-05 -2.407036e-05 -7.527451e-07
-2.815717e-05 7.949142e-07 8.242142e-07
-2.346773e-05 -1.383794e-05 -1.306240e-06
1.341956e-05 -2.327416e-05 1.278169e-06
-9.753288e-06 2.643168e-05 8.175532e-07
-9.186512e-06 -2.533989e-05 1.294637e-06
-1.849672e-05 -1.981075e-05 -1.308691e-06
2.704189e-05 8.872694e-06 -3.207467e-22
-2.728636e-05 -8.089716e-06 -3.207467e-22
5.320506e-06 -2.763198e-05 8.586046e-07
-2.154255e-05 1.656258e-05 1.309350e-06
-2.084254e-05 -1.585348e-05 -8.863136e-07
-1.388660e-05 -2.229476e-05 9.653096e-07
2.727035e-05 2.283236e-06 -1.291775e-06
2.727035e-05 -2.283236e-06 -1.291775e-06
2.801428e-06 -2.802612e-05 -8.274212e-07
1.144508e-05 -2.572811e-05 8.357624e-07
-2.805726e-05 2.384657e-06 8.363790e-07
-2.797963e-05 3.254320e-06 8.243845e-07
-2.704189e-05 -8.872694e-06 -3.207467e-22
3.773129e-06 2.649710e-05 -1.251257e-06
-2.505515e-05 -6.326823e-06 -3.295932e-08
-1.706296e-05 2.238349e-05 8.517841e-07
-4.733823e-06 -2.557991e-05 6.505886e-07
2.044991e-07 2.584043e-05 9.911074e-09
-1.032124e-05 -2.442113e-05 -1.143552e-06
-1.683658e-05 -2.048003e-05 -1.143371e-06
[...]
POINT_DATA 2715
VECTORS 10.000GHz_fone_imag double
-4.902494e-05 -3.258544e-05 1.768264e-02
2.671617e-04 -1.038030e-04 1.740195e-02
3.880899e-04 1.256735e-04 1.752142e-02
-7.044713e-03 1.030561e-02 1.335093e-02
1.258404e-02 9.780778e-04 1.390918e-02
-1.061157e-02 -5.201189e-03 1.388212e-02
-1.438009e-02 1.468731e-02 1.152822e-03
-1.438360e-02 -1.468885e-02 1.153584e-03
-7.290673e-03 -1.032923e-02 1.319826e-02
3.015261e-04 1.343093e-02 1.266915e-02
3.634224e-04 1.292086e-02 1.300010e-02
2.353021e-03 4.916080e-03 -2.478763e-02
2.035443e-03 5.684680e-03 -2.457399e-02
-8.494805e-06 -1.145187e-04 1.741934e-02
-7.049473e-03 1.212026e-02 1.220208e-02
-1.032774e-02 9.183289e-03 1.230279e-02
-7.904016e-03 1.165926e-02 1.210856e-02
-9.641732e-03 9.819308e-03 1.208068e-02
5.414123e-03 1.027842e-02 -2.155356e-02
4.646697e-03 1.187808e-02 1.322964e-02
-1.363453e-02 6.358742e-03 1.138752e-02
1.110107e-03 1.361417e-04 -2.510332e-02
1.187896e-02 -4.419622e-03 1.326836e-02
1.188056e-02 4.419042e-03 1.326914e-02
5.761963e-05 -1.644686e-04 1.758732e-02
2.019985e-03 2.113041e-02 -4.784337e-03
2.257401e-03 2.084187e-02 -4.560178e-03
-1.872216e-02 -9.806716e-03 -7.417409e-03
1.129416e-02 6.221436e-03 1.293441e-02
-4.934266e-03 -2.039113e-02 -7.374524e-03
-1.454816e-03 6.191789e-03 -2.410244e-02
-1.685236e-02 1.626614e-04 -1.647612e-02
-4.877012e-03 -1.243500e-02 -1.970501e-02
1.242974e-02 -2.134158e-03 1.348123e-02
1.188408e-02 3.691248e-03 1.337245e-02
3.742216e-04 -2.086599e-04 1.729731e-02
2.135600e-02 2.941996e-03 -3.608210e-03
4.905209e-03 1.142005e-02 1.340564e-02
-7.484433e-03 1.024413e-02 1.357318e-02
-9.610700e-03 8.058413e-03 1.350817e-02
-4.972214e-03 1.151704e-02 1.338382e-02
2.255546e-03 1.182921e-02 1.351105e-02
1.158754e-02 4.763208e-03 1.356717e-02
-7.219271e-04 1.265355e-02 1.326687e-02
2.122379e-02 6.396631e-04 -5.730599e-03
-9.952862e-03 -8.205975e-03 1.350363e-02
1.682273e-05 5.315705e-04 1.725966e-02
-9.952881e-03 8.206459e-03 1.350436e-02
5.708264e-03 -4.047891e-03 -2.390336e-02
5.708265e-03 4.047418e-03 -2.390338e-02
-1.172616e-02 -4.045131e-04 1.400854e-02
-7.502865e-03 1.991365e-02 -2.946774e-03
8.422327e-03 -9.290954e-03 1.341280e-02
8.426872e-03 9.290264e-03 1.340790e-02
-7.783863e-03 -1.167629e-03 -2.366766e-02
3.316127e-03 1.172658e-03 -2.478888e-02
1.131609e-02 -1.678389e-02 -9.469126e-03
-2.229076e-04 1.532223e-05 1.746410e-02
-1.147449e-02 4.804865e-03 1.349450e-02
-1.147270e-02 -4.804569e-03 1.349651e-02
-4.442541e-04 6.462062e-04 -2.486045e-02
5.888497e-04 6.306417e-03 -2.428086e-02
2.922149e-03 -1.924901e-03 -2.493116e-02
4.390971e-03 -1.963361e-02 -1.097569e-02
4.349816e-03 1.080829e-02 1.397643e-02
1.029048e-02 -8.113871e-03 1.307131e-02
1.532355e-03 -1.464964e-02 -1.886516e-02
1.875906e-02 -7.800404e-03 -9.670134e-03
2.947764e-05 3.575544e-04 1.776965e-02
-1.164420e-02 -3.029903e-03 -2.157794e-02
9.652029e-03 1.835553e-02 -5.517354e-05
1.901999e-02 -7.078583e-03 2.540930e-03
1.902005e-02 7.077310e-03 2.540860e-03
-6.868252e-04 -9.559409e-03 -2.276258e-02
3.042325e-03 -1.199442e-02 1.354308e-02
3.397559e-03 1.218028e-02 1.333487e-02
7.448736e-03 9.955909e-03 1.317728e-02
1.216634e-02 1.727632e-03 1.372057e-02
1.323251e-02 1.495127e-03 1.306959e-02
-9.336042e-04 1.829946e-04 1.747565e-02
1.218879e-02 -1.722645e-03 1.365742e-02
1.316076e-02 -1.228605e-03 1.309470e-02
1.662092e-02 1.259643e-02 -6.385718e-03
-3.780782e-04 6.010234e-03 -2.431742e-02
8.497628e-03 7.744741e-03 -2.061425e-02
8.497020e-03 -7.744076e-03 -2.061390e-02
-6.190921e-03 1.046541e-02 -2.082024e-02
3.707113e-03 -1.179843e-02 1.356029e-02
6.259616e-03 -1.156667e-02 1.331100e-02
-4.490433e-03 2.275173e-03 -2.426469e-02
-7.338351e-04 -2.301855e-04 1.749041e-02
-4.489742e-03 -2.275259e-03 -2.426496e-02
8.824087e-03 1.862835e-02 -8.828898e-03
-1.127681e-02 1.294148e-02 -1.648094e-02
-1.129340e-02 -1.292441e-02 -1.649104e-02
-2.216506e-03 -1.284105e-02 1.323416e-02
1.870959e-02 7.698095e-03 2.265772e-03
-1.462469e-03 -1.169030e-02 1.376579e-02
-2.470812e-03 1.108123e-02 -2.207911e-02
-6.380239e-03 2.046022e-02 -4.430243e-03
-2.353617e-03 6.044803e-03 -2.395181e-02
1.740499e-04 -2.578537e-04 1.738419e-02
-8.065097e-03 1.010486e-02 1.259330e-02
-8.003523e-03 -1.010278e-02 1.265222e-02
-4.864376e-03 1.106701e-02 1.349753e-02
-3.916780e-03 1.180124e-02 1.337092e-02
-2.091657e-02 -1.117738e-03 -1.538997e-03
1.827826e-02 -1.058753e-02 -5.220757e-03
3.641718e-03 -1.155200e-02 1.396086e-02
2.130009e-02 -1.360782e-03 -2.835894e-03
2.687086e-03 -1.173929e-02 1.378211e-02
7.667548e-03 -1.146604e-02 1.254671e-02
4.877734e-04 1.139574e-04 1.743967e-02
-3.808172e-04 7.440671e-05 1.752617e-02
-9.274063e-05 -5.950706e-04 -2.520276e-02
5.689465e-03 -1.141419e-02 1.310999e-02
-1.832875e-03 -1.256392e-02 1.318422e-02
-1.356084e-02 1.177561e-03 -1.959646e-02
2.104231e-02 2.623159e-04 -5.444545e-03
9.408145e-03 -1.789026e-02 -9.335055e-03
-9.914996e-04 2.417729e-04 -2.504578e-02
2.424612e-03 1.291320e-02 1.314490e-02
1.302786e-02 1.585595e-02 1.801139e-03
3.028484e-03 1.012110e-03 -2.482028e-02
-2.459208e-04 -3.259636e-04 1.746420e-02
3.028413e-03 -1.011475e-03 -2.482051e-02
-1.100768e-02 -2.690401e-03 1.281469e-02
-1.752565e-02 -4.363787e-03 -1.487276e-02
-1.752736e-02 4.366226e-03 -1.487803e-02
1.231283e-02 1.655044e-02 -8.702072e-03
-1.179882e-02 4.741986e-03 1.325427e-02
1.453613e-03 -1.113245e-02 1.435190e-02
-5.728965e-03 -1.080402e-02 1.368087e-02
1.509024e-02 1.390484e-02 -8.656139e-03
1.238293e-02 -4.549696e-03 1.301011e-02
-5.711742e-05 6.319510e-04 1.721291e-02
6.271035e-03 2.012075e-02 -5.527406e-03
-2.092371e-03 1.301552e-02 1.269614e-02
2.084417e-02 3.366284e-03 -6.759126e-03
1.234094e-02 -1.658973e-02 -8.630205e-03
1.266603e-03 -3.206485e-03 -2.457449e-02
3.132496e-03 1.288126e-03 -2.486053e-02
1.865972e-02 9.480823e-03 -6.813246e-03
8.701146e-03 8.080434e-03 1.376857e-02
1.135765e-02 -2.803342e-03 1.392397e-02
-1.471483e-03 -1.850452e-02 6.819102e-03
-2.227850e-04 -1.081498e-04 1.762471e-02
3.587005e-03 -2.043697e-02 -1.831716e-03
-2.532226e-03 -1.555834e-02 -1.799409e-02
-1.640844e-02 -5.381476e-03 8.236289e-03
1.192217e-02 3.323967e-03 1.347848e-02
3.850585e-03 -8.216591e-04 -2.414196e-02
-1.309069e-02 8.453096e-04 -2.044191e-02
1.151821e-02 4.286667e-03 1.414525e-02
-1.186261e-02 2.604499e-03 1.370559e-02
-1.119660e-02 1.849680e-03 1.425435e-02
-1.123324e-02 -1.895899e-03 1.423727e-02
-1.375324e-04 1.046963e-05 1.750146e-02
8.885970e-03 -5.630738e-03 1.465013e-02
8.885364e-03 5.632055e-03 1.464849e-02
8.018696e-03 -1.931627e-02 -4.479279e-03
3.362997e-03 1.095591e-02 -2.200785e-02
1.435757e-02 -1.551980e-02 -5.327669e-03
-8.980630e-03 8.404159e-03 1.365116e-02
-8.980228e-03 -8.404380e-03 1.365187e-02
-1.124796e-02 1.498477e-03 1.414498e-02
-1.167993e-02 -8.943192e-04 1.468275e-02
1.505198e-03 4.827513e-04 -2.500467e-02
-5.518312e-04 -2.844538e-04 1.743705e-02
1.504879e-03 -4.791118e-04 -2.500344e-02
9.309927e-03 -5.836900e-03 1.463474e-02
-1.804320e-04 -1.281114e-03 -2.491188e-02
9.462661e-03 7.932170e-03 1.343479e-02
7.671202e-03 1.951722e-02 -3.068002e-03
-3.356794e-03 -1.040455e-02 1.446774e-02
7.496358e-03 8.843055e-03 -2.118299e-02
1.006895e-02 -2.088703e-03 -2.216813e-02
6.586370e-03 9.399893e-03 1.413186e-02
3.971172e-03 2.078427e-02 -1.007000e-03
1.234492e-04 1.194084e-04 1.775485e-02
-2.084004e-02 3.426790e-03 -4.383648e-03
-2.079919e-02 -3.460692e-03 -4.364250e-03
6.585455e-03 -9.620729e-03 1.400530e-02
1.148265e-02 1.815367e-02 -2.112674e-03
9.080583e-03 -1.815412e-02 -8.846392e-03
-1.123708e-02 -4.055230e-04 1.414412e-02
-3.113987e-03 1.036010e-02 1.460813e-02
-2.100792e-02 4.859533e-04 -1.673641e-03
-2.104810e-02 -4.776124e-04 -1.589636e-03
-8.224793e-03 1.948621e-02 -1.553542e-03
-4.110913e-04 1.515212e-04 1.793252e-02
-1.700697e-02 1.340707e-03 -1.635196e-02
-1.692458e-02 -1.802796e-03 -1.611496e-02
3.317426e-03 -6.283007e-03 -2.340032e-02
-2.188154e-03 8.630407e-03 -2.313112e-02
-1.145636e-02 -1.764801e-02 -5.699775e-03
1.609113e-02 6.034293e-04 1.019677e-02
1.613369e-02 -6.503519e-04 1.028961e-02
-4.207640e-03 2.066967e-02 -5.949159e-03
-1.772485e-02 1.177126e-02 -3.791163e-03
-1.772421e-02 -1.177190e-02 -3.791516e-03
-8.110663e-04 -6.300870e-04 1.753765e-02
-5.392544e-03 -2.008759e-02 7.719014e-04
-8.184293e-03 -8.881198e-03 1.379072e-02
5.781791e-03 -1.081869e-02 1.380087e-02
-1.143027e-02 1.444774e-03 1.426168e-02
-1.146080e-02 -1.486689e-03 1.418858e-02
1.138128e-02 4.916715e-03 1.366057e-02
1.137908e-02 -4.916616e-03 1.365744e-02
-2.853554e-03 -1.234369e-02 1.324683e-02
9.749433e-03 6.877242e-03 1.370285e-02
9.822940e-03 -4.462201e-03 -2.180633e-02
4.267169e-04 -4.971535e-04 1.735229e-02
1.171275e-02 -5.176826e-03 1.327411e-02
-1.499834e-02 -5.378911e-03 -1.795706e-02
-1.499718e-02 5.378993e-03 -1.795825e-02
-5.631113e-03 -9.401259e-03 1.471115e-02
1.146477e-02 -5.668071e-04 1.416571e-02
-1.757532e-02 -1.032664e-02 8.161283e-04
-1.047932e-02 1.840698e-02 -5.649596e-03
4.090168e-03 -1.099033e-02 1.409182e-02
7.384099e-03 2.040167e-02 -3.372055e-03
-1.430721e-02 -1.550315e-02 -2.253642e-03
-1.029127e-05 3.758065e-04 1.743433e-02
5.161345e-04 5.663145e-04 1.738790e-02
-2.320245e-03 1.190474e-02 1.365685e-02
1.664012e-02 -1.262604e-02 -2.169230e-04
-1.268529e-02 -8.917950e-03 -1.822087e-02
8.496128e-03 1.457314e-02 -1.608538e-02
2.007322e-02 2.580833e-03 1.986337e-03
2.017282e-02 -2.425093e-03 2.189098e-03
1.350478e-03 -1.175815e-02 1.390688e-02
-4.874361e-03 1.087990e-02 1.385882e-02
1.203619e-02 -8.597519e-04 1.400716e-02
1.207365e-02 -1.248786e-03 1.390625e-02
-1.160076e-04 1.519732e-04 1.756392e-02
2.569287e-03 2.052383e-02 -7.461637e-03
-6.153547e-04 1.395929e-04 -2.442876e-02
7.769836e-03 -9.956897e-03 1.293173e-02
2.407222e-03 1.173474e-02 -2.129242e-02
-5.437147e-05 -5.884036e-04 -2.517104e-02
-8.264196e-03 -1.748247e-02 -1.214668e-02
-1.268694e-02 -1.460175e-02 -1.253181e-02
6.703966e-03 -2.013606e-02 -5.799170e-03
2.558052e-03 -1.345066e-02 -2.026316e-02
-5.077523e-03 -1.063254e-02 1.378286e-02
-4.776010e-05 -1.581322e-04 1.788095e-02
6.599908e-04 -4.068710e-03 -2.460546e-02
3.639984e-03 9.917926e-03 1.396763e-02
-1.853304e-02 1.054177e-02 -3.564815e-03
-1.853122e-02 -1.053864e-02 -3.566461e-03
-9.369077e-03 4.251252e-03 1.457187e-02
-9.369873e-03 -4.251022e-03 1.457242e-02
-1.559237e-02 1.087984e-04 -1.795662e-02
-4.847387e-03 -2.389086e-03 -2.443681e-02
-4.848442e-03 2.389072e-03 -2.443552e-02
6.505724e-03 9.504281e-03 -2.161062e-02
7.080288e-04 -4.214529e-04 1.745773e-02
8.370061e-04 5.578740e-03 -2.425896e-02
2.031914e-02 -2.318325e-03 -9.364735e-03
2.035661e-02 2.296240e-03 -9.339461e-03
1.446574e-02 -2.720388e-03 -1.903177e-02
1.446381e-02 2.748174e-03 -1.905626e-02
2.225438e-03 -7.295287e-04 -2.457099e-02
8.107734e-03 1.980383e-02 -5.483504e-03
-5.574279e-04 1.171813e-03 -2.520279e-02
-9.059954e-03 -7.691031e-03 1.379562e-02
1.111279e-03 -1.194325e-02 -2.151216e-02
3.022980e-04 2.584909e-04 1.732279e-02
5.633556e-03 9.036918e-03 1.469451e-02
8.137014e-03 8.289489e-03 1.396807e-02
2.065898e-02 -5.808737e-03 -5.385272e-03
1.155112e-02 -2.887065e-03 1.380051e-02
-2.709611e-03 -1.073764e-02 1.438081e-02
7.413080e-05 -1.273961e-03 -2.497358e-02
2.383845e-03 -7.036848e-03 -2.335069e-02
7.734142e-03 -7.985532e-03 1.431124e-02
-1.098327e-03 2.219625e-03 -2.488353e-02
1.816732e-02 1.059358e-02 -3.420852e-03
1.450322e-04 7.164050e-05 1.737619e-02
8.903910e-03 -5.204229e-03 1.476584e-02
8.904897e-03 5.201658e-03 1.476221e-02
7.826933e-04 6.006000e-03 -2.431284e-02
1.245815e-02 -1.592548e-02 1.002276e-03
1.227813e-02 1.714982e-02 -4.674557e-03
9.203582e-03 -1.872827e-02 -3.750562e-04
2.030967e-02 -5.825094e-03 -4.729279e-03
2.030981e-02 5.826216e-03 -4.729152e-03
-9.771672e-03 -5.202435e-03 1.437361e-02
-2.592239e-03 1.383684e-02 -1.919338e-02
-3.043852e-06 1.486324e-04 1.734202e-02
-1.167103e-02 1.744357e-02 -3.446051e-04
2.147758e-04 3.879241e-04 -2.419490e-02
-1.107376e-02 -1.816924e-02 -4.409935e-03
1.671471e-04 3.336504e-04 -2.484315e-02
-1.984006e-02 -5.844898e-03 1.208490e-03
-1.984150e-02 5.844734e-03 1.208454e-03
1.312439e-02 4.040616e-03 -1.992512e-02
1.312344e-02 -4.040554e-03 -1.992449e-02
1.377516e-03 1.082403e-02 1.431987e-02
4.001183e-03 8.456149e-03 1.512849e-02
7.780725e-05 2.425439e-05 1.740801e-02
-3.084891e-05 -1.016123e-03 -2.522347e-02
-2.399177e-03 -2.092839e-02 -2.672686e-03
-1.151139e-02 -1.778151e-02 -3.175479e-04
1.867691e-02 -9.333091e-03 -5.658832e-03
1.012179e-02 5.925027e-03 1.379829e-02
4.188300e-03 -1.069238e-02 1.455183e-02
1.108614e-02 4.843973e-03 -2.118617e-02
-3.646475e-03 -3.662046e-03 -2.440475e-02
-4.901776e-04 -1.880845e-03 -2.487685e-02
-5.847848e-03 -2.016887e-02 -5.386415e-03
-1.703881e-04 1.803973e-04 1.725999e-02
1.830276e-02 9.205637e-03 1.622370e-03
1.830351e-02 -9.205662e-03 1.622742e-03
1.907817e-03 1.542232e-02 -1.856288e-02
2.099553e-02 -2.842511e-03 -1.054355e-03
-2.004003e-02 -5.962207e-03 -3.662877e-04
-1.282049e-03 -2.204889e-03 -2.492853e-02
-1.404814e-03 2.089626e-02 -6.455466e-03
-9.273808e-03 -1.899153e-02 -2.513136e-04
-1.466253e-02 -4.205929e-03 1.091824e-02
-1.466626e-02 4.203861e-03 1.091708e-02
-9.557151e-05 -4.531351e-05 1.760136e-02
1.640804e-05 2.134272e-02 -5.117747e-03
-5.524905e-03 1.064226e-02 1.341726e-02
-1.682659e-03 1.152443e-02 -2.131997e-02
-2.973654e-04 -7.327835e-04 -2.521998e-02
1.744158e-02 -1.192149e-02 -3.321377e-03
1.744086e-02 1.192142e-02 -3.321455e-03
6.280126e-03 -1.038115e-02 1.483976e-02
8.460254e-03 -1.938616e-02 -4.933437e-03
1.628548e-02 -1.373812e-02 -5.080773e-03
1.307614e-02 -1.650777e-02 -4.797441e-03
-7.407788e-05 -1.242523e-04 1.745918e-02
2.827467e-04 -1.962752e-04 1.756322e-02
-1.616903e-03 -2.144527e-02 -3.599878e-03
4.649502e-03 4.260772e-03 -2.396811e-02
4.650210e-03 -4.258311e-03 -2.396979e-02
-4.906802e-04 2.123177e-02 -4.765097e-03
3.026141e-03 1.130047e-02 1.389705e-02
3.251448e-03 -2.786011e-03 -2.440691e-02
-1.611445e-02 -1.416966e-02 -3.668995e-03
4.800643e-03 -1.000327e-02 1.448542e-02
-1.879299e-02 7.334092e-03 2.932467e-03
6.905183e-03 9.536209e-03 1.423657e-02
2.524840e-04 2.071035e-04 1.741027e-02
1.612963e-02 4.623931e-03 -1.662775e-02
4.437431e-03 -1.016021e-02 1.432949e-02
-5.414781e-03 -1.021791e-02 1.357723e-02
-3.281092e-03 -1.650306e-02 -1.697858e-02
6.365746e-03 1.028655e-02 1.497737e-02
-2.352248e-03 2.100410e-02 -4.483941e-03
-1.552424e-02 -6.654245e-03 -1.709272e-02
-1.993080e-02 -2.230871e-03 3.145496e-03
6.805187e-03 -9.355963e-03 1.428892e-02
-1.972955e-02 -7.766156e-03 -1.644033e-03
4.836030e-04 -4.600942e-05 1.740378e-02
-1.205978e-02 -6.142350e-03 -1.965212e-02
-1.206062e-02 6.142178e-03 -1.965185e-02
-2.083094e-03 2.998103e-03 -2.452856e-02
-9.971687e-03 3.173223e-03 1.471511e-02
-9.971828e-03 -3.173923e-03 1.471484e-02
-6.487119e-03 -1.364799e-02 -1.840277e-02
1.574488e-02 1.422321e-02 -4.458574e-03
1.574490e-02 -1.422303e-02 -4.459236e-03
1.770881e-03 1.641862e-02 -1.691922e-02
3.477104e-03 7.627764e-03 -2.361859e-02
2.050903e-04 8.328700e-05 1.759249e-02
-1.655905e-02 4.655693e-03 -1.604700e-02
-9.475758e-03 1.835592e-02 1.724754e-03
-1.989814e-02 7.088476e-03 -4.504999e-03
1.007737e-02 2.157395e-03 1.477191e-02
9.631888e-03 1.783204e-03 1.510853e-02
1.007625e-02 -2.162001e-03 1.476345e-02
9.631381e-03 -1.792621e-03 1.509232e-02
5.303348e-03 -2.037200e-02 -2.525676e-03
7.281542e-03 5.679754e-03 -2.289966e-02
-9.039585e-03 6.619950e-03 1.445161e-02
4.785405e-04 4.337171e-04 1.750619e-02
-9.039854e-03 -6.619941e-03 1.445155e-02
7.103948e-03 7.929138e-03 1.453830e-02
8.941560e-03 1.927966e-02 -2.397868e-03
-1.046644e-02 1.139304e-03 1.463392e-02
-1.909329e-02 8.705852e-03 -1.418730e-03
-1.909306e-02 -8.704193e-03 -1.419245e-03
1.102588e-02 1.067866e-03 1.444582e-02
-2.069187e-02 -4.608063e-03 -4.611798e-03
-2.070054e-02 4.606948e-03 -4.615387e-03
1.011734e-02 -2.808515e-03 1.461701e-02
1.056429e-04 2.465860e-05 1.758205e-02
1.011762e-02 2.806741e-03 1.461862e-02
-8.341071e-04 1.073038e-02 1.455801e-02
-3.960011e-03 -9.999695e-03 1.453850e-02
-2.466384e-04 -1.593694e-02 -1.756622e-02
1.431689e-02 1.550837e-02 -4.224190e-03
1.431700e-02 -1.551073e-02 -4.225142e-03
2.776695e-03 -1.135967e-02 1.415289e-02
1.486474e-02 -1.002764e-02 -1.452004e-02
2.503790e-04 -3.176653e-04 -2.480925e-02
-2.250701e-03 -8.834336e-03 -2.287201e-02
1.575543e-04 3.492980e-04 1.745722e-02
-4.522287e-04 -1.032927e-02 1.495109e-02
-1.243176e-02 -1.258910e-03 -2.100290e-02
-3.568949e-03 -1.001385e-02 1.472248e-02
-4.411047e-03 -9.659970e-03 1.459263e-02
-1.784373e-02 -3.824031e-03 -1.606234e-02
5.272349e-05 1.089175e-02 1.447119e-02
1.868793e-02 -8.165662e-03 1.257794e-03
8.761437e-03 -6.463570e-03 1.439712e-02
8.761180e-03 6.463860e-03 1.439664e-02
-8.634223e-03 -1.916170e-02 -5.552400e-03
3.068972e-04 1.995907e-04 1.753165e-02
5.696853e-03 2.019664e-02 -3.979200e-03
1.131706e-02 -9.413191e-03 -1.933670e-02
8.841468e-03 5.946597e-03 -2.200286e-02
8.840051e-03 -5.945660e-03 -2.200327e-02
1.552717e-03 -2.118704e-02 -2.319676e-03
2.542801e-03 1.040606e-02 1.456924e-02
1.866448e-03 -1.080896e-02 1.436226e-02
2.341414e-04 -5.591753e-03 -2.414498e-02
-1.617769e-02 -1.232883e-02 3.138682e-03
-2.709095e-03 2.076260e-02 -1.785625e-04
1.437881e-04 1.670769e-04 1.761241e-02
-6.139452e-03 1.116788e-04 -2.397371e-02
-6.094191e-03 -9.954526e-05 -2.403693e-02
1.980328e-02 2.729467e-03 3.477358e-03
1.977001e-02 -2.734642e-03 3.478578e-03
1.318822e-02 6.348251e-03 -1.934533e-02
1.318780e-02 -6.348988e-03 -1.934543e-02
1.355041e-02 1.638340e-02 -3.320066e-03
2.040910e-02 -4.423767e-03 -3.939615e-03
1.688878e-03 -1.011372e-02 1.482697e-02
9.227589e-03 4.337852e-03 1.465384e-02
-1.500294e-04 3.297026e-04 1.736646e-02
1.562453e-02 1.362370e-02 -6.502224e-03
6.952260e-03 8.526917e-03 1.485031e-02
7.197161e-03 -7.426355e-03 1.477676e-02
7.199020e-03 7.425757e-03 1.477598e-02
1.355246e-02 -1.639951e-02 -3.161854e-03
1.932666e-02 -6.700233e-03 1.749123e-03
6.983258e-03 -1.829371e-02 4.228056e-03
-1.216549e-02 4.618293e-03 -2.034824e-02
3.024089e-03 -4.701890e-03 -2.393283e-02
7.634925e-03 -1.919581e-02 -3.876510e-03
-2.503214e-04 5.746961e-04 1.746630e-02
1.531630e-04 -3.079317e-05 1.750494e-02
-1.367631e-02 -1.006339e-02 8.740378e-03
1.263483e-02 7.011784e-03 -1.917330e-02
5.465012e-03 1.020272e-02 1.401439e-02
-2.052089e-02 2.915202e-03 -9.376454e-03
-2.038485e-02 -2.606653e-03 -9.415078e-03
1.030852e-02 1.399073e-03 1.504207e-02
-5.096832e-03 -1.996722e-02 3.800624e-04
6.889390e-03 -8.478269e-03 1.489296e-02
5.377926e-03 -9.770841e-03 -2.199780e-02
7.709482e-03 -5.424729e-03 1.512391e-02
6.125429e-04 5.892691e-04 1.757578e-02
-3.663100e-03 2.004830e-02 -9.751071e-03
-9.794987e-03 -1.340218e-02 9.401161e-03
-5.906858e-03 -1.545771e-02 1.015375e-02
-5.463156e-04 1.608193e-02 -1.763624e-02
-1.663963e-02 -2.910505e-03 -1.640790e-02
-4.984753e-03 1.983039e-02 1.632236e-03
-1.635493e-03 1.786030e-03 -2.480621e-02
1.481171e-02 -1.508881e-02 -4.292512e-03
1.481164e-02 1.508821e-02 -4.291236e-03
2.911253e-03 -6.190051e-03 -2.402539e-02
4.677238e-05 5.366645e-04 1.752810e-02
1.254185e-05 2.176375e-04 -2.489014e-02
1.838841e-03 -2.103271e-02 -2.204396e-03
3.460351e-04 2.516936e-04 -2.513292e-02
3.548745e-04 -2.434063e-04 -2.513280e-02
1.011791e-02 -3.205832e-03 1.466174e-02
1.011933e-02 3.205373e-03 1.466166e-02
-1.796683e-03 -1.417759e-02 -1.929179e-02
-5.706888e-03 -5.601897e-03 -2.326905e-02
-5.705653e-03 5.605227e-03 -2.326925e-02
-3.674581e-03 8.742795e-03 1.497191e-02
-1.955081e-04 5.841552e-05 1.747878e-02
9.514649e-03 -5.157356e-03 1.455979e-02
-9.715568e-03 4.770789e-03 1.462829e-02
-1.058589e-02 -1.720621e-02 -9.813065e-03
1.741384e-02 9.223140e-03 3.635741e-03
-1.349969e-02 -1.541113e-02 2.337734e-03
2.050695e-02 -3.978972e-03 -4.794362e-03
-1.394207e-03 -1.452195e-03 -2.502352e-02
-8.521267e-03 -1.859424e-02 2.077483e-03
-7.991531e-03 5.302410e-03 1.499109e-02
-5.969707e-03 1.967664e-02 1.788255e-03
-8.064812e-05 -2.088991e-04 1.762461e-02
-1.559604e-02 9.488764e-03 -1.460585e-02
-1.559463e-02 -9.488662e-03 -1.460597e-02