# vtk DataFile Version 2.0
Electric current density generated by TTH
ASCII
DATASET UNSTRUCTURED_GRID
POINTS 1683 double
1.869548e-05 -4.579071e-21 -4.792738e-22
1.658947e-05 8.620344e-06 -4.792738e-22
9.916472e-06 -1.584880e-05 -4.792738e-22
1.744552e-05 -7.987595e-07 -1.817478e-06
2.188045e-06 -1.747979e-05 -1.748996e-06
-1.484491e-05 -2.361179e-06 -9.563170e-07
-1.218440e-05 1.060515e-05 1.867164e-06
-2.977813e-06 1.827661e-05 -8.151377e-07
1.769841e-05 5.447650e-06 8.146265e-07
1.398740e-05 1.221578e-05 -6.874422e-07
1.237922e-05 1.001775e-05 -1.779505e-06
5.742302e-07 1.589746e-05 1.771629e-06
4.614855e-06 1.423189e-05 8.186879e-07
1.074593e-05 -1.529856e-05 -4.792738e-22
1.423812e-05 4.094568e-06 -3.592916e-07
-1.667298e-05 -8.107549e-06 7.650879e-07
1.625901e-05 8.905466e-06 7.687470e-07
1.085457e-05 -1.035955e-05 -9.068491e-07
-4.332586e-06 -1.707898e-05 1.747106e-06
-7.599722e-06 1.284016e-05 7.236578e-07
4.337070e-06 -1.795975e-05 9.004101e-07
-4.669054e-06 1.402820e-05 1.063379e-07
-2.759635e-06 -1.725027e-05 1.815146e-06
9.888700e-06 1.288618e-05 -1.892998e-06
1.154492e-05 -1.470496e-05 -4.792738e-22
1.885685e-07 1.581803e-05 -1.727269e-06
-1.331453e-05 6.793502e-06 -7.878511e-07
6.832946e-06 1.721471e-05 8.072247e-07
1.754587e-05 2.147965e-06 -1.717224e-06
-7.331251e-06 1.576667e-05 1.845992e-06
-1.108051e-05 1.484651e-05 -7.975575e-07
1.614017e-05 -9.075519e-06 -8.170205e-07
-1.257818e-05 8.570906e-06 1.234838e-06
1.738214e-05 6.386520e-06 8.136896e-07
4.722827e-07 1.485152e-05 5.439232e-07
1.231118e-05 -1.406967e-05 -4.792738e-22
9.369708e-06 1.597317e-05 8.132745e-07
-1.138603e-06 1.743227e-05 -1.815227e-06
-1.703565e-05 -7.280692e-06 -7.960260e-07
-1.290141e-05 -1.057323e-05 -1.955919e-06
9.414090e-06 1.597655e-05 -7.552020e-07
-1.766281e-05 -1.023668e-06 1.708612e-06
9.616338e-06 1.463031e-05 -1.799339e-06
9.869908e-07 1.851844e-05 7.531548e-07
1.372004e-05 5.767996e-06 -6.213752e-07
1.609164e-05 9.129719e-06 -8.501394e-07
1.304255e-05 -1.339450e-05 -4.792738e-22
-1.612782e-05 4.068734e-06 -1.953935e-06
1.197610e-05 1.413290e-05 7.994176e-07
-1.592549e-05 -5.009443e-06 -1.956291e-06
-7.595491e-06 1.271859e-05 -3.528386e-07
4.984082e-09 -1.666456e-05 1.955379e-06
-1.572818e-05 -9.762527e-06 8.279413e-07
1.511194e-05 -8.285269e-06 -1.893016e-06
1.226826e-05 -8.479242e-06 7.050383e-07
-1.012759e-06 1.851272e-05 -7.634411e-07
1.679093e-05 -6.115289e-06 -1.596698e-06
1.373695e-05 -1.268136e-05 -4.792738e-22
-7.009315e-06 -1.449492e-05 1.849864e-06
-6.513596e-06 -1.731761e-05 8.482472e-07
-1.556910e-05 2.890539e-06 1.735689e-06
-1.147067e-05 -1.167952e-05 -1.921797e-06
-1.682251e-05 4.590755e-07 1.954709e-06
-1.326943e-05 -8.871765e-06 1.796043e-06
1.253401e-05 -1.215484e-05 -1.819103e-06
1.838653e-05 -2.067767e-06 8.474664e-07
-4.391395e-06 1.621705e-05 1.955788e-06
1.604137e-05 -6.822517e-06 -1.829870e-06
1.439241e-05 -1.193228e-05 -4.792738e-22
5.313890e-06 -1.381912e-05 -3.035030e-07
-1.659043e-05 -6.773083e-06 1.560175e-06
-1.105687e-06 1.548091e-05 1.531222e-06
-1.359531e-05 -7.805509e-06 -1.643512e-06
1.262200e-05 -1.357389e-05 -7.748784e-07
3.801785e-06 1.446616e-05 -8.099051e-07
-3.293419e-07 -1.487187e-05 -5.979707e-07
1.286823e-05 -1.218517e-05 1.691770e-06
1.335165e-05 -6.361450e-06 1.741599e-07
3.349391e-06 1.517024e-05 -1.543224e-06
1.500708e-05 -1.114937e-05 -4.792738e-22
7.876587e-06 -1.349357e-05 -1.608421e-06
1.243005e-06 1.480701e-05 5.441414e-07
1.329083e-05 1.292441e-05 7.672583e-07
1.485027e-05 -9.674874e-06 -1.690721e-06
1.622516e-05 -6.620747e-06 1.792295e-06
1.815152e-05 -3.704824e-06 7.971381e-07
8.369499e-06 1.218707e-05 -9.506994e-08
1.638451e-05 -2.356521e-06 1.947963e-06
1.577059e-05 3.143749e-06 1.842902e-06
8.096506e-06 1.477835e-05 1.953564e-06
1.557920e-05 -1.033486e-05 -4.792738e-22
-9.370589e-06 1.488836e-05 -1.761028e-06
1.454779e-05 -1.146802e-05 -8.001502e-07
-6.542671e-06 -1.410887e-05 -1.555931e-06
1.322824e-05 -7.508534e-06 1.222355e-06
-1.088153e-05 1.009489e-05 -4.850982e-07
-1.498334e-05 8.194114e-06 -1.927214e-06
-1.361223e-05 -6.975715e-06 -1.321475e-06
-1.436575e-05 5.539067e-06 -1.424031e-06
1.523673e-05 9.083031e-06 1.681996e-06
-1.736921e-05 2.373184e-06 1.789389e-06
1.610716e-05 -9.491054e-06 -4.792738e-22
-8.866120e-06 1.191442e-05 5.165327e-07
4.873718e-06 1.531297e-05 -1.838927e-06
1.292189e-05 1.178101e-05 1.808377e-06
1.435307e-05 6.868385e-06 -1.773485e-06
-1.016277e-05 1.551773e-05 7.417453e-07
-1.476355e-05 -1.048513e-06 2.707547e-07
5.159276e-06 1.538707e-05 1.889233e-06
5.885757e-06 -1.757857e-05 -7.696768e-07
-1.440874e-05 -1.163167e-05 8.148026e-07
2.769678e-06 1.601439e-05 1.895327e-06
1.610716e-05 9.491054e-06 -4.792738e-22
1.658947e-05 -8.620344e-06 -4.792738e-22
9.651087e-06 -1.581264e-05 -7.983715e-07
6.349078e-06 -1.737178e-05 8.614359e-07
6.474701e-06 -1.636515e-05 1.757309e-06
-7.504273e-06 -1.605702e-05 1.690583e-06
-1.125491e-05 -1.385192e-05 1.612013e-06
-5.312271e-06 -1.381828e-05 -2.946889e-07
1.708645e-05 -4.024159e-06 1.778870e-06
6.232234e-06 -1.406779e-05 -1.414388e-06
-1.319947e-05 1.300824e-05 -7.826518e-07
-1.400584e-05 1.066510e-05 1.754962e-06
1.702475e-05 -7.725199e-06 -4.792738e-22
-7.741127e-06 -1.408715e-05 -1.840423e-06
1.266519e-05 8.322029e-06 1.148822e-06
1.508189e-05 6.849205e-06 1.948995e-06
-1.614862e-05 9.041325e-06 -8.370856e-07
-3.435368e-08 -1.699918e-05 -1.939364e-06
-7.970429e-06 1.539599e-05 1.863137e-06
-1.025828e-05 -1.546377e-05 -7.231486e-07
1.619460e-05 7.762463e-06 1.529763e-06
1.411839e-05 6.999799e-06 1.693506e-06
2.423197e-06 -1.504564e-05 1.257577e-06
1.741177e-05 -6.808156e-06 -4.792738e-22
-1.275990e-05 7.477215e-06 -1.700558e-07
8.487077e-06 -1.296827e-05 1.513660e-06
-2.739854e-06 1.561166e-05 1.743470e-06
-1.524576e-07 1.748256e-05 -1.809607e-06
-1.367217e-05 7.188980e-06 -1.469871e-06
1.073544e-05 -1.023946e-05 4.553902e-07
1.119009e-05 1.013254e-05 1.063141e-06
-4.054682e-06 -1.811374e-05 -7.102990e-07
-9.202827e-06 -1.535384e-05 -1.574456e-06
1.468277e-05 3.692494e-06 1.128292e-06
1.774944e-05 -5.871814e-06 -4.792738e-22
-1.011984e-05 1.088499e-05 5.558321e-07
1.199100e-05 9.401905e-06 -1.255103e-06
-1.268732e-05 -7.624415e-06 -2.798140e-07
-1.711969e-05 4.101535e-06 1.754987e-06
2.137560e-06 -1.598003e-05 -1.857185e-06
-1.073858e-05 1.433752e-05 1.565124e-06
1.100726e-05 -1.490250e-05 7.946481e-07
1.093352e-05 1.359831e-05 1.823444e-06
-3.907138e-06 -1.439113e-05 -7.017868e-07
7.520244e-06 1.431444e-05 -1.872213e-06
1.803680e-05 -4.918828e-06 -4.792738e-22
8.662847e-06 -1.532127e-05 -1.756662e-06
-4.038473e-06 1.809126e-05 -7.725115e-07
-1.454728e-05 1.150766e-05 -7.438732e-07
-1.173659e-05 1.075478e-05 -1.776801e-06
2.001509e-06 -1.737202e-05 1.808073e-06
-1.444252e-05 -4.249378e-06 -9.965638e-07
-5.763768e-06 1.761779e-05 -7.722305e-07
9.776230e-06 -1.188493e-05 1.416953e-06
-1.714310e-05 -4.170427e-06 1.735248e-06
-8.156886e-06 -1.660456e-05 8.527481e-07
1.827302e-05 -3.951899e-06 -4.792738e-22
-1.818473e-05 -3.641858e-06 -7.505361e-07
6.872885e-06 1.721500e-05 -7.731481e-07
-3.374610e-06 -1.819987e-05 8.313598e-07
-1.444073e-05 3.344555e-06 3.988023e-07
2.942559e-06 1.449198e-05 -1.504751e-07
-3.418648e-06 1.455420e-05 7.941607e-07
-1.647173e-05 -5.773119e-07 1.939854e-06
-1.283439e-06 -1.476197e-05 -3.723252e-07
1.841908e-05 -1.835285e-06 -8.309364e-07
1.259291e-05 -1.364114e-05 7.023612e-07
1.845745e-05 -2.973768e-06 -4.792738e-22
1.740837e-05 -6.368988e-06 7.717404e-07
1.752416e-05 -3.009194e-06 -1.656304e-06
1.120089e-05 1.358756e-05 -1.752519e-06
1.490144e-05 -5.020154e-06 1.673348e-06
3.399189e-06 -1.819524e-05 -8.314926e-07
-1.666684e-05 -5.260511e-06 1.812026e-06
1.395827e-05 1.066026e-05 -1.774483e-06
-1.748482e-05 -6.164474e-06 -7.651526e-07
-1.405647e-05 -1.207921e-05 -7.794621e-07
1.053750e-05 -1.086232e-05 1.119377e-06
1.858956e-05 -1.987207e-06 -4.792738e-22
1.831728e-06 1.576000e-05 -1.751449e-06
8.654492e-07 -1.516562e-05 1.196434e-06
-1.339774e-05 -9.212453e-06 -1.897183e-06
-1.080627e-05 -1.015580e-05 -4.291738e-07
9.031473e-06 1.215998e-05 1.138259e-06
-1.167671e-05 -1.271383e-05 1.885428e-06
-1.562322e-05 -5.394318e-06 1.945437e-06
9.944669e-06 1.109457e-05 6.672715e-07
-3.531396e-06 1.519920e-05 1.594240e-06
-1.578338e-05 -8.174991e-06 1.659928e-06
1.866898e-05 -9.950140e-07 -4.792738e-22
7.628077e-06 -1.462918e-05 -1.941986e-06
-1.463449e-05 -2.624821e-06 5.740829e-07
1.536695e-05 3.622266e-06 -1.710371e-06
-1.125701e-05 -1.086678e-05 -1.623488e-06
8.213349e-06 -1.660271e-05 -8.028242e-07
8.234484e-06 1.363253e-05 -1.780254e-06
1.337295e-05 -8.801490e-06 1.815817e-06
-9.374072e-06 1.511009e-05 1.655653e-06
2.641442e-06 -1.670914e-05 -1.948676e-06
2.649960e-06 -1.464558e-05 -6.219677e-07
1.847134e-05 -4.524173e-21 9.093628e-07
-1.517036e-05 -1.068834e-05 -7.218046e-07
1.060246e-05 -1.161432e-05 -1.674304e-06
1.850871e-05 -8.233336e-07 7.942955e-07
-1.722565e-05 -4.280785e-06 -1.675433e-06
8.849521e-06 1.519787e-05 1.763527e-06
3.600326e-06 -1.701807e-05 1.843531e-06
-5.110034e-06 1.478945e-05 1.624198e-06
-1.532539e-05 -9.025645e-06 1.653134e-06
1.591078e-05 2.103381e-06 -1.831288e-06
1.167123e-05 -1.309544e-05 1.784470e-06
1.557920e-05 1.033486e-05 -4.792738e-22
1.785027e-05 -4.372056e-21 1.610402e-06
-1.670617e-05 5.345733e-06 1.784918e-06
-1.530677e-06 -1.710660e-05 -1.907535e-06
9.280195e-06 1.220775e-05 -1.362951e-06
1.551791e-05 9.035759e-07 -1.549894e-06
-6.525428e-06 1.736464e-05 -7.397550e-07
-1.506075e-05 4.222778e-06 -1.620273e-06
1.184339e-05 -1.288510e-05 -1.802110e-06
1.014055e-05 -1.431514e-05 1.783877e-06
-1.189474e-05 -1.018828e-05 -1.633671e-06
-1.399714e-05 4.908824e-06 4.440062e-07
1.697456e-05 -4.157568e-21 1.942517e-06
-1.562453e-05 -1.940431e-06 -1.685441e-06
1.558771e-05 -8.308689e-06 1.724276e-06
-1.493039e-05 -6.729772e-06 -1.923066e-06
1.519453e-05 1.065405e-05 7.216563e-07
3.474932e-06 -1.458402e-05 8.826590e-07
1.125374e-05 1.469702e-05 -8.298877e-07
1.668859e-05 -7.321487e-07 1.956488e-06
[...]
POINT_DATA 1683
VECTORS 10.000GHz_fone_imag double
6.050002e-05 -3.206684e-04 2.060700e-02
5.469454e-04 -6.903720e-04 2.091893e-02
-3.048016e-04 4.989649e-04 2.237753e-02
2.664015e-02 -2.017523e-03 8.549084e-03
1.966497e-03 -2.428734e-02 1.135716e-02
-2.371375e-02 -2.469333e-03 -3.863735e-02
2.691627e-02 -2.267555e-02 -1.227221e-02
-1.574760e-03 9.248713e-03 2.109336e-02
-9.638108e-03 -2.863956e-03 2.016684e-02
6.752764e-03 6.099387e-03 1.981566e-02
2.609863e-02 1.894597e-02 -1.634008e-02
-1.020361e-03 -3.032685e-02 -1.599460e-02
-3.354291e-03 -1.809726e-02 -4.046992e-02
-1.757803e-04 4.371808e-04 2.207478e-02
8.930881e-03 2.475726e-03 -4.746359e-02
8.315443e-03 4.374851e-03 1.883404e-02
-9.086569e-03 -4.550467e-03 1.833622e-02
1.393886e-02 -1.120872e-02 -3.863152e-02
4.204895e-03 2.250400e-02 1.123174e-02
9.403930e-03 -1.381163e-02 -4.448798e-02
-2.325323e-03 9.062153e-03 1.839638e-02
7.626404e-04 -2.260982e-03 -4.837659e-02
4.339892e-03 2.633851e-02 1.025218e-02
2.096464e-02 2.738513e-02 -1.145684e-02
-6.603577e-04 -2.962661e-04 2.154681e-02
7.108551e-04 3.351288e-02 -2.001781e-02
-1.626919e-02 1.025622e-02 -4.082577e-02
-3.281373e-03 -8.555880e-03 2.061197e-02
2.163997e-02 2.700674e-03 1.239658e-02
1.162479e-02 -2.581390e-02 8.283284e-03
-6.346177e-03 7.914539e-03 2.095451e-02
9.425885e-03 -4.654613e-03 2.038818e-02
2.212047e-02 -1.435398e-02 -3.571108e-02
-8.313891e-03 -4.244086e-03 1.999945e-02
-1.027752e-03 -1.219048e-02 -4.565845e-02
6.755769e-04 3.090539e-04 2.140342e-02
-4.530761e-03 -6.540276e-03 1.948557e-02
-1.398724e-03 2.601427e-02 9.864124e-03
-9.395680e-03 -4.809387e-03 2.013503e-02
-2.321241e-02 -2.065383e-02 -1.616251e-03
5.063672e-03 7.714657e-03 2.073309e-02
2.177489e-02 8.743951e-04 1.043844e-02
1.310651e-02 2.011333e-02 8.085165e-03
-7.121044e-04 -7.875377e-03 1.891018e-02
1.052739e-02 3.307325e-03 -4.180353e-02
8.046033e-03 4.847420e-03 1.917199e-02
-7.184138e-04 -8.285633e-04 2.075602e-02
-3.221451e-02 7.548247e-03 -4.207307e-03
-6.170777e-03 -8.099188e-03 1.896103e-02
-3.152640e-02 -9.407467e-03 -1.922088e-03
-3.762812e-03 8.168279e-03 -4.282772e-02
-4.850627e-04 3.332635e-02 -3.411157e-03
9.476120e-03 5.503224e-03 2.057926e-02
2.492414e-02 -1.376635e-02 7.037680e-03
-1.413445e-02 8.515636e-03 -4.341946e-02
-2.452650e-04 9.692648e-03 2.037788e-02
2.002471e-02 -6.799395e-03 1.252472e-02
9.736585e-04 3.264471e-04 2.078038e-02
1.425931e-02 3.098405e-02 -1.234218e-02
3.664577e-03 9.241467e-03 2.078066e-02
3.069277e-02 -6.290045e-03 -1.763376e-02
-2.252398e-02 -2.497335e-02 -8.098550e-03
3.086438e-02 -1.787670e-03 -2.128729e-03
2.883854e-02 1.760666e-02 -1.692987e-02
1.812505e-02 -1.808192e-02 7.008627e-03
-9.782824e-03 5.368495e-04 1.913800e-02
8.684083e-03 -2.905614e-02 1.087683e-03
2.225860e-02 -9.627615e-03 7.541820e-03
-3.266472e-04 7.238669e-04 2.168113e-02
3.700800e-03 -7.970990e-03 -4.681918e-02
1.789262e-02 7.247145e-03 1.170261e-02
2.099486e-03 -2.841896e-02 -2.544956e-02
-2.932012e-02 -1.673756e-02 -2.291428e-02
5.937186e-03 -6.406386e-03 2.033545e-02
4.734131e-03 1.799102e-02 -4.162236e-02
-7.284255e-04 -1.366786e-02 -4.233065e-02
-1.627640e-02 1.541986e-02 1.181332e-02
-3.364920e-03 2.259757e-03 -4.708574e-02
5.620991e-03 2.893689e-02 -2.224271e-02
-2.273512e-04 -1.197820e-03 2.144804e-02
1.667651e-02 -2.872090e-02 -2.143357e-02
-1.546138e-03 -1.276183e-02 -4.513869e-02
-7.810121e-03 -6.571151e-03 1.959884e-02
1.966208e-02 -1.295772e-02 1.265512e-02
-2.362051e-02 1.055382e-02 9.994211e-03
-7.900794e-03 1.760044e-03 1.823326e-02
2.156769e-03 1.158276e-03 -4.791014e-02
-3.363497e-02 3.948769e-03 -6.562760e-03
-3.330035e-02 -5.884802e-03 -1.225938e-02
-1.528860e-02 -2.788365e-02 1.279820e-03
4.992542e-04 -2.991726e-04 2.190187e-02
-1.353711e-02 2.156905e-02 1.029034e-02
7.124986e-03 -5.839097e-03 2.036800e-02
-1.337813e-02 -3.096078e-02 -2.333305e-02
-2.318380e-02 1.222943e-02 -3.516834e-02
-8.375196e-03 7.472030e-03 -4.646873e-02
-2.555899e-02 1.507921e-02 2.602111e-03
-2.454050e-02 -1.251639e-02 -3.378811e-02
-2.822776e-02 1.003618e-02 -2.588665e-02
-1.985200e-02 -1.163494e-02 1.306281e-02
2.494685e-02 -2.717889e-03 1.002610e-02
1.859351e-04 9.034600e-04 2.177517e-02
6.100751e-03 -9.758832e-03 -4.574693e-02
1.054192e-02 3.238934e-02 -1.501785e-02
-1.818591e-02 -1.852058e-02 8.920637e-03
3.190308e-02 1.502945e-02 -1.643315e-02
4.777153e-03 -6.995726e-03 2.112284e-02
8.282145e-03 5.658719e-04 -4.457749e-02
-1.121090e-02 -3.330043e-02 -1.003617e-02
4.029015e-03 -8.193315e-03 1.984327e-02
7.191595e-03 5.847041e-03 2.038957e-02
-5.959093e-03 -3.403056e-02 -1.083004e-02
8.116542e-04 5.589899e-04 2.134072e-02
-3.004247e-04 3.806986e-04 2.185047e-02
4.676717e-03 -8.771826e-03 2.004785e-02
-4.255632e-03 8.093718e-03 1.933953e-02
-9.083261e-03 2.327981e-02 1.097564e-02
1.052725e-02 2.166921e-02 1.279071e-02
1.338261e-02 1.684866e-02 1.245783e-02
-5.147608e-04 -5.494485e-03 -4.267629e-02
-2.609895e-02 5.670358e-03 1.010349e-02
1.139233e-02 -2.554972e-02 -2.947035e-02
-6.374201e-03 5.653285e-03 1.793057e-02
2.052307e-02 -1.492251e-02 1.070090e-02
-9.658949e-04 6.464309e-05 2.009454e-02
-1.651206e-02 -3.086103e-02 -1.467954e-02
-2.190265e-02 -1.207107e-02 -3.622425e-02
-2.935306e-02 -1.180751e-02 -2.416922e-03
-8.581760e-03 5.040385e-03 1.900497e-02
-1.381091e-03 -2.998438e-02 3.319093e-03
1.237556e-02 -2.384785e-02 6.262259e-03
-4.685618e-03 -7.051610e-03 1.851630e-02
-1.839004e-02 -9.110538e-03 1.582375e-02
-2.970570e-02 -1.569466e-02 -2.017174e-02
-4.415402e-03 2.749563e-02 -3.267279e-02
-1.427107e-03 -8.339915e-06 1.951421e-02
-3.819071e-03 4.886389e-04 -4.571119e-02
-1.755071e-02 2.602016e-02 -2.449513e-02
5.840267e-03 -3.413799e-02 -1.784358e-02
-1.499278e-03 2.409218e-02 8.585794e-03
-2.552489e-02 1.168036e-02 -2.796345e-02
-8.448100e-03 7.286967e-03 -4.678322e-02
-1.777239e-02 -1.578437e-02 -3.761203e-02
-1.229129e-03 -7.158779e-03 1.874768e-02
-9.710540e-03 -1.691498e-02 1.413812e-02
-2.041440e-02 -5.473179e-03 -3.407440e-02
4.521032e-05 9.480628e-04 2.024210e-02
8.779303e-03 -8.154274e-03 -4.609321e-02
2.133084e-02 1.721877e-02 -3.272212e-02
-5.014114e-03 -3.265727e-03 -4.221129e-02
2.279855e-02 -5.239392e-03 9.895675e-03
4.281923e-03 -3.414636e-02 -1.234775e-02
1.186589e-02 -1.601222e-02 1.303237e-02
-4.774419e-03 6.326140e-03 1.847113e-02
-1.622147e-02 -2.039745e-02 9.591244e-03
-3.724068e-03 -1.445031e-02 -4.436138e-02
1.469723e-02 2.877346e-02 -1.074820e-02
-1.075571e-03 -1.478986e-04 2.042450e-02
1.214813e-02 -2.135334e-02 1.074274e-02
-1.730073e-03 8.757262e-03 2.092731e-02
-6.731636e-03 5.635528e-03 2.027325e-02
-2.299761e-02 2.088639e-02 -1.470743e-02
-1.883761e-03 2.556145e-02 9.419216e-03
-2.250064e-02 -7.927864e-03 -3.810750e-02
-3.773333e-03 8.183444e-03 1.984524e-02
-1.765603e-02 2.382573e-02 -3.037378e-02
2.470225e-02 5.903897e-03 1.135346e-02
3.390781e-03 8.880156e-03 1.939220e-02
-3.359936e-04 4.633165e-05 2.165390e-02
-8.800442e-03 -2.547499e-03 2.096743e-02
3.015541e-03 7.647568e-03 1.894768e-02
1.419497e-03 9.332843e-03 1.840958e-02
9.886844e-03 -2.388901e-03 -4.120585e-02
8.910631e-04 1.827657e-03 -4.871145e-02
3.773789e-03 -1.476266e-02 -4.163144e-02
3.306541e-02 2.200489e-03 -4.716316e-03
-1.508615e-04 -8.249268e-03 -4.816956e-02
8.752727e-03 -7.929442e-04 2.003604e-02
-5.226381e-03 5.772971e-03 2.005776e-02
-4.841075e-04 2.152593e-05 2.185165e-02
-8.078612e-03 2.809935e-03 2.046159e-02
2.049876e-02 -3.399467e-03 1.281932e-02
1.522139e-02 1.757997e-02 1.172532e-02
-2.939771e-02 1.087923e-02 -2.283842e-02
9.836424e-04 -9.055747e-03 2.061137e-02
2.601088e-02 8.536249e-03 9.906265e-03
2.005776e-02 1.546022e-02 1.041614e-02
-9.437707e-03 -3.420771e-03 2.051228e-02
-7.249890e-03 -5.577633e-03 2.069232e-02
-1.828826e-02 1.616643e-02 -3.378016e-02
7.789580e-04 -6.634398e-04 2.022077e-02
5.406892e-03 3.006375e-02 -1.734767e-02
-2.257845e-03 2.372790e-02 -3.066852e-02
-2.829915e-02 -1.753106e-02 -9.317465e-03
-7.366490e-03 -6.976340e-03 -4.637302e-02
-1.666234e-02 -1.998391e-02 -3.565792e-02
1.896977e-02 2.058964e-02 7.572230e-03
2.914450e-02 1.138078e-02 -6.606019e-03
-1.051174e-02 -1.052590e-02 -3.972886e-02
6.538981e-03 -3.215545e-02 -2.591281e-02
2.089782e-02 9.663928e-03 1.238548e-02
-7.506547e-04 2.964045e-04 1.930930e-02
1.371479e-02 -2.734235e-02 -5.895427e-03
1.139863e-02 1.377306e-03 -4.157012e-02
3.311177e-02 7.289895e-03 -2.098314e-02
-2.160629e-02 -2.066320e-02 -2.216801e-02
4.122833e-03 -7.274117e-03 1.867046e-02
1.688127e-02 2.619850e-02 -1.681615e-02
-2.796762e-02 1.683194e-02 -1.604620e-02
1.205681e-02 -1.928991e-02 1.077068e-02
4.184340e-03 -2.784165e-02 1.368270e-03
2.153291e-03 -1.462856e-02 -3.947761e-02
-1.072142e-02 1.080460e-03 2.001777e-02
-5.951753e-03 -5.561920e-03 2.024416e-02
2.260503e-02 -2.378747e-02 -2.361563e-02
-8.964562e-03 4.767185e-04 2.034114e-02
-2.254501e-02 -5.361692e-03 1.155969e-02
-1.143983e-02 -2.198043e-02 9.354880e-03
-4.373128e-03 2.576693e-02 9.643302e-03
8.939575e-03 -2.927900e-02 -2.309226e-02
1.795748e-02 1.176640e-02 1.167968e-02
3.412037e-02 5.191434e-03 -1.492251e-02
-1.588318e-02 1.706728e-02 1.003791e-02
2.516281e-04 4.059119e-04 2.184106e-02
-2.161851e-02 -1.750446e-04 1.346115e-02
2.529580e-02 -7.118491e-03 9.481170e-03
-2.289757e-03 -2.814799e-02 6.113124e-03
1.613448e-02 2.045225e-02 -2.830309e-02
2.809899e-02 3.127060e-04 -2.589172e-02
-1.582096e-03 7.274587e-03 1.988950e-02
-2.811128e-02 8.106585e-03 -2.102006e-02
1.604043e-02 -1.815260e-02 8.724564e-03
-1.455072e-02 2.157880e-02 9.429796e-03
-2.434107e-02 -2.165505e-02 -2.319737e-02
1.140491e-02 -3.228233e-03 -4.487637e-02
-2.923698e-02 -1.069860e-03 3.390431e-03
-3.006272e-02 -4.413050e-03 -2.014969e-02
-2.151521e-02 1.101837e-02 1.233813e-02
-3.101573e-02 -1.419844e-02 -7.493450e-03
-6.419463e-03 -5.594925e-03 2.005027e-02
-3.388327e-03 1.861755e-02 -4.250512e-02
6.448575e-03 8.735154e-03 2.063197e-02
-3.108922e-02 2.201735e-03 -5.742909e-04
1.251953e-02 3.062191e-02 -9.369653e-03
-2.345888e-02 -7.011269e-03 1.140427e-02
1.202241e-02 1.607797e-02 -3.822013e-02
-3.321378e-02 4.611954e-04 -1.614986e-02
1.154611e-02 1.693413e-02 1.140010e-02
-8.563701e-03 -1.098310e-03 2.017612e-02
-1.162837e-02 -1.640626e-02 1.526262e-02
-6.635571e-04 9.488573e-03 1.845808e-02
1.239576e-02 2.179722e-02 1.115937e-02
6.572951e-03 2.066159e-02 1.178528e-02
1.441040e-02 -2.854545e-02 -1.982656e-02
-3.447427e-03 -8.927579e-03 1.868421e-02
1.027981e-02 -1.819495e-02 -3.872531e-02
-1.312640e-02 2.317388e-02 -2.693978e-02
-2.786214e-02 9.036801e-04 -3.088567e-02
-8.595565e-03 3.109923e-02 -1.367367e-02
2.387181e-02 6.498133e-03 -3.072146e-02
2.488799e-02 1.202884e-02 -2.809468e-02
4.074698e-03 8.451960e-03 1.828800e-02
-2.217830e-02 -2.432264e-02 -1.613079e-02
8.757938e-03 2.679048e-02 -6.104054e-04
-2.071589e-02 -1.402404e-03 -3.558065e-02
8.604179e-03 1.577681e-03 1.903415e-02
5.323764e-03 -4.910974e-03 1.887012e-02
-9.097322e-03 3.738043e-03 -4.729381e-02
-9.802956e-03 -2.098629e-03 -4.638282e-02
2.321359e-02 -1.161134e-02 -3.068630e-02
-2.154019e-02 -1.358305e-02 8.788153e-03
-2.277221e-02 1.822471e-02 -3.081499e-02
5.043591e-03 5.776388e-03 1.927945e-02
4.918751e-03 6.277672e-03 2.104973e-02
3.229783e-02 1.389218e-02 -1.573546e-02
-4.524060e-03 -2.078110e-02 1.113732e-02
1.730277e-02 1.287599e-02 1.402812e-02
-5.157822e-03 6.818221e-03 1.799728e-02
-4.439810e-03 4.736010e-03 1.899278e-02
1.087746e-02 1.023459e-04 -4.273323e-02
6.538104e-03 3.285395e-02 -4.840053e-03
1.918335e-02 1.696215e-02 1.043563e-02
1.347625e-02 2.827153e-02 1.632829e-03
1.668173e-03 -8.742593e-03 2.037023e-02
2.991194e-02 4.073463e-03 -2.979615e-02
-7.749503e-03 4.161406e-03 1.848451e-02
-3.067110e-03 -7.116330e-03 1.976945e-02
-8.945922e-03 -2.995947e-02 -2.167735e-02
1.506137e-02 -1.592374e-02 -3.940467e-02
-5.107321e-03 2.401861e-02 1.089662e-02
2.568902e-02 2.004420e-03 -3.425454e-02
5.629356e-03 -2.002855e-02 1.132931e-02
1.396117e-02 -1.594305e-02 -4.052477e-02
-6.359855e-04 9.737437e-03 2.028398e-02
3.011241e-02 -6.861094e-03 -2.654700e-02
1.577236e-02 6.134806e-03 -4.200335e-02
-6.027741e-04 1.772325e-02 -4.202841e-02
-1.545113e-02 -1.422675e-02 1.438674e-02
-9.473810e-03 3.177551e-02 -2.326659e-02
3.103787e-02 -7.272154e-03 -8.810177e-04
6.803286e-03 5.019817e-03 2.096225e-02
3.407560e-02 -1.059989e-03 -1.323667e-02
1.456325e-02 1.727655e-02 -3.582838e-02
-1.079265e-02 -2.737295e-02 -1.294320e-03
9.042685e-03 2.274176e-02 1.205988e-02
-1.005187e-02 3.233944e-02 -1.606141e-02
2.115032e-02 -2.028811e-03 1.258372e-02
7.057589e-03 -5.365063e-03 1.887234e-02
-1.757805e-02 -2.481072e-02 -2.657689e-02
1.263850e-02 9.518377e-04 -4.481119e-02
-2.022013e-02 -1.511551e-02 1.110167e-02
-3.017930e-02 1.306215e-02 -2.188427e-02
2.945437e-02 -8.558561e-05 1.022201e-03
2.818616e-03 -6.073433e-03 2.018408e-02
1.485586e-02 -1.279552e-02 1.552321e-02
1.905878e-02 -1.203123e-02 -3.879063e-02
-2.403996e-02 7.161890e-03 9.158612e-03
8.662882e-03 -4.729026e-04 2.087655e-02
7.057312e-03 3.230504e-03 1.964896e-02
-2.310798e-02 2.223257e-02 -1.697486e-02
-1.104424e-02 1.986725e-02 9.797870e-03
8.383911e-03 -4.207595e-03 2.080283e-02
2.227873e-02 -2.237654e-02 1.543886e-03
2.244304e-02 5.863161e-04 1.385841e-02
-2.287483e-02 4.216557e-03 -3.820862e-02
1.917873e-02 1.825788e-02 -3.530856e-02
2.510124e-03 -8.877670e-03 2.067745e-02
1.656924e-02 -2.581898e-02 3.029342e-03
3.268060e-02 6.517366e-03 -2.250146e-02
-1.740981e-02 -2.710966e-02 -3.095631e-03
2.200389e-02 -2.345129e-03 1.428842e-02
1.314620e-02 2.887745e-02 -2.572702e-02
-5.472960e-03 -3.347880e-02 -6.692764e-03
-8.977066e-03 -2.263733e-02 6.578494e-03
-5.490103e-04 4.113733e-04 2.028058e-02
1.053691e-02 -6.646286e-04 1.914847e-02
2.358976e-02 2.154710e-02 -7.164243e-03
-7.773711e-03 5.891770e-03 2.056904e-02
1.821126e-02 -2.916824e-02 -1.170612e-02
-2.036506e-02 -1.046554e-03 1.157711e-02
-1.831130e-02 -6.876858e-03 1.342049e-02
7.348906e-03 7.012828e-04 2.000088e-02
4.615366e-04 -2.373532e-02 1.216239e-02
1.903289e-02 -4.596000e-03 1.365498e-02
9.122940e-03 3.306354e-02 -9.398215e-03
7.378804e-04 -1.560267e-02 -4.373022e-02
6.687706e-04 5.981650e-03 -4.551024e-02
3.382446e-03 -7.493536e-03 1.865932e-02
2.828587e-02 -1.724063e-02 -7.887869e-03
-2.048749e-02 1.080053e-02 1.348808e-02
1.950031e-02 -9.520647e-03 1.402955e-02
-7.171602e-03 3.197306e-03 2.045011e-02
6.769323e-03 -5.225647e-03 2.103220e-02
1.171002e-02 1.964678e-02 1.041438e-02
-1.687533e-02 -2.478246e-02 -3.096881e-02
3.114683e-02 -1.020779e-02 -2.750666e-03
1.880927e-02 6.606785e-03 1.409437e-02
-1.236666e-02 2.727770e-02 -2.440886e-02
-1.872953e-02 -2.723433e-02 -2.195584e-02
-2.775111e-02 -1.438291e-02 -4.354568e-03
6.848968e-03 -1.883902e-03 2.104113e-02
-3.266571e-02 9.021114e-05 -2.133022e-02
-1.092500e-02 1.534648e-02 1.629707e-02
1.516036e-03 -8.396942e-03 1.840269e-02
8.159577e-03 -5.828935e-04 2.065612e-02
-2.002569e-02 3.423162e-03 1.512237e-02
1.521902e-02 -1.909379e-02 1.179038e-02
-8.629585e-04 -8.308817e-03 1.816334e-02
-2.354663e-02 -2.514775e-02 -5.627539e-03
-1.300868e-03 2.486332e-03 -4.746552e-02
2.934846e-02 1.668392e-02 -1.496472e-02
7.519493e-03 8.083411e-04 2.101150e-02
1.381463e-02 -1.269517e-02 1.633443e-02
1.043199e-03 -7.730023e-04 -4.435627e-02
1.310748e-03 8.526388e-03 2.007312e-02
-2.288177e-02 3.988479e-03 1.403739e-02
-4.646834e-03 7.855471e-03 1.907717e-02
-2.204222e-02 3.533669e-03 -3.984084e-02
8.878251e-03 -3.344377e-02 -1.462161e-02
2.376572e-02 -1.794201e-02 2.009753e-03
-2.067094e-02 1.251851e-02 9.305818e-03
1.962154e-02 -5.969828e-03 -3.662984e-02
1.441594e-03 2.429859e-02 1.212840e-02
1.044366e-03 2.498430e-02 1.128410e-02
2.741002e-03 -3.017537e-02 -2.928366e-02
6.019034e-04 -1.028406e-02 1.969747e-02
-7.922842e-03 5.048531e-03 -4.675728e-02
-3.128993e-03 -2.952566e-02 -2.918273e-02
4.470017e-03 6.835647e-03 2.118894e-02
-2.359185e-02 9.326508e-03 1.087659e-02
3.290634e-03 2.571757e-02 1.068851e-02
-2.809297e-03 -2.468408e-03 -4.674339e-02
-8.231135e-03 -2.785657e-04 2.035470e-02
2.958959e-03 9.944330e-03 -4.527601e-02
-1.716251e-02 -2.461700e-02 -6.389173e-03
2.959307e-02 -1.829633e-04 -1.164887e-03
-2.342084e-02 2.196617e-02 -2.198281e-03
2.490383e-02 -1.421916e-02 3.940953e-03
3.128501e-02 -1.116954e-02 -2.079014e-02
5.202481e-04 1.546595e-03 -4.342575e-02
-2.010954e-03 1.893785e-02 1.562532e-02
6.871382e-03 6.920393e-03 2.103314e-02
-2.045141e-02 -2.049664e-02 5.961322e-03
-1.538383e-02 -1.189539e-02 1.605897e-02
3.088871e-02 -1.473829e-03 -2.989975e-02
-8.531476e-03 2.598574e-03 2.047569e-02
3.619061e-03 -1.084097e-02 -4.613266e-02
2.189677e-02 2.331377e-02 2.669748e-03
-1.830450e-02 -6.854150e-03 1.550407e-02
2.088897e-02 1.815953e-04 1.446833e-02
1.781564e-02 -1.495304e-02 -3.747097e-02
9.336086e-03 -1.810801e-02 1.575287e-02
1.497535e-02 1.271559e-03 1.853433e-02
2.352810e-03 -3.135047e-02 -8.825757e-03
-8.069810e-03 -1.265152e-02 -3.937796e-02
1.997900e-02 -2.434759e-02 1.796674e-07
-3.204393e-02 -7.578491e-03 -4.662439e-03
2.171905e-02 2.659773e-03 -3.625293e-02
2.627390e-02 4.933817e-03 3.811221e-03
-1.586858e-02 -1.164225e-02 1.623263e-02
-1.345085e-04 1.644309e-03 -4.562492e-02
4.958687e-03 -6.286069e-03 1.897723e-02
-6.837221e-03 2.955356e-02 3.011892e-03
1.519996e-02 5.180507e-03 -4.418322e-02
-2.033278e-02 4.036370e-03 1.216570e-02
-2.697513e-02 -1.778987e-02 -1.030833e-02
-2.868459e-02 -1.160863e-03 -2.697424e-02
-1.350943e-02 2.560210e-02 -9.458680e-04
-9.428916e-03 2.754341e-02 -3.042553e-02
1.372569e-02 -3.268042e-03 -4.444444e-02
9.719515e-03 2.175541e-02 1.269726e-02
1.422888e-02 1.836624e-02 9.993322e-03
-7.347612e-04 6.486331e-03 -4.438114e-02
7.602001e-03 -1.821539e-02 1.332385e-02
4.177662e-03 5.944904e-03 -4.403251e-02
-3.073865e-03 5.345376e-03 1.949013e-02
1.556380e-02 -2.617970e-03 -4.333319e-02
-9.416696e-03 5.543644e-03 -4.601292e-02
-1.751559e-02 1.199176e-02 1.264273e-02
7.350799e-03 -3.250367e-02 -5.950071e-03
2.625903e-02 -7.631058e-04 -3.043420e-02
2.719108e-02 1.397829e-02 3.857380e-04
-4.522904e-03 5.272319e-03 1.882625e-02
-1.990858e-02 7.447749e-03 1.434478e-02
-5.391374e-03 -2.980002e-02 3.140826e-03
-1.071827e-03 -1.409396e-03 2.079944e-02
2.734283e-02 1.476799e-02 -4.898470e-03
1.203236e-02 -1.247755e-02 -3.844831e-02
2.109526e-02 1.497549e-02 -3.249065e-02
-3.566897e-03 5.176561e-03 -4.420309e-02
2.782528e-02 -2.052388e-02 -7.548897e-03
-1.055363e-02 -2.817029e-02 1.818152e-03
2.472686e-04 -5.691072e-03 -4.670227e-02
6.789171e-03 1.522696e-03 1.983619e-02
-2.009823e-02 -1.094543e-02 1.308171e-02
-2.443239e-03 2.316691e-02 -3.456552e-02
2.104008e-02 -2.284057e-02 -1.644188e-02
-2.384777e-02 -1.053061e-02 8.024966e-03
-1.469574e-02 1.582374e-02 1.383342e-02
8.237236e-03 2.558330e-03 -4.726289e-02
-1.354028e-02 -1.782074e-02 -3.851930e-02
-2.625601e-02 1.770768e-02 -1.453126e-02
-1.709942e-02 2.777773e-02 -2.960529e-03
-2.359407e-02 -1.977293e-02 -1.885417e-02
-1.791744e-03 2.476678e-02 1.130342e-02
-1.216937e-02 -1.328946e-03 -4.667457e-02
5.515562e-03 3.392021e-02 -1.882343e-02
-2.937573e-02 -8.914759e-03 -2.411977e-02
1.510718e-02 -2.315013e-02 3.760171e-03
2.298290e-03 3.051298e-02 -2.025685e-02
-8.951826e-03 1.615915e-03 2.086786e-02
-1.142260e-02 1.470194e-03 -4.703249e-02
-3.036339e-02 -1.254957e-02 -2.072316e-02
2.528233e-03 7.145759e-03 2.155826e-02
2.286845e-03 -3.309667e-02 -2.229027e-02
5.140661e-03 5.059165e-03 2.123624e-02
1.536120e-02 -2.436247e-02 3.114577e-03
3.029786e-02 -4.805788e-03 -4.457446e-03
-1.329266e-02 -3.064600e-02 -2.223938e-02
8.778727e-03 -3.243497e-03 2.085639e-02
7.271609e-03 -1.689855e-02 -4.052139e-02
3.529095e-03 2.273179e-02 1.284422e-02
-1.019210e-02 -3.101837e-02 -1.389663e-02
-5.002760e-03 -2.350788e-02 1.230727e-02
-4.390228e-03 1.613380e-02 1.637238e-02
-1.377020e-02 1.194811e-02 -4.333328e-02
1.449423e-02 -6.782147e-04 -3.889423e-02
-3.363883e-02 -1.913470e-03 -7.251601e-03
-3.935632e-03 8.601733e-03 2.058010e-02
2.506266e-02 -2.059946e-02 -2.514824e-02
1.613761e-02 3.431946e-04 -4.270164e-02
-1.831940e-02 1.436629e-02 1.294239e-02
4.861914e-03 3.253205e-02 -9.120692e-04