# vtk DataFile Version 2.0
Electric current density generated by TTH
ASCII
DATASET UNSTRUCTURED_GRID
POINTS 4659 double
6.661691e-06 3.320416e-05 -2.329906e-22
2.636021e-05 1.894320e-05 8.360655e-07
-2.785184e-05 -1.611516e-05 -6.019494e-07
-5.965550e-06 -3.142374e-05 -2.018872e-07
2.640840e-05 -2.029176e-05 -8.678722e-07
2.640840e-05 2.029176e-05 -8.678722e-07
-3.302983e-05 3.879719e-06 8.875215e-07
-2.647923e-05 2.015616e-05 8.791256e-07
-1.349122e-05 -3.051258e-05 8.394045e-07
-2.243042e-05 -2.482027e-05 7.835277e-07
-3.203630e-05 8.281918e-07 3.901451e-07
6.076298e-06 3.331626e-05 -2.329906e-22
3.205160e-05 -9.750190e-07 -4.307436e-07
3.205160e-05 9.750190e-07 -4.307436e-07
-3.323274e-05 -3.522472e-06 -8.065658e-07
1.137976e-05 -3.025171e-05 7.435670e-07
-9.453805e-06 -3.200381e-05 8.346474e-07
-2.763384e-05 -1.875638e-05 8.192213e-07
-3.174460e-05 -6.616747e-06 8.167133e-07
-1.782718e-05 2.669265e-05 4.885833e-07
-3.236971e-05 1.940584e-06 8.172947e-07
-1.092051e-05 -3.145783e-05 8.699231e-07
5.489022e-06 3.341803e-05 -2.329906e-22
-2.022738e-05 -2.649331e-05 8.546286e-07
-1.900757e-05 -2.734314e-05 8.693765e-07
-3.340749e-05 3.596694e-07 8.124097e-07
3.193157e-05 3.472947e-06 -5.228321e-07
3.193157e-05 -3.472947e-06 -5.228321e-07
3.136885e-05 1.149467e-05 -8.129344e-07
3.136885e-05 -1.149467e-05 -8.129344e-07
-2.599560e-05 -1.887684e-05 -5.326283e-07
2.348925e-05 2.179332e-05 3.789613e-07
2.348925e-05 -2.179332e-05 3.789613e-07
4.900047e-06 3.350946e-05 -2.329906e-22
2.473354e-05 -2.255383e-05 -7.702944e-07
2.473354e-05 2.255383e-05 -7.702944e-07
-3.228575e-05 8.569280e-06 8.159135e-07
2.786685e-05 -1.625620e-05 6.919606e-07
2.786685e-05 1.625620e-05 6.919606e-07
-2.510829e-05 -1.978547e-05 -8.390870e-08
-2.279781e-05 -2.287545e-05 7.226062e-07
1.876299e-05 -2.612181e-05 5.819142e-07
1.876299e-05 2.612181e-05 5.819142e-07
1.167793e-05 2.978518e-05 2.344889e-07
4.309553e-06 3.359051e-05 -2.329906e-22
-3.048714e-05 1.020959e-05 -5.676162e-07
-2.766977e-05 1.637446e-05 -5.684094e-07
-2.607674e-07 3.331112e-05 8.641901e-07
9.141660e-06 3.083276e-05 -5.784867e-07
-3.339826e-05 2.992668e-06 7.235902e-07
-1.025420e-06 -3.197400e-05 -2.255290e-07
-2.888768e-05 1.450468e-05 7.462549e-07
-1.517456e-05 -2.973650e-05 8.270624e-07
-3.007718e-05 -1.081885e-05 -3.022744e-08
9.140250e-06 -3.083731e-05 -5.836227e-07
3.717725e-06 3.366115e-05 -2.329906e-22
-3.168294e-05 -6.592955e-06 -7.740495e-07
-3.236981e-05 -8.400714e-06 7.915592e-07
-2.974627e-05 -1.175886e-05 2.069814e-07
-1.987708e-05 2.535666e-05 -6.488064e-07
-2.924982e-05 1.346890e-05 -6.300846e-07
3.182127e-05 -5.216325e-06 -6.766603e-07
3.182127e-05 5.216325e-06 -6.766603e-07
1.995318e-05 -2.684313e-05 -7.884860e-07
1.995318e-05 2.684313e-05 -7.884860e-07
6.384512e-08 -3.218694e-05 -6.128073e-07
3.124744e-06 3.372136e-05 -2.329906e-22
-1.431535e-05 -2.886764e-05 6.522999e-07
3.302298e-06 -3.325642e-05 -8.058928e-07
2.200250e-05 2.328460e-05 -3.638410e-07
2.200250e-05 -2.328460e-05 -3.638410e-07
-3.222514e-05 1.992500e-06 -7.145862e-07
8.629533e-06 3.081229e-05 2.541951e-07
1.235695e-05 -2.973223e-05 -6.254290e-07
-2.859928e-05 1.502890e-05 -7.325120e-07
-3.111436e-05 8.699607e-06 -7.325120e-07
2.893073e-05 -1.673370e-05 8.048652e-07
2.530797e-06 3.377113e-05 -2.329906e-22
2.893073e-05 1.673370e-05 8.048652e-07
-3.159991e-05 5.435143e-06 -4.257627e-07
-2.729266e-05 1.670155e-05 2.522045e-07
1.071121e-05 -3.051876e-05 -7.610283e-07
1.071121e-05 3.051876e-05 -7.610283e-07
2.554500e-05 -1.956314e-05 -5.988886e-07
2.554500e-05 1.956314e-05 -5.988886e-07
-7.771366e-06 -3.126235e-05 6.432784e-07
-4.022323e-06 -3.172422e-05 -1.676073e-07
-2.433656e-05 -2.110781e-05 6.446073e-07
1.936065e-06 3.381044e-05 -2.329906e-22
8.625872e-06 -3.081311e-05 2.534862e-07
2.466614e-05 2.085586e-05 -7.273212e-07
2.466614e-05 -2.085586e-05 -7.273212e-07
-2.892789e-05 1.372475e-05 3.196037e-07
3.236837e-05 8.002762e-06 8.493195e-07
3.236837e-05 -8.002762e-06 8.493195e-07
-2.067253e-05 -2.472995e-05 6.629117e-07
-1.717781e-05 -2.727457e-05 6.637906e-07
-1.194260e-05 -2.993924e-05 6.638598e-07
2.167214e-05 2.378096e-05 5.979756e-07
1.340733e-06 3.383928e-05 -2.329906e-22
2.167214e-05 -2.378096e-05 5.979756e-07
-3.049145e-05 -1.041810e-05 6.522341e-07
-2.605276e-05 -2.096256e-05 7.935556e-07
2.839179e-05 1.508643e-05 -5.674706e-07
2.839179e-05 -1.508643e-05 -5.674706e-07
-3.207193e-05 -4.834753e-06 8.211076e-07
1.126849e-05 3.033287e-05 7.716788e-07
1.965126e-06 -3.218893e-05 -6.794941e-07
-3.113629e-05 7.749897e-06 4.677907e-07
-9.377356e-06 3.068276e-05 -4.632647e-07
7.449864e-07 3.385763e-05 -2.329906e-22
-1.255919e-05 2.952344e-05 -4.632647e-07
-2.229290e-05 2.307365e-05 -4.632647e-07
-2.460076e-05 2.059537e-05 -4.632647e-07
-1.560111e-05 2.803519e-05 -4.632647e-07
-6.091046e-06 3.150025e-05 -4.632647e-07
-9.300349e-07 3.207026e-05 -4.632646e-07
6.477849e-07 3.207721e-05 -4.632650e-07
5.813561e-06 3.155261e-05 -4.632149e-07
-3.201197e-05 -3.661609e-06 -6.507141e-07
2.898394e-05 1.434838e-05 -7.589350e-07
1.490088e-07 3.386550e-05 -2.329906e-22
2.898394e-05 -1.434838e-05 -7.589350e-07
3.338906e-05 -1.943632e-06 7.892539e-07
3.338906e-05 1.943632e-06 7.892539e-07
2.998419e-05 -1.310302e-05 9.315963e-07
2.998419e-05 1.310302e-05 9.315963e-07
3.077117e-05 -9.160619e-06 -5.007672e-07
3.077117e-05 9.160619e-06 -5.007672e-07
1.595252e-05 -2.821010e-05 8.052943e-07
1.595654e-05 2.821038e-05 8.066857e-07
3.220352e-05 1.884345e-06 6.889082e-07
-4.470149e-07 3.386288e-05 -2.329906e-22
3.220352e-05 -1.884345e-06 6.889082e-07
4.887237e-06 -3.309928e-05 -7.806513e-07
2.907462e-05 1.638290e-05 -8.337062e-07
2.907462e-05 -1.638290e-05 -8.337062e-07
6.732028e-06 3.267695e-05 -8.388230e-07
-2.677577e-07 3.336216e-05 -8.388040e-07
-7.234039e-06 3.256072e-05 -8.433471e-07
-2.512722e-05 2.194831e-05 -8.388040e-07
-1.683090e-05 2.880670e-05 -8.388040e-07
-1.379740e-05 3.035487e-05 -8.490844e-07
-1.042900e-06 3.384977e-05 -2.329906e-22
3.064772e-05 -1.322193e-05 -8.306398e-07
3.064772e-05 1.322193e-05 -8.306398e-07
6.760457e-06 -3.266236e-05 -8.433342e-07
3.387216e-06 3.319262e-05 -8.378572e-07
-3.646321e-06 3.316516e-05 -8.378551e-07
-1.050988e-05 3.166817e-05 -8.369878e-07
-2.716801e-05 1.936729e-05 -8.381051e-07
-2.266706e-05 2.448258e-05 -8.381051e-07
-3.271437e-05 6.543749e-06 -8.392415e-07
2.724014e-05 -1.731889e-05 7.082547e-07
-1.638462e-06 3.382617e-05 -2.329906e-22
2.724014e-05 1.731889e-05 7.082547e-07
3.814568e-06 -3.190442e-05 5.402923e-07
3.037943e-05 -1.033195e-05 4.713441e-07
3.037943e-05 1.033195e-05 4.713441e-07
1.726397e-05 -2.872252e-05 7.405641e-07
1.726397e-05 2.872252e-05 7.405641e-07
-2.099288e-05 -2.530608e-05 -9.506302e-07
-1.206470e-05 -3.058664e-05 -9.506306e-07
-1.762924e-05 -2.775445e-05 -9.506306e-07
2.073456e-05 2.443998e-05 3.978328e-07
-2.233517e-06 3.379210e-05 -2.329906e-22
2.073456e-05 -2.443998e-05 3.978328e-07
-3.020050e-05 1.051722e-05 1.741962e-07
-8.175577e-06 -3.182712e-05 -9.497124e-07
-3.337309e-05 -2.647173e-06 -7.665077e-07
3.153855e-05 -6.651444e-06 -6.628824e-07
3.153855e-05 6.651444e-06 -6.628824e-07
2.878389e-05 -1.485967e-05 7.956772e-07
2.878389e-05 1.485967e-05 7.956772e-07
4.962328e-06 3.310151e-05 7.712532e-07
-2.087096e-06 3.340627e-05 7.712524e-07
-2.827880e-06 3.374756e-05 -2.329906e-22
-8.708445e-06 3.231869e-05 7.712524e-07
-1.531241e-05 2.976703e-05 7.689647e-07
-2.404804e-05 2.328146e-05 7.712524e-07
-1.206644e-05 3.122076e-05 7.712524e-07
-5.253429e-06 3.305656e-05 7.712524e-07
1.793041e-06 3.342334e-05 7.712511e-07
-3.058221e-05 -1.337841e-05 -8.293736e-07
-2.904194e-05 -1.657972e-05 -7.921096e-07
-2.118334e-05 2.591816e-05 7.696281e-07
-2.735880e-06 -3.265543e-05 -9.401802e-07
-3.421367e-06 3.369256e-05 -2.329906e-22
-3.381405e-06 -3.331001e-05 -7.640814e-07
3.123605e-05 -8.382571e-06 -7.590939e-07
3.123605e-05 8.382571e-06 -7.590939e-07
1.082526e-05 -3.174452e-05 7.171514e-07
-2.843489e-05 1.772239e-05 7.453566e-07
8.789967e-06 3.233207e-05 7.453579e-07
8.789453e-06 -3.233155e-05 7.458594e-07
-2.004343e-05 2.493747e-05 2.396810e-07
1.993448e-05 -2.529932e-05 6.383399e-07
1.993448e-05 2.529932e-05 6.383399e-07
-4.013794e-06 3.362713e-05 -2.329906e-22
-3.031881e-05 -1.431998e-05 -7.249614e-07
-3.081784e-05 -9.420692e-06 -6.558874e-07
3.193517e-05 9.964735e-06 -7.837205e-07
3.193517e-05 -9.964735e-06 -7.837205e-07
3.126526e-05 -1.188997e-05 7.864083e-07
3.126526e-05 1.188997e-05 7.864083e-07
-2.244869e-05 -2.481650e-05 -7.769305e-07
-2.316265e-05 -2.424446e-05 -7.248307e-07
-1.360058e-05 -3.057494e-05 -7.769273e-07
-1.445722e-05 -3.025377e-05 -7.248343e-07
-4.604978e-06 3.355128e-05 -2.329906e-22
-1.671593e-05 -2.898932e-05 -7.769272e-07
-1.593328e-05 -2.949896e-05 -7.279088e-07
-2.491507e-05 -2.233927e-05 -7.769187e-07
-2.433012e-05 -2.306734e-05 -7.279242e-07
-2.954627e-05 -1.586601e-05 -7.195890e-07
1.447384e-05 2.896768e-05 7.884555e-07
-3.137268e-05 -7.686503e-06 -7.265666e-07
-2.765548e-05 -1.693677e-05 8.183542e-07
5.089685e-06 -3.310122e-05 7.573033e-07
4.175467e-06 -3.325742e-05 7.349500e-07
-5.194736e-06 3.346504e-05 -2.329906e-22
2.165114e-05 -2.549808e-05 7.860458e-07
2.165114e-05 2.549808e-05 7.860458e-07
-3.104786e-05 1.266084e-05 7.252837e-07
2.128486e-05 2.579686e-05 -7.900955e-07
2.128486e-05 -2.579686e-05 -7.900955e-07
2.045515e-05 2.645652e-05 7.917194e-07
2.045515e-05 -2.645652e-05 7.917194e-07
2.806243e-05 1.824873e-05 -7.692859e-07
2.806243e-05 -1.824873e-05 -7.692859e-07
-3.134710e-05 -7.460469e-06 6.527854e-07
-5.782884e-06 3.336844e-05 -2.329906e-22
-1.658272e-05 2.913355e-05 7.317464e-07
-3.330550e-05 3.169540e-06 -7.821585e-07
-3.084013e-05 1.290275e-05 -7.992288e-07
-2.010467e-05 2.675417e-05 -7.750167e-07
-2.930834e-05 1.608154e-05 -7.992288e-07
-3.202833e-05 9.580217e-06 -7.992288e-07
-2.816497e-05 -1.805484e-05 7.827711e-07
-3.303779e-05 -5.794795e-06 7.148777e-07
3.266242e-05 7.445532e-06 -7.495434e-07
3.266242e-05 -7.445532e-06 -7.495434e-07
-6.369241e-06 3.326150e-05 -2.329906e-22
[...]
POINT_DATA 4659
VECTORS 10.000GHz_fone_imag double
3.187641e+10 -6.781497e+09 -5.504199e+08
2.120381e+10 -3.063106e+10 -5.870309e+07
-1.987141e+10 3.321385e+10 4.603009e+07
-3.676348e+10 6.886214e+09 1.147533e+09
-1.961636e+10 -2.748764e+10 1.852540e+08
1.961944e+10 -2.749295e+10 -1.860839e+08
5.092862e+09 3.463102e+10 3.817056e+08
2.061148e+10 2.722264e+10 -1.481126e+08
-3.007604e+10 1.527245e+10 5.541664e+08
-2.493971e+10 2.305582e+10 4.162666e+08
1.431465e+09 3.941897e+10 -1.558612e+09
3.136248e+10 -5.753233e+09 5.850820e+08
-1.668266e+09 -4.016793e+10 2.239149e+08
1.220500e+09 -3.778463e+10 5.460992e+08
-2.949706e+09 3.129510e+10 -7.317942e+07
-3.634276e+10 -1.276221e+10 -1.147250e+09
-3.178467e+10 8.660316e+09 -9.366778e+08
-1.953440e+10 2.674490e+10 -6.372503e+08
-7.931982e+09 3.681492e+10 9.470700e+08
2.896602e+10 2.228887e+10 -1.034554e+09
3.534135e+09 3.663451e+10 1.699882e+08
-3.236297e+10 1.057483e+10 6.829211e+08
3.200743e+10 -5.937994e+09 -2.210965e+08
-2.544686e+10 1.987740e+10 7.422623e+08
-2.813208e+10 2.018414e+10 6.898850e+08
2.963179e+08 3.316133e+10 -6.552674e+07
3.129551e+09 -3.723849e+10 1.236620e+09
-4.429505e+09 -3.797482e+10 1.039958e+09
1.152936e+10 -3.108740e+10 -7.239637e+08
-1.152807e+10 -3.108602e+10 7.249425e+08
-2.282120e+10 3.026242e+10 5.575432e+08
2.467064e+10 -2.866960e+10 1.665749e+09
-2.467153e+10 -2.867013e+10 -1.666689e+09
3.136511e+10 -4.209028e+09 -8.548150e+08
-2.213549e+10 -2.437219e+10 -1.903719e+08
2.213437e+10 -2.437187e+10 1.908542e+08
9.069049e+09 3.184699e+10 -2.662711e+08
-1.993694e+10 -3.218417e+10 1.031658e+09
1.994413e+10 -3.219284e+10 -1.023816e+09
-2.383798e+10 2.948810e+10 2.543935e+08
-2.640329e+10 2.715051e+10 5.595699e+08
-3.044140e+10 -2.269459e+10 -5.414065e+08
3.043949e+10 -2.269507e+10 5.415748e+08
3.746313e+10 -1.489459e+10 -1.292831e+09
3.297650e+10 -4.715165e+09 4.547463e+08
1.272413e+10 3.579293e+10 5.453069e+08
2.079120e+10 3.226635e+10 1.766439e+09
3.304781e+10 1.314254e+08 -1.186568e+08
3.746469e+10 -1.141539e+10 -4.687787e+08
2.954286e+09 3.083345e+10 -5.063933e+08
-3.960569e+10 -6.775182e+06 -5.673369e+08
1.853131e+10 3.306417e+10 -1.008604e+08
-2.880054e+10 1.589307e+10 2.479266e+08
-1.350912e+10 3.651914e+10 1.105307e+09
-3.585775e+10 -1.023553e+10 1.406116e+09
3.153721e+10 -3.128193e+09 4.040284e+08
-7.701127e+09 3.634628e+10 -3.216842e+08
-8.847955e+09 3.241132e+10 1.371802e+09
-1.575555e+10 3.799012e+10 1.071444e+09
2.953527e+10 2.324721e+10 2.935624e+08
1.622774e+10 3.353385e+10 2.327201e+07
-5.754343e+09 -3.672801e+10 1.151485e+09
5.015936e+09 -3.694656e+10 -7.981430e+08
-2.642118e+10 -2.001093e+10 9.451503e+08
2.642598e+10 -2.001192e+10 -9.437280e+08
-3.824976e+10 2.514992e+08 -1.563838e+09
3.195162e+10 -2.298966e+09 -1.100261e+08
-3.317257e+10 1.644848e+10 1.218989e+09
-3.268352e+10 -3.117095e+09 -1.411406e+07
2.678634e+10 -2.761525e+10 -4.473326e+07
-2.678688e+10 -2.761544e+10 4.471985e+07
3.573108e+09 3.685799e+10 7.146321e+08
3.780323e+10 -9.817366e+09 5.513958e+08
-3.300030e+10 -1.328163e+10 1.465042e+09
1.748951e+10 3.277480e+10 6.640365e+08
9.656004e+09 3.524679e+10 2.759930e+08
-1.627931e+10 -2.831260e+10 1.011196e+08
3.157939e+10 -2.100225e+09 -2.286851e+08
1.628444e+10 -2.822065e+10 -1.218760e+08
6.057717e+09 3.877510e+10 -8.305039e+08
2.058457e+10 3.287700e+10 4.122648e+08
-3.552522e+10 -1.195447e+10 4.952493e+08
3.660733e+10 -1.218574e+10 -9.108417e+08
-2.303363e+10 -3.033113e+10 -5.280043e+07
2.303071e+10 -3.033001e+10 5.349200e+07
-3.582586e+10 9.714298e+09 1.362939e+09
-3.872718e+10 5.868488e+09 2.062866e+08
-2.397269e+10 2.757519e+10 -6.256156e+08
3.120954e+10 -2.914785e+09 6.057861e+08
-3.708547e+10 -1.000705e+10 1.828925e+08
2.583343e+10 -3.238040e+10 8.812286e+08
-2.583144e+10 -3.238044e+10 -8.823714e+08
1.705482e+10 3.599074e+10 -1.755422e+09
8.712669e+09 -3.456618e+10 -6.367150e+08
-8.726281e+09 -3.456428e+10 6.439037e+08
-2.921877e+10 2.349999e+10 -5.524434e+08
-3.177197e+10 2.082163e+10 4.109226e+08
-3.715589e+10 1.366156e+10 -2.592928e+08
2.784588e+10 -2.591179e+10 -1.841017e+08
3.306202e+10 -3.002126e+08 9.876085e+08
-2.784801e+10 -2.591177e+10 1.825362e+08
-1.256015e+10 3.634475e+10 2.176327e+08
-2.117902e+10 2.578062e+10 6.854753e+08
1.670598e+10 -3.368381e+10 3.740053e+08
-1.670733e+10 -3.368924e+10 -3.742494e+08
-5.678795e+09 3.799590e+10 3.015925e+08
3.427751e+10 -1.303167e+10 9.755757e+08
-3.962866e+10 -2.682117e+09 -5.998428e+08
8.465057e+09 3.576617e+10 -1.545744e+08
3.728275e+10 1.135442e+10 3.421544e+08
3.239201e+10 -2.277464e+09 -2.893337e+08
3.483032e+10 1.581456e+10 1.304922e+09
2.847330e+10 2.729121e+10 1.698903e+08
2.530062e+10 2.793485e+10 -9.563323e+07
3.329173e+10 1.904118e+10 9.346205e+08
3.936819e+10 8.296110e+09 1.061207e+09
3.804482e+10 6.576660e+08 -1.945392e+09
3.780554e+10 6.921550e+08 1.400175e+09
3.775807e+10 -7.945838e+09 -8.387442e+08
-4.117618e+09 3.760430e+10 -2.763833e+08
1.507522e+10 -3.304905e+10 -5.065799e+08
3.376990e+10 4.618846e+08 -2.348164e+07
-1.507803e+10 -3.304952e+10 5.074098e+08
-1.640304e+09 -3.319191e+10 -2.953931e+08
1.702341e+09 -3.322996e+10 1.208486e+07
-1.372044e+10 -3.248651e+10 -7.548891e+08
1.372030e+10 -3.249194e+10 7.550715e+08
-1.119621e+10 -3.617493e+10 7.606454e+07
1.119449e+10 -3.616737e+10 -7.624860e+07
-3.083664e+10 -1.842830e+10 -3.018902e+07
3.350367e+10 -1.823128e+10 6.084155e+08
3.102689e+09 -3.710206e+10 1.616741e+08
3.295316e+10 1.103059e+09 2.095598e+08
-2.885049e+09 -3.674311e+10 -1.261706e+07
-3.355879e+10 -4.318727e+09 -6.103944e+08
1.656656e+10 -2.948163e+10 -4.667509e+06
-1.656476e+10 -2.949379e+10 6.091898e+06
3.351127e+10 -5.903118e+09 -5.145036e+08
3.408616e+10 4.856729e+08 -8.665236e+07
3.275034e+10 7.361885e+09 -4.130657e+07
2.293846e+10 2.796422e+10 2.393780e+08
3.020016e+10 1.611967e+10 -2.790628e+08
3.174669e+10 1.421310e+10 3.153173e+08
3.272948e+10 1.133166e+09 4.934983e+08
-1.322348e+10 -3.082340e+10 8.173459e+07
1.323205e+10 -3.082280e+10 -7.695276e+07
-3.397447e+10 -6.445145e+09 -3.221649e+06
3.350798e+10 -4.027078e+09 6.498722e+07
3.367274e+10 3.090346e+09 6.199919e+07
3.545097e+10 1.135847e+10 -3.369418e+08
2.003331e+10 2.721696e+10 4.562627e+08
2.427484e+10 2.302951e+10 -2.991574e+08
7.494885e+09 3.248801e+10 1.268443e+09
-1.832433e+10 -3.209106e+10 2.935499e+07
3.116983e+10 1.691848e+09 -7.086272e+08
1.832491e+10 -3.209016e+10 -3.012884e+07
-3.849808e+10 -5.208641e+09 -1.552238e+09
-1.235789e+10 -3.551893e+10 3.365304e+08
1.235689e+10 -3.551265e+10 -3.334209e+08
-2.775789e+10 -1.520460e+10 1.490816e+08
2.829910e+10 -1.627298e+10 3.594510e+08
-2.740887e+10 2.282403e+10 -7.756411e+08
-3.289004e+10 1.256700e+10 -3.021323e+08
-2.878254e+10 1.885686e+10 1.505961e+09
2.982273e+10 -2.534870e+10 7.072555e+07
3.116032e+10 2.294681e+09 -1.291200e+09
-2.982731e+10 -2.535504e+10 -6.949198e+07
1.310095e+10 3.626925e+10 1.872438e+09
-3.480365e+10 8.084454e+09 7.061468e+08
-1.965293e+09 3.283193e+10 -1.649463e+09
-8.347562e+09 -3.812755e+10 -2.894443e+08
8.359522e+09 -3.811366e+10 2.749948e+08
-1.717743e+10 -3.210933e+10 1.043125e+09
1.717786e+10 -3.211102e+10 -1.042713e+09
3.330815e+10 -5.007071e+09 -9.713150e+08
3.343081e+10 1.464579e+09 -7.843246e+08
3.326369e+10 2.294338e+09 3.655892e+08
3.137789e+10 9.716554e+09 1.105436e+08
2.971937e+10 1.570210e+10 3.806645e+07
2.327899e+10 2.428095e+10 -1.057567e+09
3.039485e+10 1.286747e+10 4.626083e+08
3.321142e+10 4.655518e+09 -4.494649e+08
3.341744e+10 -1.793248e+09 -4.731400e+07
-1.335856e+10 3.097568e+10 -6.134303e+07
-1.655900e+10 2.927948e+10 2.380056e+08
2.518889e+10 2.054626e+10 1.245596e+09
-3.604845e+10 2.404350e+09 1.026424e+09
3.152244e+10 3.561553e+09 3.736730e+08
-3.357524e+10 4.166339e+09 -9.648028e+08
-1.004254e+10 -3.465672e+10 -3.226966e+08
1.004091e+10 -3.465472e+10 3.211677e+08
-3.137232e+10 -9.219206e+09 7.485557e+08
1.906873e+10 2.773746e+10 1.221894e+09
3.223866e+10 -7.402768e+09 -1.103859e+09
-3.147444e+10 -8.617677e+09 -8.276773e+08
3.020800e+10 2.443830e+10 2.576723e+08
-2.886765e+10 -2.519130e+10 -7.469993e+08
2.887029e+10 -2.519606e+10 7.494230e+08
3.174474e+10 4.455186e+09 -1.017486e+08
-1.401977e+10 3.035028e+10 5.982638e+08
-1.113101e+10 3.730470e+10 -4.095210e+07
1.001455e+10 -3.154635e+10 -1.208111e+09
-1.001027e+10 -3.153810e+10 1.209311e+09
-1.261980e+10 -3.085261e+10 1.048327e+08
1.262300e+10 -3.085462e+10 -1.054910e+08
-2.279435e+10 2.215143e+10 -5.553299e+08
-2.541401e+10 2.358251e+10 -6.037428e+08
-2.930060e+10 1.279461e+10 3.054369e+08
-3.132576e+10 1.511721e+10 -8.924830e+08
3.142546e+10 4.556431e+09 -8.382785e+07
-2.912061e+10 1.589215e+10 1.393083e+08
-2.862753e+10 1.505957e+10 5.196924e+08
-2.323248e+10 2.524748e+10 8.839323e+08
-2.257349e+10 2.374927e+10 8.488782e+08
-1.528336e+10 2.858844e+10 -8.767681e+08
3.332339e+10 -1.839629e+10 -1.204747e+08
-7.835627e+09 3.692171e+10 -1.844308e+08
-1.930449e+10 3.026258e+10 1.229445e+09
-3.339978e+10 -4.313983e+09 2.530399e+08
-3.250727e+10 -4.661484e+09 -2.878199e+08
3.194753e+10 3.413511e+09 8.343966e+08
-2.583097e+10 -2.270318e+10 2.132698e+08
2.583027e+10 -2.270495e+10 -2.119920e+08
1.220611e+10 2.984775e+10 -5.804475e+08
2.548562e+10 -2.061208e+10 1.034304e+09
-2.547455e+10 -2.061300e+10 -1.029740e+09
2.737591e+10 -1.986425e+10 -5.926082e+08
-2.738856e+10 -1.986309e+10 5.996374e+08
1.901089e+10 -2.913221e+10 6.817381e+08
-1.900889e+10 -2.913199e+10 -6.809475e+08
-8.123470e+09 3.678540e+10 -1.060886e+07
3.415581e+10 6.650828e+09 2.244811e+09
2.859657e+10 1.570490e+10 -2.543555e+08
3.298894e+09 3.654668e+10 -4.445822e+08
1.215957e+10 2.961665e+10 -1.021112e+07
2.598301e+10 1.923478e+10 3.359847e+08
1.582662e+10 2.733082e+10 5.324230e+08
9.616992e+09 3.168839e+10 8.740257e+07
-1.929776e+10 2.768280e+10 -1.248418e+08
-5.793878e+09 3.127793e+10 -9.908223e+08
6.837410e+09 -3.167995e+10 -1.042078e+09
-6.829624e+09 -3.167247e+10 1.046771e+09
3.189083e+10 6.448206e+09 1.039950e+09
-3.141639e+10 8.721297e+09 -2.666094e+08
5.360236e+09 3.219995e+10 -5.580314e+08
-3.020657e+10 -2.160255e+10 -7.585641e+08
3.020852e+10 -2.160543e+10 7.600830e+08
-2.482070e+10 -2.121213e+10 -1.064623e+08
2.481853e+10 -2.121198e+10 1.075110e+08
-2.123756e+10 2.429024e+10 -1.074925e+08
-3.203735e+10 -2.032190e+10 -1.232631e+09
3.185533e+10 -2.045977e+10 1.526363e+09
-1.623576e+10 3.242410e+10 -8.621809e+08
3.182097e+10 5.830770e+09 -4.710170e+08
-2.107354e+10 2.604387e+10 2.604044e+08
-3.429630e+10 -1.673742e+09 -7.744589e+08
-3.297644e+10 7.364509e+09 7.468993e+07
3.053438e+10 -1.306779e+10 -2.983788e+08
2.212912e+10 -2.554954e+10 4.869693e+08
-2.212397e+10 -2.554630e+10 -4.860025e+08
8.222992e+09 3.649336e+10 -1.105419e+09
-1.964244e+10 -2.661203e+10 -5.272527e+08
1.964715e+10 -2.661466e+10 5.294231e+08
-2.886251e+09 3.560117e+10 2.541633e+08
3.402915e+10 7.606937e+09 1.005378e+07
-1.276505e+10 3.284581e+10 -1.653987e+08
-1.662391e+10 3.236807e+10 -2.685439e+08
6.015909e+09 -3.179019e+10 4.786875e+07
-5.911198e+09 -3.181570e+10 -1.922694e+08
-3.248668e+10 -2.191259e+09 -5.645567e+08
-3.855020e+10 -3.324278e+09 -9.178617e+08
-3.109845e+10 -9.936964e+09 1.515108e+08
3.106034e+10 -8.505714e+09 -3.295649e+08
3.081525e+10 -1.155850e+10 4.299364e+08
-3.023907e+10 -1.471412e+10 8.745168e+08
3.162034e+10 9.588946e+09 3.879811e+07
-2.797591e+09 3.384180e+10 6.714312e+08
2.240497e+10 -2.260761e+10 -1.110229e+08
-2.240578e+10 -2.260717e+10 1.102990e+08
-7.387919e+09 3.198331e+10 1.637844e+08
-3.612217e+10 1.453937e+10 7.569996e+08
-2.976385e+10 -1.442664e+10 -3.599775e+08
-3.512893e+10 -2.006296e+10 3.614243e+08
3.395293e+10 -1.920471e+10 -8.618293e+08
3.217501e+10 3.571030e+09 2.424351e+07
3.223241e+10 -3.283437e+09 4.962731e+07
3.018403e+10 8.170720e+09 -6.421750e+07
1.116001e+09 3.247317e+10 4.390023e+08
-2.601367e+10 2.573140e+10 7.000205e+08
-2.597736e+10 2.597291e+10 1.051867e+09
-3.097517e+10 2.276097e+10 7.039134e+08
-2.944074e+10 2.082892e+10 9.645220e+08
-3.320554e+10 1.634541e+10 5.254450e+08
-3.328368e+10 1.766495e+10 -3.796715e+08
-3.525452e+10 1.007731e+10 -3.435460e+08
-3.644281e+10 1.156260e+10 -8.815644e+08
-2.102472e+10 -3.456206e+10 9.892307e+07
2.961177e+10 8.226798e+09 -4.506459e+08
2.100351e+10 -3.454165e+10 -8.644824e+07
-3.248141e+10 4.752088e+09 -3.908032e+08
-3.293897e+10 5.542980e+09 1.989958e+08
-3.609220e+10 4.674569e+09 1.195501e+09
-1.461107e+10 3.235306e+10 9.860442e+08
-2.532993e+10 2.037719e+10 2.722915e+08
-3.285889e+10 1.546739e+08 5.976695e+07
-3.242076e+10 1.166476e+10 1.054638e+08
-2.748322e+10 1.768327e+10 -1.393442e+08
-3.554793e+10 -1.633147e+10 1.123696e+08
3.196675e+10 9.147817e+09 3.132375e+08
2.546299e+10 -1.931031e+10 -1.777705e+09
-2.547040e+10 -1.931501e+10 1.778688e+09
2.412433e+10 -2.129751e+10 7.869747e+08
-2.410322e+10 -2.126735e+10 -7.815194e+08
-1.595868e+10 3.280683e+10 -3.288787e+08
-3.145846e+10 9.466671e+09 -2.266357e+08
-3.147429e+10 1.056280e+10 -5.223096e+08
-2.933994e+10 2.027865e+10 -3.316969e+08
-2.629383e+10 1.921739e+10 7.361940e+08
-2.127638e+10 -3.021465e+10 -5.954871e+08
3.128473e+10 9.764186e+09 4.350632e+07
2.127520e+10 -3.021415e+10 5.950150e+08
2.318772e+10 -2.758686e+10 4.682875e+07
2.118604e+10 -2.596408e+10 -7.709923e+08
-2.318623e+10 -2.758680e+10 -4.739977e+07
-2.118166e+10 -2.596201e+10 7.707653e+08
-2.917346e+10 1.489336e+10 1.388358e+08
1.329348e+10 -3.662990e+10 -2.800202e+09
-1.329428e+10 -3.663313e+10 2.800778e+09
3.139850e+10 1.983329e+10 -4.993911e+08
2.811131e+10 -1.624215e+10 -4.879892e+08
3.311100e+10 1.163265e+10 -6.485576e+08
-2.802081e+10 -1.661160e+10 -1.169897e+08
-3.339928e+10 1.840691e+10 5.177171e+08
-3.632200e+10 1.540549e+10 -6.279454e+07
-2.870637e+10 2.609583e+10 1.042741e+08
-3.660202e+10 -6.333735e+09 -1.504233e+09
4.752906e+09 3.260299e+10 1.157658e+07
-3.467380e+10 -1.870243e+10 1.765693e+08
9.470161e+09 3.161105e+10 1.159769e+09
3.231319e+10 -1.385041e+09 3.584616e+08
3.310358e+10 5.132795e+09 1.953626e+08
2.998741e+10 1.298349e+10 -7.321238e+08
2.955195e+10 1.195456e+10 1.310116e+09
2.165586e+10 2.307839e+10 1.238781e+09
2.074018e+10 2.411531e+10 -2.105958e+09
3.012361e+10 1.634759e+10 1.547909e+09
3.086101e+10 8.869181e+09 -5.071048e+08
3.203107e+10 1.374722e+09 -1.315545e+09
3.077861e+10 -3.970518e+09 2.581815e+07
3.816660e+10 6.637906e+09 -1.471493e+07
3.596259e+10 1.510948e+10 4.005432e+08
2.333504e+10 2.956953e+10 -1.165300e+09
2.922027e+10 1.120411e+10 3.998761e+08
3.702989e+10 1.084102e+10 -1.592857e+08
-7.430513e+09 3.800058e+10 -8.051758e+08
-2.549083e+10 2.008438e+10 1.790067e+08
-3.187624e+10 1.275810e+10 -7.429494e+08
-2.788366e+10 1.801270e+10 -5.650895e+08
-1.535526e+10 2.931925e+10 6.088637e+07
-2.773181e+10 2.439172e+10 -4.172192e+08
-1.229942e+10 -3.142731e+10 2.908563e+08
1.230457e+10 -3.143393e+10 -2.926111e+08
3.297841e+10 -1.819091e+10 2.386905e+08
2.819505e+10 1.104676e+10 -2.925291e+08
-3.282565e+10 -1.707955e+10 2.059098e+09
-3.150371e+10 8.761709e+09 -2.635058e+08
-1.335161e+09 -3.249268e+10 5.788248e+08
2.472598e+09 -3.260801e+10 1.343427e+09
2.060476e+10 -2.654154e+10 -4.673243e+08
-2.060630e+10 -2.653799e+10 4.697426e+08
-1.069584e+10 3.464689e+10 -6.739269e+08
-1.377755e+10 -3.003418e+10 3.919526e+08
-1.421621e+10 -2.980390e+10 4.117423e+08
1.377536e+10 -3.003500e+10 -3.921309e+08
3.041467e+10 1.256964e+10 -1.545444e+08
1.421703e+10 -2.980567e+10 -4.117953e+08
-1.314993e+10 -3.398465e+10 -6.182538e+08
1.315140e+10 -3.398386e+10 6.171576e+08
2.677777e+10 1.991721e+10 8.910914e+08
2.710823e+09 3.437344e+10 -2.407932e+08
1.636062e+10 2.788169e+10 -9.228946e+08
3.835622e+10 -8.026405e+09 1.628200e+08
2.923421e+10 2.666426e+10 -1.392632e+08
3.267784e+10 2.018925e+10 5.332030e+08
-3.054376e+10 -1.137351e+10 -1.266314e+08
2.954321e+10 1.288779e+10 -1.951334e+08
3.081949e+10 2.151640e+10 -8.657838e+08
1.428954e+10 3.521614e+10 8.498195e+08
-3.466281e+10 6.416132e+09 -1.172548e+09
-2.157794e+10 -3.218134e+10 1.373275e+08
2.156800e+10 -3.217077e+10 -1.354554e+08
-5.549984e+09 -3.681810e+10 4.636952e+08
3.409045e+09 -3.638327e+10 5.071861e+08
4.742571e+09 -3.721989e+10 -1.062947e+09
-6.066173e+09 -3.535162e+10 -7.617550e+07
-2.547073e+10 2.741723e+10 1.283575e+08
3.013209e+10 1.424950e+10 -6.218290e+08
-3.487684e+09 3.756794e+10 5.580935e+08
2.796553e+10 1.863228e+10 -6.545848e+08
1.864801e+10 2.714252e+10 -1.833353e+09
8.198717e+09 3.172416e+10 5.072881e+08
2.513170e+10 1.974616e+10 1.166223e+08
3.719138e+09 3.189896e+10 1.933268e+07
-2.315518e+10 2.353228e+10 3.918999e+08
3.419828e+10 -1.653681e+10 1.528116e+08
1.313284e+10 2.911775e+10 6.610842e+07
1.090331e+10 3.153716e+10 3.414326e+08
2.770868e+10 1.485687e+10 -4.523542e+08
-1.447654e+10 -2.876619e+10 -2.754662e+08
1.447627e+10 -2.876256e+10 2.768955e+08
-2.065561e+10 2.526709e+10 -1.144216e+09
-5.498423e+09 -3.070889e+10 -5.468046e+08
6.280843e+09 -3.167525e+10 8.004133e+08
2.118623e+10 -2.340450e+10 6.254598e+08
-2.118731e+10 -2.340485e+10 -6.250492e+08
-1.006450e+10 -3.688329e+10 1.545933e+08
1.005466e+10 -3.689593e+10 -1.625956e+08
2.858213e+10 -1.523975e+10 8.184341e+07
2.907632e+10 1.321089e+10 3.735419e+08
2.079699e+09 3.878000e+10 -3.514002e+08
3.128276e+10 -1.100553e+10 -9.672171e+08
2.981246e+10 -9.739874e+09 -3.185287e+08
3.043352e+10 -1.284947e+10 -7.802763e+08
1.601318e+10 2.873825e+10 -4.453873e+07
-1.512272e+10 -2.803348e+10 -8.957723e+08
1.512380e+10 -2.803751e+10 8.969466e+08
-4.655699e+09 -3.917767e+10 1.107141e+09
5.190180e+09 -3.751454e+10 5.641198e+08
3.253409e+10 -7.391047e+09 2.021032e+09
2.879661e+10 1.625895e+10 4.165663e+07
-3.111502e+10 -8.802966e+09 -2.885662e+08
-6.050151e+09 3.719350e+10 -6.210769e+08
-2.838899e+10 -1.723018e+10 -1.210526e+09
2.843177e+10 -1.727026e+10 1.206372e+09
-3.386892e+10 -1.521656e+09 4.323681e+08
-3.574499e+10 4.535103e+09 -5.447663e+08
-3.638138e+10 6.321077e+09 -1.367061e+08
2.301030e+10 -2.197362e+10 -2.742500e+07
-2.300842e+10 -2.197361e+10 2.852284e+07
-3.053105e+10 -1.321879e+10 -6.551738e+08
2.894092e+10 1.542550e+10 4.250994e+07
-7.445999e+09 -3.562503e+10 -8.803242e+08
7.556503e+09 -3.543446e+10 8.761341e+08
3.273757e+10 -6.058570e+08 2.381980e+08
-2.099838e+10 -3.402227e+10 -5.415611e+08
2.100177e+10 -3.403064e+10 5.398750e+08
-3.291980e+10 1.898550e+10 -6.762128e+08
-1.823601e+10 3.039259e+10 -5.829787e+08
-3.395329e+10 -1.569001e+10 1.754245e+08
2.857116e+09 -3.305143e+10 -2.774429e+08
-2.334249e+09 -3.312901e+10 1.033040e+09
2.849711e+10 1.693531e+10 9.249583e+08
8.582076e+09 3.490233e+10 6.739963e+08
-3.139406e+10 9.770493e+09 2.298237e+08
-2.303736e+10 3.071422e+10 5.078006e+08
-3.838888e+10 2.051111e+09 1.169897e+08
1.856217e+09 -3.390482e+10 6.162326e+08
-6.775311e+08 -3.283922e+10 7.843668e+08
-3.951240e+10 1.002426e+10 1.585450e+09
-9.901278e+09 -3.506756e+10 -3.805984e+08
9.902037e+09 -3.506762e+10 3.805076e+08
8.020275e+09 3.774983e+10 1.246698e+09
2.738780e+10 1.672685e+10 2.719827e+07
-3.600504e+10 -1.522159e+10 -1.515722e+08
-3.526594e+10 -1.426071e+10 -1.270415e+09
-3.806478e+10 -2.418085e+09 2.287148e+08
8.823775e+08 -3.814687e+10 2.858426e+08
-2.683054e+09 -3.558386e+10 1.207045e+09
1.700823e+10 -2.777399e+10 -2.719813e+07
-1.706867e+10 -2.781411e+10 6.215690e+07
3.852594e+10 -1.671563e+08 -3.063282e+08
1.533477e+10 3.343627e+10 7.820413e+07
2.908570e+10 2.261315e+10 -5.167828e+08
2.753089e+10 1.708681e+10 -1.096917e+08
2.179211e+10 2.900280e+10 -3.571191e+08
-2.891220e+10 -2.559975e+10 -3.567219e+07
2.890693e+10 -2.559389e+10 3.475244e+07
3.111419e+10 -2.263639e+10 -1.072733e+07
-3.111710e+10 -2.263621e+10 1.741642e+07
-1.598214e+10 -3.403826e+10 2.682611e+08
1.598148e+10 -3.404041e+10 -2.688970e+08
6.042833e+09 3.307841e+10 2.059260e+08
-2.783543e+10 2.015414e+10 -4.726824e+08
-7.563266e+09 -3.602911e+10 -7.150446e+08
2.625653e+10 1.808634e+10 3.646888e+08
7.579493e+09 -3.600428e+10 7.182865e+08
-3.480243e+10 -1.168514e+10 7.350082e+08
3.663245e+10 -1.022290e+10 6.729838e+08
-1.903689e+10 3.122225e+10 3.559472e+08
8.791901e+09 -3.073343e+10 -1.974512e+08
-8.789747e+09 -3.073456e+10 1.954573e+08
2.768466e+10 1.634940e+10 -2.079346e+08
-1.543711e+10 3.154262e+10 -4.625555e+08