# vtk DataFile Version 2.0
Electric current density generated by TTH
ASCII
DATASET UNSTRUCTURED_GRID
POINTS 3327 double
3.090151e-05 -7.568686e-21 -2.811149e-22
3.022624e-05 6.424785e-06 -2.811149e-22
-2.067714e-05 2.296430e-05 -2.811149e-22
-2.973447e-05 6.760509e-06 -8.777000e-07
2.014465e-05 2.117681e-05 -1.020126e-06
2.014465e-05 -2.117681e-05 -1.020126e-06
2.809026e-05 -5.692396e-06 -3.516455e-07
2.492911e-05 1.767258e-05 8.190194e-07
2.492911e-05 -1.767258e-05 8.190194e-07
2.825827e-05 -1.142271e-05 -8.890597e-07
2.691820e-05 1.042686e-05 7.287726e-07
2.896093e-05 -4.250213e-06 -1.041335e-06
2.132915e-05 2.177679e-05 -8.870053e-07
-2.120590e-05 2.247694e-05 -2.811149e-22
2.132915e-05 -2.177679e-05 -8.870053e-07
-2.746585e-05 1.051401e-05 1.094882e-06
-2.661245e-05 -1.081604e-05 5.117829e-07
2.839783e-05 6.357125e-06 9.438163e-07
-1.073811e-05 2.683118e-05 -7.672398e-07
2.362456e-05 1.939777e-05 8.090627e-07
2.362456e-05 -1.939777e-05 8.090627e-07
-1.476428e-05 2.463937e-05 5.073315e-07
5.356450e-06 2.998441e-05 9.054407e-07
2.997173e-05 6.007077e-06 8.091268e-07
-2.172317e-05 2.197742e-05 -2.811149e-22
2.862595e-05 -7.424651e-06 -1.133435e-06
1.676248e-05 -2.550839e-05 8.517346e-07
1.432679e-05 2.693602e-05 8.641518e-07
-9.078705e-06 -2.908875e-05 8.947692e-07
-2.738858e-05 -1.335830e-05 8.947692e-07
4.240964e-06 -3.017602e-05 8.947692e-07
2.492834e-05 -1.765743e-05 -8.281357e-07
2.572416e-05 1.651349e-05 -8.084912e-07
2.946001e-05 -8.006572e-06 8.466979e-07
-2.867256e-05 5.363080e-06 -9.880803e-07
-2.222868e-05 2.146599e-05 -2.811149e-22
3.388487e-06 -2.888708e-05 -9.328627e-07
-8.034400e-06 -2.793235e-05 -9.180097e-07
-2.583830e-05 -1.334234e-05 -9.290249e-07
-2.789402e-05 1.242135e-05 8.411254e-07
1.511476e-05 -2.652848e-05 8.434055e-07
-2.643340e-05 1.093578e-05 2.074172e-08
2.529808e-05 1.352468e-05 4.219476e-07
2.529808e-05 -1.352468e-05 4.219476e-07
1.420310e-05 -2.549375e-05 -9.958688e-07
1.543539e-05 2.628991e-05 -8.836233e-07
-2.272216e-05 2.094294e-05 -2.811149e-22
-1.387661e-05 2.719204e-05 8.471415e-07
-2.291133e-05 1.716349e-05 2.192244e-07
2.718137e-05 -1.379328e-05 -8.880710e-07
2.718137e-05 1.379328e-05 -8.880710e-07
-1.148261e-05 -2.686303e-05 1.013030e-06
-2.946295e-05 8.078577e-06 8.262171e-07
-1.538571e-05 2.636977e-05 8.453843e-07
-3.052019e-05 -1.046753e-06 8.379004e-07
1.852996e-05 2.257035e-05 1.006623e-06
1.852996e-05 -2.257035e-05 1.006623e-06
-2.320332e-05 2.040855e-05 -2.811149e-22
-1.757945e-05 2.492755e-05 8.696430e-07
1.500522e-05 -2.478734e-05 -8.433959e-07
1.487846e-05 2.466533e-05 -6.463500e-07
2.539688e-05 -1.465299e-05 -1.062957e-06
2.539688e-05 1.465299e-05 -1.062957e-06
2.119535e-05 -2.105150e-05 1.141508e-06
2.119535e-05 2.105150e-05 1.141508e-06
-1.840646e-05 -2.253330e-05 9.401954e-07
8.941557e-06 2.915999e-05 8.719408e-07
2.841624e-05 5.169455e-06 7.472717e-07
-2.367193e-05 1.986311e-05 -2.811149e-22
-2.866306e-05 4.742315e-06 9.087568e-07
-5.210664e-06 2.860187e-05 9.237703e-07
-6.373737e-06 2.988680e-05 8.179811e-07
2.014610e-05 2.290493e-05 8.684945e-07
2.014610e-05 -2.290493e-05 8.684945e-07
-2.618992e-05 1.549392e-05 9.275085e-07
2.170387e-05 1.887498e-05 5.797609e-07
2.170387e-05 -1.887498e-05 5.797609e-07
9.376912e-06 2.775843e-05 1.053986e-06
-2.833618e-05 6.624907e-06 9.435625e-07
-2.412771e-05 1.930691e-05 -2.811149e-22
-3.056984e-05 -8.983774e-07 -7.934867e-07
-2.859839e-05 7.899730e-06 -1.144634e-06
1.132293e-05 -2.635017e-05 -4.052744e-07
-2.913128e-05 -2.195376e-06 -1.012834e-06
-1.786622e-05 2.234145e-05 3.862189e-08
-2.901239e-05 9.516028e-06 8.425300e-07
1.805771e-05 2.243539e-05 -6.381329e-07
1.220336e-05 2.800111e-05 -8.316142e-07
-3.053888e-05 6.212213e-07 -8.312269e-07
-2.943888e-05 2.434741e-06 1.127540e-06
-2.457043e-05 1.874025e-05 -2.811149e-22
2.833234e-05 -7.670106e-06 1.075200e-06
-2.884352e-05 -2.915395e-06 8.571477e-07
8.799051e-06 -2.789801e-05 1.032601e-06
-2.917911e-05 1.741967e-06 -1.021801e-06
2.910539e-05 -6.578786e-06 -1.144522e-06
-2.123815e-05 1.949979e-05 -6.842289e-07
-2.807400e-05 7.505899e-06 9.143820e-07
2.849463e-05 2.798598e-06 2.415140e-07
2.773044e-05 -8.602452e-06 8.940912e-07
2.933285e-05 1.082760e-06 1.075430e-06
-2.499984e-05 1.816345e-05 -2.811149e-22
1.405047e-05 2.529038e-05 -8.005122e-07
-2.095042e-05 -2.219168e-05 8.556760e-07
2.878180e-05 3.960394e-06 -9.089680e-07
1.352015e-05 -2.601352e-05 1.061463e-06
-2.818258e-05 -7.185780e-06 9.322239e-07
-6.193995e-06 2.878687e-05 1.105621e-06
-2.745101e-05 -9.740796e-06 9.621470e-07
2.694923e-05 -1.030239e-05 -7.091866e-07
-5.155320e-06 2.905535e-05 -1.121371e-06
-3.029409e-05 -3.967387e-06 8.239484e-07
3.006855e-05 7.126378e-06 -2.811149e-22
-2.541572e-05 1.757681e-05 -2.811149e-22
-1.691493e-05 -2.308186e-05 -1.524986e-07
2.823926e-05 6.032120e-06 -7.398661e-07
-2.932887e-05 -1.637323e-06 1.083277e-06
-1.938412e-05 2.223829e-05 1.119469e-06
-1.907225e-05 -2.389525e-05 8.034208e-07
2.944360e-05 -8.195920e-06 -8.138833e-07
-2.753283e-05 9.395235e-06 9.375385e-07
-1.910073e-05 -2.194888e-05 9.407221e-07
2.779673e-05 -8.650541e-06 -9.513289e-07
-8.099749e-06 2.744204e-05 1.211030e-07
-2.581783e-05 1.698066e-05 -2.811149e-22
1.048231e-05 -2.723019e-05 -9.929347e-07
4.386451e-06 -2.838295e-05 -4.984219e-07
2.249446e-05 1.816038e-05 7.782701e-07
2.249446e-05 -1.816038e-05 7.782701e-07
3.030168e-05 -3.681965e-06 -8.504042e-07
-2.484097e-05 1.768313e-05 8.787524e-07
-2.938844e-05 -5.908247e-07 -1.090021e-06
1.241060e-05 -2.800296e-05 -7.414513e-07
-2.597761e-05 -1.222818e-05 -4.811433e-07
-8.940413e-06 -2.723518e-05 -3.633564e-07
-2.620596e-05 1.637530e-05 -2.811149e-22
6.970554e-06 -2.838978e-05 1.022793e-06
1.278859e-05 2.629457e-05 1.026111e-06
-2.852139e-05 2.229202e-06 7.322834e-08
1.621484e-05 2.455910e-05 1.100853e-06
-2.679949e-05 1.137275e-05 9.520495e-07
-2.277366e-05 2.033176e-05 8.463541e-07
2.912227e-05 -9.129016e-06 8.548796e-07
2.852472e-05 -1.096764e-05 8.163119e-07
-9.757890e-06 -2.760881e-05 1.046508e-06
-2.677819e-05 -1.184868e-05 1.046508e-06
-2.657991e-05 1.576108e-05 -2.811149e-22
2.650055e-05 -1.523065e-05 -8.113818e-07
2.643550e-05 1.534433e-05 -8.108491e-07
-2.462236e-05 1.489521e-05 6.030245e-07
-2.469023e-06 2.850663e-05 1.294116e-07
1.350177e-05 -2.525974e-05 -2.842709e-07
5.312493e-07 -3.054675e-05 -8.253116e-07
2.941337e-05 -3.423784e-06 1.138945e-06
2.822255e-05 1.178356e-05 -7.927576e-07
-2.562118e-05 -1.664158e-05 -8.252912e-07
-1.894709e-05 -2.396655e-05 -8.252912e-07
-2.693945e-05 1.513833e-05 -2.811149e-22
6.876012e-06 2.887937e-05 -1.145775e-06
-2.906642e-05 3.806045e-06 1.060372e-06
9.087221e-06 2.796419e-05 -1.093028e-06
5.155185e-06 -2.880922e-05 1.039321e-06
-3.030540e-05 4.015240e-06 8.066510e-07
-1.100904e-05 2.757354e-05 1.145968e-06
1.521737e-05 -2.644341e-05 -8.639173e-07
1.412530e-05 -2.500206e-05 4.909186e-07
6.886155e-06 -2.979185e-05 -7.993986e-07
-7.000093e-07 -2.927993e-05 -1.049114e-06
-2.728441e-05 1.450738e-05 -2.811149e-22
-1.714804e-05 -2.375151e-05 -1.052005e-06
-2.388389e-05 -1.695277e-05 -1.049359e-06
1.223018e-05 -2.654881e-05 -1.021468e-06
-8.826865e-06 2.817092e-05 -1.123974e-06
-1.594850e-05 -2.471837e-05 1.097180e-06
-2.302041e-05 -1.832404e-05 1.099026e-06
-2.318318e-06 -2.933152e-05 1.099042e-06
6.693496e-06 2.872257e-05 1.117533e-06
1.381268e-05 -2.733800e-05 -7.420777e-07
-2.839259e-05 3.502160e-06 6.309517e-08
-2.761460e-05 1.386857e-05 -2.811149e-22
5.795323e-06 -2.813063e-05 5.014881e-07
-2.308137e-05 1.838508e-05 1.121259e-06
-2.467416e-05 1.582447e-05 -1.059558e-06
-1.779769e-05 2.488857e-05 -7.782303e-07
-8.760125e-06 -2.740685e-05 5.958633e-07
-2.595569e-05 -1.241156e-05 5.921052e-07
-2.620034e-05 1.259479e-05 9.221024e-07
1.878258e-05 2.168199e-05 -4.212375e-07
1.878258e-05 -2.168199e-05 -4.212375e-07
-2.486824e-05 1.468053e-05 -7.420143e-07
-2.792983e-05 1.322225e-05 -2.811149e-22
-2.790464e-05 6.980849e-06 -5.820752e-07
2.845708e-05 -6.612469e-06 1.013550e-06
2.201971e-05 -2.125149e-05 -7.729792e-07
2.201971e-05 2.125149e-05 -7.729792e-07
4.245611e-06 -2.845804e-05 5.961492e-07
-1.693330e-05 2.410106e-05 1.108175e-06
1.512007e-05 -2.429335e-05 -1.382634e-07
-1.301205e-05 -2.768946e-05 7.813980e-07
4.296311e-06 -3.030348e-05 -7.681869e-07
3.351441e-06 2.842884e-05 2.115885e-07
-2.822993e-05 1.256878e-05 -2.811149e-22
9.894325e-06 -2.897727e-05 7.530440e-07
-3.015192e-05 -5.292019e-06 7.611613e-07
-2.072288e-05 2.248340e-05 7.999490e-07
7.022609e-06 -2.777858e-05 -3.233176e-07
2.609559e-05 -1.574727e-05 8.897557e-07
2.609172e-05 1.575523e-05 8.890989e-07
-2.753608e-05 7.756933e-06 6.352491e-08
-2.673913e-06 3.044729e-05 8.124430e-07
-1.341712e-05 2.527827e-05 1.677059e-07
8.342206e-06 -2.943639e-05 7.800948e-07
-2.851475e-05 1.190849e-05 -2.811149e-22
-1.146786e-05 -2.623348e-05 -2.358717e-07
3.065889e-05 -1.819751e-06 -6.304572e-07
2.992733e-05 6.697819e-06 -6.943330e-07
-2.378244e-06 3.048622e-05 -7.978423e-07
2.079763e-05 2.000824e-05 7.194432e-07
2.079763e-05 -2.000824e-05 7.194432e-07
-3.058887e-05 1.155007e-06 7.635644e-07
-6.579611e-06 2.985934e-05 -8.011201e-07
-2.924927e-05 -3.856592e-06 1.119880e-06
-2.936403e-05 -8.709535e-06 -7.431259e-07
2.989459e-05 7.824112e-06 -2.811149e-22
-2.878413e-05 1.124176e-05 -2.811149e-22
-2.752522e-05 -1.340782e-05 -7.562745e-07
-1.040091e-05 -2.880648e-05 -7.452323e-07
1.614541e-05 2.469276e-05 -1.119931e-06
-2.012529e-06 -2.924581e-05 -1.060549e-06
-1.613811e-05 -2.448004e-05 -1.062950e-06
-2.312068e-05 -1.802258e-05 -1.060629e-06
-2.114906e-06 2.936466e-05 -1.104220e-06
-1.265689e-05 -2.573569e-05 4.044469e-07
1.164227e-05 2.829098e-05 7.831116e-07
-1.227012e-05 2.800070e-05 8.057292e-07
-2.903792e-05 1.056894e-05 -2.811149e-22
-2.794675e-05 -6.153623e-06 1.525856e-07
-2.403105e-05 1.719451e-05 -1.129322e-06
6.080226e-06 2.819759e-05 -7.019139e-07
1.621766e-05 -2.465991e-05 -1.122586e-06
1.199590e-05 -2.695604e-05 1.120397e-06
-2.339612e-05 -1.968331e-05 -8.021282e-07
-1.586553e-05 -2.613611e-05 -8.021282e-07
[...]
POINT_DATA 3327
VECTORS 10.000GHz_fone_imag double
2.492025e-04 -7.398705e-05 1.759673e-02
3.300260e-04 2.655494e-04 1.734044e-02
3.001370e-04 -3.412348e-04 1.751497e-02
-1.440904e-02 3.404861e-03 1.107746e-02
1.315530e-02 1.378282e-02 -1.068572e-02
1.306012e-02 -1.363749e-02 -1.055879e-02
6.544262e-03 -1.416194e-03 -2.238605e-02
-1.077295e-02 -7.959923e-03 1.244603e-02
-1.111706e-02 7.553560e-03 1.260611e-02
1.354403e-02 -5.252933e-03 1.104231e-02
-1.307820e-02 -5.177391e-03 -1.810768e-02
1.923464e-02 -2.826012e-03 -9.924305e-03
1.019444e-02 1.039770e-02 1.135357e-02
3.082198e-04 -2.102268e-05 1.755692e-02
1.025289e-02 -1.040654e-02 1.139815e-02
1.906830e-02 -7.435659e-03 -6.820205e-03
8.695515e-03 4.034417e-03 -2.092137e-02
-1.732929e-02 -3.995032e-03 -1.318948e-02
-5.859746e-03 1.321663e-02 -1.697664e-02
-1.027698e-02 -8.343203e-03 1.245302e-02
-1.024251e-02 8.320173e-03 1.244807e-02
4.297702e-03 -8.060868e-03 -2.133843e-02
-2.774481e-03 -1.460294e-02 1.107084e-02
-1.278060e-02 -3.073370e-03 1.228428e-02
2.383190e-05 -1.044445e-04 1.751248e-02
1.966489e-02 -5.363585e-03 -4.304675e-03
-7.601960e-03 1.167471e-02 1.175974e-02
-6.876119e-03 -1.247001e-02 1.141360e-02
4.014137e-03 1.398746e-02 1.091193e-02
1.313392e-02 6.432196e-03 1.099700e-02
-2.018739e-03 1.447914e-02 1.100386e-02
1.145780e-02 -8.327377e-03 1.192578e-02
1.121484e-02 7.217983e-03 1.246098e-02
-1.336619e-02 3.746167e-03 1.205727e-02
-1.826324e-02 3.407656e-03 -1.157476e-02
4.538912e-04 5.443397e-05 1.756567e-02
2.229875e-03 -1.758226e-02 -1.340462e-02
-4.841377e-03 -1.677359e-02 -1.363673e-02
-1.579373e-02 -8.075098e-03 -1.330497e-02
1.269394e-02 -5.653841e-03 1.201664e-02
-6.864628e-03 1.137828e-02 1.251012e-02
3.965253e-04 -3.680603e-04 -2.349210e-02
-7.416535e-03 -4.131455e-03 -2.144304e-02
-7.549482e-03 4.200873e-03 -2.140114e-02
8.910028e-03 -1.642799e-02 -1.133201e-02
7.296435e-03 1.255575e-02 1.143028e-02
1.568079e-04 1.368945e-04 1.759481e-02
6.264528e-03 -1.235952e-02 1.163809e-02
3.358621e-03 -2.309604e-03 -2.291917e-02
1.274127e-02 -6.931759e-03 1.123178e-02
1.355838e-02 6.923540e-03 1.089881e-02
7.600150e-03 1.737090e-02 -1.099866e-02
1.297022e-02 -3.529937e-03 1.234908e-02
7.019810e-03 -1.185014e-02 1.173362e-02
1.407335e-02 6.281108e-04 1.226056e-02
-1.198537e-02 -1.417958e-02 -1.165903e-02
-1.164933e-02 1.450547e-02 -1.118724e-02
-2.055218e-04 2.410361e-04 1.758980e-02
8.181752e-03 -1.163423e-02 1.147898e-02
8.010266e-03 -1.376559e-02 -1.583082e-02
6.423599e-03 1.081263e-02 -1.928279e-02
1.706046e-02 -9.814926e-03 -8.800315e-03
1.710678e-02 9.807122e-03 -8.735984e-03
-1.415692e-02 1.404132e-02 1.335661e-03
-1.408120e-02 -1.402181e-02 1.201376e-03
1.123066e-02 1.350458e-02 -1.358179e-02
-4.692778e-03 -1.404537e-02 1.130565e-02
-1.402037e-02 -2.664372e-03 -1.765952e-02
-4.394868e-05 3.779733e-04 1.774513e-02
1.648804e-02 -3.288677e-03 -1.467160e-02
3.127320e-03 -1.697996e-02 -1.365054e-02
2.960703e-03 -1.316016e-02 1.214538e-02
-9.178853e-03 -1.060746e-02 1.138317e-02
-9.521341e-03 1.052408e-02 1.145978e-02
1.344019e-02 -8.037785e-03 1.031278e-02
-7.668103e-03 -7.515080e-03 -2.043167e-02
-7.629734e-03 7.500713e-03 -2.039001e-02
-6.510608e-03 -1.926799e-02 -8.647652e-03
1.718792e-02 -4.192237e-03 -1.328917e-02
-5.445632e-04 1.071779e-04 1.760864e-02
-1.277598e-02 -1.616496e-04 1.298175e-02
-1.967652e-02 5.315860e-03 -2.213027e-03
3.141265e-03 -7.254590e-03 -2.214365e-02
-1.890770e-02 -1.345537e-03 -1.105182e-02
7.231952e-04 -7.086947e-04 -2.333177e-02
1.357955e-02 -4.686203e-03 1.180303e-02
7.834664e-03 9.789305e-03 -1.921009e-02
5.372707e-03 1.256000e-02 1.217226e-02
-1.315596e-02 8.912883e-05 1.286079e-02
2.047372e-02 -1.720514e-03 -4.871254e-03
1.122790e-05 -3.285459e-04 1.760005e-02
-1.912563e-02 5.242033e-03 -8.697186e-03
1.579205e-02 2.090369e-03 -1.536502e-02
-6.097908e-03 1.818138e-02 -9.912579e-03
-1.896048e-02 1.203618e-03 -1.100191e-02
1.954972e-02 -3.984126e-03 1.294297e-03
-9.550218e-03 8.815559e-03 -1.866629e-02
1.659958e-02 -4.519022e-03 -1.383132e-02
-4.542328e-03 -5.632495e-04 -2.306950e-02
-1.603496e-02 5.297116e-03 -1.454204e-02
-1.995119e-02 -7.357828e-04 -7.509822e-03
1.109286e-04 1.666729e-04 1.755852e-02
8.337525e-03 1.391762e-02 -1.569781e-02
9.645745e-03 1.047495e-02 1.177427e-02
1.696229e-02 2.437284e-03 -1.401414e-02
-9.135028e-03 1.764444e-02 -9.089367e-03
1.703218e-02 4.211768e-03 -1.411755e-02
4.051138e-03 -1.967890e-02 -6.128708e-03
1.734757e-02 6.166549e-03 -1.207550e-02
1.308283e-02 -4.946531e-03 -1.782484e-02
-3.505056e-03 2.028242e-02 -4.848633e-03
1.353061e-02 1.632922e-03 1.238535e-02
6.454439e-05 -2.811222e-04 1.742023e-02
-8.110217e-05 7.913590e-07 1.757016e-02
-1.252290e-03 -2.275419e-03 -2.321222e-02
1.391991e-02 2.813599e-03 -1.747483e-02
1.982623e-02 1.315076e-03 -8.159959e-03
1.335875e-02 -1.538443e-02 -4.751745e-03
8.042519e-03 1.002236e-02 1.335609e-02
1.266410e-02 -3.533028e-03 1.271076e-02
1.661859e-02 -5.320366e-03 -1.398355e-02
1.176394e-02 1.355740e-02 -1.322767e-02
1.698174e-02 -5.322787e-03 -1.282551e-02
4.932220e-04 -2.402524e-03 -2.337972e-02
-1.079599e-04 -4.422208e-04 1.732403e-02
6.830800e-03 -1.754126e-02 -1.168879e-02
1.580516e-03 -1.044369e-02 -2.081143e-02
-1.181956e-02 -9.334809e-03 -1.720990e-02
-1.175040e-02 9.315048e-03 -1.712704e-02
1.402904e-02 -1.603099e-03 1.190398e-02
1.218166e-02 -8.345700e-03 1.127409e-02
-1.998151e-02 -8.855191e-04 -7.228614e-03
5.023499e-03 -1.104748e-02 1.340090e-02
-9.120145e-03 -4.146702e-03 -2.132987e-02
-2.556559e-03 -7.317611e-03 -2.220427e-02
3.258194e-04 -4.822027e-05 1.749382e-02
-4.816040e-03 1.851121e-02 -1.078244e-02
-8.481356e-03 -1.725498e-02 -1.051523e-02
1.579868e-03 -2.643001e-05 -2.374803e-02
-1.119059e-02 -1.606933e-02 -7.792281e-03
1.712911e-02 -7.191639e-03 -1.262787e-02
1.089534e-02 -9.385507e-03 1.182719e-02
-1.313949e-02 4.234494e-03 1.232972e-02
-1.211343e-02 4.759008e-03 1.288212e-02
6.341343e-03 1.824627e-02 -1.002810e-02
1.761954e-02 8.026190e-03 -1.014143e-02
-1.623744e-04 2.688167e-04 1.770570e-02
1.168452e-02 -6.539139e-03 1.254169e-02
1.161958e-02 6.527586e-03 1.242332e-02
9.948149e-03 -6.266373e-03 -2.005054e-02
-8.752905e-05 -3.311980e-03 -2.358547e-02
2.743569e-03 -5.488501e-03 -2.292420e-02
2.433381e-04 -1.379573e-02 1.202456e-02
-2.055731e-02 2.452827e-03 -3.616104e-03
1.171166e-02 4.847252e-03 1.305328e-02
-1.160448e-02 -7.469416e-03 1.214211e-02
-8.499257e-03 -1.087770e-02 1.183945e-02
-7.565336e-05 8.761674e-05 1.758171e-02
4.619234e-03 2.000847e-02 -1.721579e-03
1.951259e-02 -2.654910e-03 -9.039785e-03
6.180512e-03 1.926993e-02 -6.903666e-03
-3.352673e-03 1.887472e-02 -9.960517e-03
1.324208e-02 -2.197499e-03 1.280478e-02
8.062581e-03 -1.870261e-02 -1.439897e-03
7.300054e-03 -1.240808e-02 1.144598e-02
-4.542634e-03 8.208716e-03 -2.123868e-02
3.108813e-03 -1.303804e-02 1.273808e-02
-2.083361e-04 -1.926152e-02 -9.811609e-03
5.269495e-05 3.613597e-06 1.764023e-02
-1.156014e-02 -1.555023e-02 -9.409306e-03
-1.583568e-02 -1.094776e-02 -9.814943e-03
7.669075e-03 -1.755390e-02 -1.061234e-02
-5.827979e-03 1.953617e-02 -4.966080e-03
1.065527e-02 1.696380e-02 -7.517367e-03
1.568140e-02 1.259709e-02 -7.090905e-03
1.667827e-03 2.003306e-02 -7.073181e-03
-4.582065e-03 -1.986799e-02 -5.236870e-03
5.814173e-03 -1.086733e-02 1.339338e-02
8.112362e-04 1.656552e-04 -2.335234e-02
-2.783894e-04 2.440730e-04 1.774527e-02
-1.341264e-03 9.900663e-03 -2.075490e-02
1.614391e-02 -1.287542e-02 -4.806501e-03
-1.648493e-02 1.073477e-02 -9.181616e-03
-7.165079e-03 1.013003e-02 1.324439e-02
3.868165e-03 1.170018e-02 -1.961163e-02
1.092029e-02 5.083599e-03 -1.971321e-02
1.593067e-02 -7.438754e-03 -1.406067e-02
5.482346e-03 6.461267e-03 -2.167296e-02
5.129755e-03 -6.765347e-03 -2.163006e-02
-1.253580e-02 7.515741e-03 -1.768966e-02
5.789278e-05 2.004936e-04 1.777900e-02
-1.072207e-02 2.200943e-03 -2.005127e-02
-1.831114e-02 4.049947e-03 -1.079164e-02
8.848420e-03 -8.718242e-03 1.313707e-02
8.872016e-03 8.731752e-03 1.306730e-02
-1.994298e-03 1.188746e-02 -1.968898e-02
1.145828e-02 -1.643017e-02 -5.974130e-03
1.994021e-03 -2.937010e-03 -2.328370e-02
5.568717e-03 1.144377e-02 1.303167e-02
1.814851e-03 -1.221780e-02 1.334664e-02
-9.050206e-04 -4.288077e-03 -2.307294e-02
-2.670804e-04 -4.056432e-05 1.748702e-02
-4.257065e-03 1.133804e-02 1.364846e-02
1.227982e-02 2.377485e-03 1.341716e-02
8.554541e-03 -9.279733e-03 1.304554e-02
1.617858e-03 -5.868101e-03 -2.266858e-02
-1.297433e-02 7.725546e-03 1.092876e-02
-1.292104e-02 -7.657863e-03 1.092381e-02
1.152015e-03 -4.695164e-04 -2.335246e-02
9.621062e-04 -1.312560e-02 1.278022e-02
2.051890e-03 -2.862023e-03 -2.339769e-02
-3.784675e-03 1.179016e-02 1.341396e-02
1.342284e-04 -2.659171e-05 1.757764e-02
-1.513539e-03 -4.375506e-03 -2.298650e-02
9.983701e-03 -7.249018e-04 1.498504e-02
1.074752e-02 2.351540e-03 1.420575e-02
-1.030316e-03 1.253085e-02 1.320905e-02
-9.844925e-03 -9.290599e-03 -1.823018e-02
-9.977449e-03 9.412922e-03 -1.828927e-02
1.251720e-02 -2.891880e-04 1.340798e-02
-2.698358e-03 1.306724e-02 1.254074e-02
2.005693e-02 2.751043e-03 -6.167094e-03
-1.164332e-02 -3.336051e-03 1.374810e-02
2.715656e-04 -2.177589e-05 1.750956e-02
-3.907688e-04 5.920647e-04 1.749869e-02
-1.101528e-02 -5.389888e-03 1.344971e-02
-3.984401e-03 -1.156907e-02 1.362351e-02
1.155292e-02 1.691623e-02 -5.947639e-03
-2.019934e-03 -1.951203e-02 -8.977923e-03
-1.060487e-02 -1.668800e-02 -9.051497e-03
-1.502717e-02 -1.256722e-02 -8.995814e-03
-1.705942e-03 2.027065e-02 -5.972547e-03
3.501624e-03 7.825962e-03 -2.163014e-02
-4.851772e-03 -1.198263e-02 1.315619e-02
4.705859e-03 -1.178738e-02 1.292494e-02
-7.230684e-04 7.499165e-05 1.750479e-02
3.037939e-03 4.945474e-04 -2.345627e-02
-1.669041e-02 1.189480e-02 -4.217022e-03
2.940021e-03 1.347432e-02 -1.818765e-02
1.135345e-02 -1.720671e-02 -4.904256e-03
-8.557871e-03 1.888309e-02 -4.803182e-03
-1.003011e-02 -8.298670e-03 1.301520e-02
-6.726986e-03 -1.126387e-02 1.296619e-02
4.981236e-03 -1.562803e-03 -2.291747e-02
-1.285276e-03 -1.296432e-02 1.301922e-02
4.838404e-03 -3.548358e-03 -2.244551e-02
-3.895031e-04 -8.893099e-05 1.753013e-02
5.003261e-03 3.405552e-03 -2.272645e-02
1.241769e-02 -9.374023e-06 -1.916349e-02
-4.397255e-04 -2.026994e-02 -5.073593e-03
1.402647e-02 -3.026566e-03 1.204244e-02
-5.935309e-03 1.199581e-02 1.323316e-02
-4.484633e-03 -1.154155e-02 1.288534e-02
-9.412192e-03 3.061134e-03 -2.093981e-02
-1.100289e-02 -1.572381e-02 -9.866014e-03
-6.390730e-03 -1.084020e-02 1.310007e-02
-2.474323e-03 1.096719e-03 -2.334646e-02
1.714755e-04 -3.672447e-04 1.765628e-02
1.282790e-02 1.116030e-03 1.332721e-02
4.162881e-03 1.093024e-02 1.372959e-02
-1.191491e-02 1.791390e-03 1.353357e-02
-8.832102e-03 1.170092e-02 -1.730097e-02
1.188418e-02 -1.764979e-03 1.370083e-02
-1.975091e-02 2.653021e-03 -7.652545e-03
1.298676e-02 -1.473222e-02 -8.527930e-03
1.324053e-02 1.498113e-02 -8.003676e-03
1.856813e-02 -8.178115e-03 -3.956471e-03
-6.052047e-03 -1.694818e-02 -1.288744e-02
3.042860e-04 2.200265e-04 1.754020e-02
1.266592e-02 1.617264e-02 -7.963281e-04
1.061439e-02 3.539261e-03 1.412083e-02
-8.317355e-03 -4.926359e-04 -2.172712e-02
-1.096170e-03 1.726789e-03 -2.352473e-02
-5.601346e-03 1.954609e-02 -6.384342e-03
1.358083e-03 -2.043921e-02 -4.970193e-03
9.366808e-03 -1.225223e-02 -1.644589e-02
-3.674768e-03 1.158434e-02 1.355971e-02
3.904984e-03 1.088569e-02 1.399957e-02
-2.360016e-03 1.615853e-04 -2.357408e-02
-1.911737e-04 -1.039438e-05 1.746342e-02
2.383706e-03 9.815001e-04 -2.335628e-02
1.783799e-02 -9.808583e-03 -2.204196e-03
1.974974e-02 5.981490e-03 -4.148108e-03
-2.988197e-03 3.074373e-03 -2.324706e-02
-2.947758e-03 -3.371213e-03 -2.304523e-02
3.041489e-03 1.114586e-02 1.413829e-02
1.163160e-02 1.610686e-02 -9.083332e-03
-7.255364e-03 -3.866443e-03 -2.206124e-02
-6.594676e-03 -3.802135e-03 -2.221083e-02
-1.847694e-03 -7.710029e-03 -2.217927e-02
5.060683e-04 -3.522339e-04 1.769410e-02
-1.582334e-03 -7.302794e-03 -2.220500e-02
7.294183e-03 1.026255e-02 1.312478e-02
5.084881e-04 -1.196556e-02 1.366806e-02
1.193431e-02 -1.519779e-02 -9.973639e-03
-1.292264e-02 8.960548e-04 1.307107e-02
-1.822422e-03 1.140408e-02 -2.027604e-02
-1.217082e-02 7.373368e-04 1.341670e-02
7.518306e-03 -9.994642e-03 1.358077e-02
8.015498e-03 1.090415e-02 1.254288e-02
-1.123514e-02 5.462981e-03 1.377119e-02
1.196151e-05 1.659512e-04 1.765387e-02
-1.233262e-02 -7.734822e-04 1.324927e-02
-5.399052e-03 -1.032283e-02 -2.020454e-02
-1.301907e-02 2.020918e-03 -1.856704e-02
-1.865072e-02 -5.916517e-03 -9.460733e-03
-1.521649e-02 1.267108e-02 -7.034238e-03
-2.700747e-03 1.755325e-03 -2.343906e-02
-2.764666e-03 -1.762857e-03 -2.354427e-02
-1.928660e-03 -1.232391e-02 1.313018e-02
1.725297e-02 1.113658e-02 -1.235370e-03
1.669379e-02 -1.174768e-02 -1.133147e-04
-1.386860e-06 1.562501e-05 1.755334e-02
-2.700317e-03 -1.144147e-02 1.381978e-02
1.125047e-02 -5.475127e-03 1.332081e-02
-1.683209e-02 7.683745e-03 -1.154130e-02
1.418432e-02 -3.153446e-03 1.156511e-02
1.124783e-02 1.589038e-02 -9.546857e-03
1.571201e-02 1.128607e-02 -9.562469e-03
5.716103e-04 1.934523e-02 -9.542767e-03
-4.309338e-03 -4.235483e-03 -2.255337e-02
1.198078e-02 5.238104e-03 1.281720e-02
-1.263023e-02 -9.318933e-04 1.320070e-02
-9.466829e-05 1.627182e-04 1.742518e-02
-1.164266e-02 1.574982e-03 -1.977992e-02
5.541766e-04 -7.874483e-03 -2.235141e-02
7.983191e-04 -7.872488e-03 -2.223805e-02
2.186823e-03 -4.363400e-03 -2.330475e-02
3.262909e-03 9.077046e-03 -2.102044e-02
5.462871e-03 -1.858533e-02 -9.471359e-03
8.160224e-03 1.850449e-02 -6.002279e-03
2.019583e-02 3.458094e-03 -2.130051e-03
-5.686445e-03 1.045550e-02 1.381129e-02
3.138866e-03 -1.172669e-02 1.348572e-02
3.370320e-04 2.393519e-04 1.747170e-02
-6.713459e-04 -6.302395e-05 1.752260e-02
-1.941609e-02 7.083266e-03 -5.334623e-03
-9.155858e-03 7.224156e-03 1.379841e-02
-1.039117e-03 3.104468e-03 -2.370870e-02
-5.683711e-03 4.263354e-03 -2.219398e-02
2.045437e-02 1.513271e-03 -5.532512e-03
2.041600e-02 -2.137911e-04 -5.008559e-03
-9.583005e-03 -1.070094e-02 -1.818944e-02
-9.210500e-03 1.064834e-02 -1.805147e-02
-1.211754e-02 -1.060340e-03 1.358647e-02
5.464399e-03 -5.226734e-03 -2.213989e-02
-2.142897e-04 -6.727378e-05 1.770543e-02
6.543848e-03 -1.968348e-02 -2.843183e-03
-6.687703e-03 8.655135e-03 -2.075402e-02
1.902618e-02 6.504990e-03 4.702755e-04
-1.147024e-02 4.312891e-03 1.336028e-02
-1.937804e-02 -2.662969e-03 -9.264034e-03
9.956436e-03 1.791000e-02 -2.675611e-03
-1.951279e-02 -6.425890e-03 -1.701661e-03
2.733044e-03 6.443253e-04 -2.339914e-02
1.537005e-02 1.374345e-02 -3.202766e-03
-8.064601e-03 5.112279e-03 1.509323e-02
-2.540595e-04 -1.768083e-04 1.769332e-02
3.248448e-03 2.027758e-02 -3.391546e-03
-8.757847e-03 -1.775621e-02 -8.783462e-03
1.642650e-03 -4.024442e-03 -2.334288e-02
1.967156e-02 -3.758465e-03 -8.327456e-03
4.006458e-03 1.222707e-02 1.311331e-02
1.139153e-02 4.782171e-03 1.352842e-02
-2.518831e-03 1.283253e-02 1.301936e-02
6.937503e-03 1.021292e-02 1.346793e-02
-1.963529e-02 -1.739245e-03 -8.085100e-03
1.027901e-02 7.396912e-03 1.327670e-02
-1.278838e-04 -3.581621e-04 1.755388e-02
1.026129e-02 7.799405e-03 1.329612e-02
1.072822e-02 -6.652637e-03 1.343614e-02
-5.362233e-03 1.051178e-02 1.398009e-02
-1.015795e-02 1.778057e-02 -6.431652e-03
-1.975908e-02 -2.191800e-03 2.054359e-03
-7.918063e-03 -1.825164e-02 1.801297e-03
-8.475378e-03 8.081083e-03 1.384290e-02
-8.596029e-03 -8.272939e-03 1.388796e-02
1.880269e-02 -3.610038e-03 -1.098221e-02
-1.556725e-02 4.002938e-04 1.041287e-02
4.043727e-04 -1.336256e-04 1.763571e-02
9.045095e-03 1.850862e-02 -1.711586e-03
4.241346e-03 -5.321539e-05 -2.298625e-02
7.140222e-03 -1.062942e-02 1.291108e-02
2.021806e-02 -3.795143e-03 -1.638484e-03
1.464833e-04 8.051041e-03 -2.213157e-02
3.722046e-04 1.313374e-02 1.301772e-02
1.067881e-02 7.675521e-03 1.302033e-02
9.293382e-03 8.352691e-03 1.333969e-02
1.758082e-03 1.239244e-02 1.331725e-02
1.938358e-02 7.061892e-03 -2.517331e-03
-1.241073e-04 4.298520e-04 1.764276e-02
6.688099e-03 4.608444e-03 -2.209802e-02
-8.218929e-03 -7.731496e-04 -2.169019e-02
-1.901498e-02 7.795309e-03 -2.147091e-03
-6.215654e-03 -1.937690e-02 -2.304586e-03
-1.080730e-02 -3.010876e-03 -2.018316e-02
2.740172e-03 -1.956159e-02 3.019223e-03
-9.561741e-03 7.237013e-03 1.382848e-02
-9.476033e-03 -7.071567e-03 1.389684e-02
3.767871e-03 -1.985701e-02 -7.891319e-03
4.307675e-03 -1.953749e-02 -8.011553e-03
2.534230e-04 -5.736087e-05 1.754670e-02
1.129354e-02 -8.535344e-03 1.243260e-02
1.709777e-02 -1.083723e-02 -6.976836e-03
8.256409e-03 -1.465503e-03 -2.169558e-02
6.085732e-04 1.703966e-02 8.327116e-03
-1.831322e-02 -7.855420e-03 -8.171279e-03
-1.853141e-02 -7.153124e-03 -8.178116e-03
-1.151644e-02 -2.539761e-03 1.389134e-02
-1.394167e-02 8.431444e-03 -1.542880e-02
-1.404485e-02 -8.455820e-03 -1.542427e-02
1.701797e-02 1.193018e-02 -3.029109e-03
-4.755745e-04 6.821272e-04 1.744391e-02
-7.995120e-03 -8.499410e-03 -1.989179e-02
2.931110e-04 1.310226e-03 -2.354723e-02
2.055103e-02 -5.447637e-04 -2.450897e-03
6.359381e-03 -1.884807e-02 -8.149948e-03
1.938017e-02 -6.322588e-03 -4.144941e-03
8.937663e-03 -1.804168e-02 9.462725e-04
3.202393e-03 -1.131123e-02 1.424360e-02
-2.049252e-03 2.049112e-02 -3.572030e-03
-1.931468e-02 -4.660674e-03 -8.134783e-03
-1.919375e-02 -4.157161e-03 -8.964419e-03
-3.710613e-04 -3.603713e-04 1.739541e-02
-1.909886e-02 7.047281e-03 -3.113154e-03
7.520657e-03 -1.423535e-03 -2.222173e-02
-8.640966e-03 -1.816785e-02 -8.082908e-03
-1.135034e-02 1.031641e-03 1.397521e-02
-1.506514e-02 5.573961e-04 -1.706001e-02
6.372626e-03 2.390695e-03 -2.239098e-02
-1.979427e-02 -3.078197e-03 -8.287163e-03
-1.818780e-02 -8.779436e-03 1.166343e-03
-6.797866e-03 -1.902244e-02 1.420376e-03
1.273449e-02 1.581651e-02 -7.392248e-03
-2.872462e-04 -5.879507e-06 1.765205e-02
6.160033e-03 9.892872e-03 1.394471e-02
-4.769350e-03 -1.163853e-02 1.324258e-02
-5.320934e-03 -1.156766e-02 1.315385e-02
-8.173873e-03 -9.294417e-03 1.328384e-02
-8.759524e-03 -9.249875e-03 1.287566e-02
-1.059256e-02 -5.890979e-03 1.353202e-02
-1.062115e-02 -5.738073e-03 1.331054e-02
-1.225537e-02 -2.112034e-03 1.364311e-02
-1.267092e-02 -2.539799e-03 1.304083e-02
-1.173301e-02 -4.132351e-03 1.332549e-02
2.901079e-04 1.627194e-04 1.737747e-02
-1.238220e-04 -8.333298e-05 1.771406e-02
-1.221602e-02 -4.641484e-03 1.263661e-02
-3.351480e-03 -1.171024e-02 1.352249e-02
-2.918720e-03 -1.222702e-02 1.304844e-02
8.919515e-04 -1.198844e-02 1.364399e-02
5.143486e-03 -1.904536e-02 2.193041e-03
1.375568e-03 9.272953e-03 1.532891e-02
1.139290e-02 -7.605393e-04 1.436019e-02
-6.649185e-03 1.492736e-02 9.607603e-03
1.139999e-03 -1.208003e-02 1.335579e-02
-7.539975e-03 -3.501926e-03 -2.157685e-02
-1.351917e-04 -6.067663e-05 1.773365e-02
1.208640e-02 -1.657473e-02 -1.373157e-03
6.116444e-03 -1.010343e-02 1.381645e-02
-3.316924e-03 -1.124368e-02 1.382917e-02
-1.181281e-02 -3.074781e-03 1.383084e-02
-1.094380e-02 -4.953897e-03 1.392856e-02
1.133527e-02 -3.043783e-03 1.392524e-02
-5.088366e-04 1.125007e-02 1.408618e-02
9.785371e-03 5.904962e-03 1.404878e-02
2.350942e-03 1.115411e-02 1.403971e-02
6.915420e-03 1.031821e-02 1.361970e-02
-2.119219e-04 -3.032449e-04 1.769791e-02
-8.672106e-03 -8.065512e-03 1.387711e-02
-5.195551e-03 -1.089263e-02 1.383986e-02
-1.956073e-03 -1.154459e-02 1.391082e-02
-1.895274e-02 -6.544762e-03 -7.213724e-03
1.147984e-02 3.002176e-03 1.405299e-02
-1.062509e-02 4.963453e-03 1.414550e-02
-5.773756e-03 3.958677e-03 -2.238008e-02
1.236353e-02 -5.615960e-03 1.287575e-02
-7.742978e-03 8.058647e-03 1.443464e-02
5.349678e-03 -5.496721e-03 -2.221225e-02
2.467923e-04 -1.877595e-04 1.786001e-02
-1.134040e-03 1.296949e-02 -1.902317e-02
-1.657109e-04 5.403310e-04 -2.350193e-02
-1.364597e-02 -1.499213e-02 -6.499700e-03
-1.376979e-02 1.478717e-02 -6.433668e-03
-1.523578e-02 1.215282e-02 2.369347e-03
6.179289e-03 -9.585847e-03 1.426550e-02
4.271001e-03 -1.956707e-02 1.262517e-03
-3.547604e-04 -1.287286e-02 1.320639e-02
4.006821e-04 -2.018703e-02 1.469685e-03
-7.533996e-03 -1.039698e-02 1.309010e-02
2.288893e-04 2.310902e-04 1.769106e-02