# vtk DataFile Version 2.0
Electric current density generated by TTH
ASCII
DATASET UNSTRUCTURED_GRID
POINTS 3158 double
3.020402e-05 -7.397851e-21 -2.924383e-22
2.945269e-05 6.694906e-06 -2.924383e-22
-2.342960e-05 1.906139e-05 -2.924383e-22
1.442148e-05 2.401144e-05 6.514049e-07
-1.516084e-05 2.378129e-05 8.797667e-07
-2.399369e-05 -1.416463e-05 3.306172e-07
-9.393337e-06 2.828242e-05 -8.939562e-07
-2.935185e-05 -5.268144e-06 -8.764325e-07
-1.702771e-05 2.260476e-05 -9.602552e-07
1.089630e-06 2.821324e-05 9.075988e-07
-1.870780e-05 2.325634e-05 -8.515893e-07
-4.560558e-06 2.793579e-05 -9.640115e-07
-1.103899e-05 2.774032e-05 -8.425042e-07
-2.389571e-05 1.847371e-05 -2.924383e-22
-2.891172e-05 6.901926e-06 -9.568981e-07
2.576492e-05 1.075108e-05 -4.827720e-07
2.576492e-05 -1.075108e-05 4.827720e-07
1.611545e-05 -2.338082e-05 -1.024364e-06
-2.834264e-05 1.683933e-06 -1.021929e-06
2.792737e-05 -9.512310e-07 5.368257e-07
2.792737e-05 9.512310e-07 -5.368257e-07
-6.625607e-06 2.751709e-05 9.624797e-07
-1.325885e-05 2.506198e-05 9.970060e-07
-3.821877e-06 2.959250e-05 -8.600058e-07
-2.434708e-05 1.787463e-05 -2.924383e-22
2.980534e-05 9.828756e-07 8.758081e-07
2.980534e-05 -9.828756e-07 -8.758081e-07
-2.697628e-05 -7.177472e-06 4.753631e-07
2.632575e-05 -8.983272e-06 2.066367e-08
2.632575e-05 8.983272e-06 -2.066367e-08
-8.375219e-06 2.664456e-05 -5.086705e-07
2.378764e-05 1.532518e-05 -9.575707e-07
2.378764e-05 -1.532518e-05 9.575707e-07
1.970963e-05 -2.246603e-05 -8.109923e-07
1.963514e-05 2.247389e-05 8.552695e-07
-2.478344e-05 1.726453e-05 -2.924383e-22
1.723590e-05 -2.190673e-05 -3.685323e-07
2.509026e-05 1.608430e-05 8.925323e-07
2.509026e-05 -1.608430e-05 -8.925323e-07
-2.171144e-05 2.045013e-05 -8.715940e-07
1.059085e-05 -2.796432e-05 -7.929691e-07
-1.717871e-05 -2.435597e-05 -8.911019e-07
-1.709760e-05 2.311792e-05 1.166091e-06
-2.798261e-05 9.341111e-07 6.338189e-07
-1.802555e-05 2.231684e-05 -1.149524e-06
1.953513e-05 -2.095692e-05 1.138340e-06
-2.520452e-05 1.664377e-05 -2.924383e-22
1.953513e-05 2.095692e-05 -1.138340e-06
2.585296e-06 2.797067e-05 -7.608435e-07
6.275823e-06 2.916191e-05 8.683120e-07
-1.405888e-06 -2.778952e-05 1.461766e-07
-2.665465e-05 1.339603e-05 -8.663882e-07
2.872027e-05 -7.885798e-06 9.098251e-07
2.872027e-05 7.885798e-06 -9.098251e-07
-2.627358e-05 9.135337e-06 3.008966e-08
7.971426e-06 2.876221e-05 8.520883e-07
-1.930392e-05 -2.278343e-05 -8.367337e-07
-2.561004e-05 1.601276e-05 -2.924383e-22
1.072102e-06 -2.831339e-05 -9.839131e-07
-2.599691e-05 -1.147558e-05 -1.036297e-06
-2.269421e-07 -2.986161e-05 -8.360284e-07
-1.890274e-05 -2.042035e-05 1.560667e-07
-1.731039e-05 -2.241799e-05 -9.767798e-07
2.380503e-05 -1.454555e-05 -4.325172e-07
2.380503e-05 1.454555e-05 4.325172e-07
2.957372e-05 3.991977e-06 -8.564736e-07
2.957372e-05 -3.991977e-06 8.564736e-07
2.043439e-05 -2.175604e-05 -8.507526e-07
-2.599978e-05 1.537187e-05 -2.924383e-22
2.048189e-05 2.169472e-05 8.624827e-07
2.192135e-05 2.022856e-05 8.692991e-07
2.192135e-05 -2.022856e-05 -8.692991e-07
-1.915850e-05 2.017591e-05 -1.277455e-07
-3.657610e-06 2.846891e-05 -1.153788e-06
2.559678e-05 -1.523144e-05 -9.076534e-07
2.559678e-05 1.523144e-05 9.076534e-07
-2.688583e-05 -1.298286e-05 8.422100e-07
1.505093e-05 2.576836e-05 8.565065e-07
-1.062158e-05 2.667048e-05 -1.155056e-06
-2.637348e-05 1.472150e-05 -2.924383e-22
-2.531739e-05 -1.152249e-05 1.229950e-08
3.505269e-06 2.771852e-05 5.282132e-07
1.542873e-05 2.391231e-05 1.058557e-06
1.840366e-05 -2.140227e-05 9.011505e-07
1.840366e-05 2.140227e-05 -9.011505e-07
1.612141e-05 2.380173e-05 -1.164760e-06
-2.824296e-05 9.559969e-06 -8.799332e-07
-2.591306e-05 -1.232484e-05 1.151584e-06
2.334232e-05 -1.692473e-05 -1.180687e-06
2.334232e-05 1.692473e-05 1.180687e-06
-2.673091e-05 1.406205e-05 -2.924383e-22
-2.295511e-05 1.915393e-05 -7.996787e-07
-1.509783e-05 2.577036e-05 -8.310711e-07
1.613926e-05 2.323658e-05 9.536179e-07
1.022909e-05 -2.640520e-05 -9.724469e-07
-3.738347e-07 -2.983565e-05 8.602743e-07
-2.771814e-05 -3.336531e-06 -4.832229e-07
-1.940242e-05 -2.266832e-05 8.602590e-07
2.439142e-06 -2.974985e-05 -8.488836e-07
-2.304154e-05 -1.579961e-05 5.259162e-07
-7.205954e-06 2.898060e-05 8.354522e-07
-2.707186e-05 1.339392e-05 -2.924383e-22
-2.663266e-05 -1.106217e-05 1.181610e-06
-5.457666e-06 2.935524e-05 8.402896e-07
-2.779867e-05 4.357697e-06 8.156953e-07
1.208520e-05 -2.735684e-05 7.876802e-07
-1.283864e-05 2.494833e-05 -7.204974e-07
1.772228e-05 2.249723e-05 -1.134919e-06
1.765069e-05 -2.255088e-05 1.134258e-06
-1.085323e-05 2.777101e-05 8.804923e-07
-3.774954e-06 2.847627e-05 1.159541e-06
-1.166363e-05 2.620536e-05 1.148535e-06
2.927736e-05 7.424216e-06 -2.924383e-22
-2.739611e-05 1.271754e-05 -2.924383e-22
1.229488e-05 2.715918e-05 -8.841027e-07
5.818391e-06 2.775932e-05 -1.003141e-06
-2.992964e-05 -1.518467e-06 -7.124906e-07
5.074017e-06 2.755958e-05 -6.714593e-07
-1.682994e-06 -2.848036e-05 1.093235e-06
-9.810723e-06 -2.678763e-05 1.092182e-06
-1.121052e-05 -2.622874e-05 1.090591e-06
-1.953887e-05 -2.079025e-05 1.093529e-06
-8.333518e-06 -2.743117e-05 -1.144251e-06
-1.279641e-05 -2.565008e-05 -1.142984e-06
-2.770347e-05 1.203331e-05 -2.924383e-22
-3.596880e-06 -2.850224e-05 -1.160250e-06
1.875917e-05 -2.117792e-05 -9.535706e-07
1.875917e-05 2.117792e-05 9.535706e-07
-2.076011e-05 -1.975604e-05 -1.140900e-06
1.069256e-05 2.670208e-05 1.168212e-06
-2.556984e-05 1.299855e-05 -1.148623e-06
6.951608e-06 -2.770361e-05 1.106905e-06
2.270548e-05 -1.692540e-05 9.741908e-07
2.270548e-05 1.692540e-05 -9.741908e-07
-2.402702e-05 -1.528005e-05 -1.066947e-06
-2.799374e-05 1.134167e-05 -2.924383e-22
2.752732e-05 -4.932422e-06 5.787527e-07
2.752732e-05 4.932422e-06 -5.787527e-07
1.099100e-05 2.555710e-05 -9.993593e-08
1.704282e-05 2.207469e-05 4.085810e-07
-2.531839e-05 1.583460e-05 -8.362300e-07
-2.634174e-05 -1.408206e-05 8.287186e-07
-2.638973e-05 -1.412654e-05 -7.575957e-07
-2.510676e-05 1.198763e-05 1.167790e-07
-2.666114e-05 -8.717314e-06 -7.099709e-07
1.613112e-05 -2.393480e-05 1.184912e-06
-2.826675e-05 1.064302e-05 -2.924383e-22
-2.756158e-05 -5.762718e-06 8.359828e-07
2.223772e-05 1.998776e-05 -7.956407e-07
2.230384e-05 -1.989997e-05 8.059409e-07
9.802558e-06 2.603350e-05 6.514793e-08
-7.954339e-06 2.758327e-05 1.154945e-06
3.876638e-06 2.961488e-05 8.308360e-07
6.300721e-06 2.805584e-05 1.166332e-06
1.715313e-05 2.446834e-05 8.157236e-07
-2.004964e-05 2.054567e-05 1.154967e-06
-1.442397e-05 2.481117e-05 1.152798e-06
-2.852232e-05 9.937817e-06 -2.924383e-22
-2.437960e-05 -1.744101e-05 -7.019469e-07
-2.302010e-05 1.563769e-05 -1.762525e-07
2.766157e-05 -3.316608e-06 -3.197377e-07
2.766157e-05 3.316608e-06 3.197377e-07
-1.888985e-05 2.313137e-05 8.339769e-07
1.252869e-05 2.709701e-05 8.453394e-07
2.286198e-05 1.590134e-05 -2.751043e-07
2.286198e-05 -1.590134e-05 2.751043e-07
-3.040566e-06 -2.840206e-05 1.107662e-06
-8.607113e-06 -2.723350e-05 1.106417e-06
-2.876030e-05 9.226482e-06 -2.924383e-22
-1.242880e-05 -2.570880e-05 1.104068e-06
-2.048061e-05 -1.990000e-05 1.104412e-06
1.848090e-05 2.351043e-05 7.908066e-07
1.775875e-05 -2.405626e-05 7.947121e-07
1.780987e-05 2.404125e-05 -7.736671e-07
1.034101e-05 2.803249e-05 -8.187947e-07
2.834758e-05 -8.461739e-07 -1.001631e-06
2.834758e-05 8.461739e-07 1.001631e-06
1.949548e-05 2.255445e-05 -8.842222e-07
1.949548e-05 -2.255445e-05 8.842222e-07
-2.898055e-05 8.509456e-06 -2.924383e-22
2.066811e-05 2.148044e-05 -8.872114e-07
2.066811e-05 -2.148044e-05 8.872114e-07
-2.221251e-05 -1.995904e-05 8.361727e-07
-1.408190e-05 -2.632888e-05 8.404033e-07
-7.896085e-06 -2.878613e-05 8.491057e-07
-4.266265e-06 -2.955629e-05 8.358887e-07
1.536487e-05 2.567600e-05 -7.704558e-07
1.532638e-05 -2.567739e-05 7.919030e-07
-2.680834e-05 7.709331e-06 4.263946e-07
1.604150e-05 2.280241e-05 3.846484e-07
-2.918292e-05 7.787182e-06 -2.924383e-22
-6.438045e-06 -2.830775e-05 -1.193793e-06
-1.022618e-05 -2.716985e-05 -1.193793e-06
-2.811720e-05 -1.913886e-06 8.604233e-07
-2.782122e-05 1.105899e-05 -7.505321e-07
6.043215e-06 -2.926146e-05 8.188598e-07
2.689542e-05 -7.249933e-06 3.040026e-07
2.689542e-05 7.249933e-06 -3.040026e-07
2.889424e-05 -2.275000e-06 1.193678e-06
2.889424e-05 2.275000e-06 -1.193678e-06
-2.483922e-05 -1.253235e-05 -1.156184e-07
-2.936729e-05 7.060105e-06 -2.924383e-22
-2.794325e-05 5.789696e-06 -1.096152e-06
1.140991e-05 -2.539268e-05 -2.295572e-07
-1.890790e-05 -2.201024e-05 -1.193952e-06
-2.741576e-05 4.777220e-06 1.742320e-07
-2.975858e-05 2.808691e-06 -8.060921e-07
2.647168e-05 1.396298e-05 7.629051e-07
2.648550e-05 -1.397905e-05 -7.385242e-07
-4.182533e-07 -2.901244e-05 -1.193958e-06
-2.700940e-05 -1.283058e-05 -7.936863e-07
2.728143e-05 5.878772e-06 -4.585358e-07
-2.953355e-05 6.328675e-06 -2.924383e-22
2.728143e-05 -5.878772e-06 4.585358e-07
-2.600945e-05 -1.252300e-05 -1.185397e-06
-2.086668e-05 2.141851e-05 7.929425e-07
-2.766921e-05 3.156157e-06 -2.768915e-07
1.804110e-06 -2.783123e-05 4.126054e-07
1.133024e-06 -2.787177e-05 4.263270e-07
1.222554e-05 -2.727993e-05 -8.024838e-07
-2.713726e-05 -7.986418e-06 9.509328e-07
-1.637375e-05 2.270825e-05 6.299492e-07
-1.955406e-06 -2.981022e-05 -8.238157e-07
2.908397e-05 8.148947e-06 -2.924383e-22
-2.968160e-05 5.593341e-06 -2.924383e-22
-2.060023e-05 -2.163587e-05 -8.236832e-07
-2.731074e-06 -2.826332e-05 -1.023344e-06
6.191003e-06 -2.803378e-05 -1.155459e-06
-2.695597e-05 1.299204e-05 7.688536e-07
-2.757357e-05 -4.917528e-06 -6.501819e-07
2.775879e-05 -2.052581e-06 2.093122e-07
2.775879e-05 2.052581e-06 -2.093122e-07
-2.695861e-05 8.660116e-06 -9.711235e-07
-1.447195e-05 2.493143e-05 -1.179901e-06
-2.762741e-05 1.147318e-05 7.788579e-07
-2.981134e-05 4.854558e-06 -2.924383e-22
-5.092513e-06 2.751815e-05 6.129042e-07
2.735597e-05 1.203591e-05 8.106358e-07
2.738352e-05 -1.198501e-05 -8.054411e-07
-1.410482e-05 2.400725e-05 -2.571595e-07
-5.059915e-06 -2.944606e-05 -8.202836e-07
-1.200395e-05 -2.736038e-05 -8.200638e-07
-1.956842e-05 -2.076371e-05 -1.093936e-06
[...]
POINT_DATA 3158
VECTORS 10.000GHz_fone_imag double
9.836192e-05 -3.215481e-05 1.770216e-02
-5.269084e-05 -6.428151e-04 1.749417e-02
-5.724838e-04 2.459601e-04 1.760190e-02
-6.602628e-03 -1.078931e-02 -2.008105e-02
8.355735e-03 -1.335994e-02 -1.654358e-02
4.979671e-03 3.169110e-03 -2.286644e-02
-4.528510e-03 1.375118e-02 1.151575e-02
-1.376147e-02 -2.682226e-03 1.191245e-02
-1.026905e-02 1.400550e-02 -1.426073e-02
-7.904990e-04 -1.686309e-02 -1.509304e-02
-8.042306e-03 1.046165e-02 1.216237e-02
-2.958333e-03 1.798390e-02 -1.314761e-02
-4.962774e-03 1.226480e-02 1.217888e-02
-4.893005e-04 1.082522e-04 1.754789e-02
-1.515247e-02 3.713714e-03 1.032244e-02
8.564376e-03 4.529039e-03 -2.133903e-02
-8.523708e-03 4.518497e-03 -2.142943e-02
1.041849e-02 -1.545929e-02 -1.218699e-02
-1.855680e-02 8.488971e-04 -1.239405e-02
-9.504442e-03 2.092274e-04 -2.160610e-02
9.612337e-03 6.548698e-05 -2.156975e-02
4.022828e-03 -1.741864e-02 -1.354527e-02
8.611014e-03 -1.618871e-02 -1.273429e-02
-1.156109e-03 1.331654e-02 1.174984e-02
-7.843779e-05 7.977510e-05 1.749358e-02
-1.429472e-02 -5.463055e-04 1.189369e-02
1.467243e-02 -5.457898e-04 1.204796e-02
8.588300e-03 2.026810e-03 -2.165610e-02
-6.047587e-04 2.920102e-05 -2.389617e-02
6.375637e-04 -4.831925e-05 -2.392781e-02
-2.542811e-03 8.759110e-03 -2.143405e-02
1.418819e-02 9.426842e-03 -1.419117e-02
-1.425191e-02 9.433970e-03 -1.416106e-02
8.388397e-03 -9.585583e-03 1.274368e-02
-8.762890e-03 -1.001482e-02 1.216429e-02
2.466197e-04 -4.142895e-05 1.748047e-02
4.633118e-03 -5.607874e-03 -2.253858e-02
-1.182347e-02 -7.413052e-03 1.168849e-02
1.178227e-02 -7.363667e-03 1.189221e-02
-9.410990e-03 9.736268e-03 1.219785e-02
4.385241e-03 -1.153761e-02 1.339487e-02
-8.367118e-03 -1.159676e-02 1.164611e-02
1.216926e-02 -1.631778e-02 -5.657806e-03
1.190698e-02 -4.594974e-04 -1.979601e-02
-1.290303e-02 1.614284e-02 -6.116274e-03
-1.372965e-02 1.435184e-02 -7.407201e-03
-1.239378e-04 1.237547e-05 1.745821e-02
1.355813e-02 1.472318e-02 -7.753382e-03
1.310036e-03 1.462742e-02 -1.803770e-02
-2.556519e-03 -1.330371e-02 1.232210e-02
3.493277e-04 2.397730e-03 -2.362951e-02
-1.250659e-02 6.256329e-03 1.211112e-02
-1.436399e-02 4.134665e-03 1.095433e-02
1.439678e-02 4.175492e-03 1.088591e-02
3.029552e-04 -3.370185e-04 -2.391275e-02
-3.669500e-03 -1.305292e-02 1.216913e-02
-8.165999e-03 -9.680115e-03 1.327901e-02
-8.160356e-05 3.199557e-04 1.755336e-02
1.195652e-03 -1.803121e-02 -1.353880e-02
-1.734858e-02 -7.948026e-03 -1.151200e-02
-9.642466e-05 -1.265665e-02 1.326764e-02
1.914224e-03 1.779411e-03 -2.357236e-02
-1.116101e-02 -1.425095e-02 -1.339027e-02
7.492579e-03 -3.953671e-03 -2.197868e-02
-7.592470e-03 -4.210291e-03 -2.191842e-02
1.355791e-02 1.899623e-03 1.221109e-02
-1.356008e-02 1.900800e-03 1.222465e-02
9.136887e-03 -9.777358e-03 1.282668e-02
-7.032181e-05 -2.247771e-04 1.767776e-02
-9.238747e-03 -9.906569e-03 1.257924e-02
-1.032678e-02 -8.884979e-03 1.221144e-02
1.019270e-02 -9.318212e-03 1.218304e-02
-1.624566e-03 1.919646e-03 -2.374449e-02
-2.621250e-03 2.050780e-02 -5.730377e-03
1.210911e-02 -7.703126e-03 1.120410e-02
-1.227174e-02 -7.373393e-03 1.152693e-02
1.202237e-02 5.800276e-03 1.217305e-02
-6.649570e-03 -1.074068e-02 1.283920e-02
-7.387341e-03 1.897926e-02 -5.796116e-03
5.373851e-05 -3.647800e-04 1.748644e-02
6.917709e-04 4.141571e-04 -2.405771e-02
-1.118686e-03 -9.798307e-03 -2.137599e-02
-1.009166e-02 -1.643724e-02 -1.098819e-02
-1.071197e-02 1.296341e-02 -1.535797e-02
1.106074e-02 1.274988e-02 -1.506218e-02
1.171215e-02 1.692837e-02 -4.997891e-03
-1.337889e-02 4.581306e-03 1.164029e-02
1.842306e-02 8.396965e-03 -6.573486e-03
1.662258e-02 -1.201489e-02 -3.839475e-03
-1.675637e-02 -1.191271e-02 -3.856171e-03
3.223867e-04 -1.490749e-04 1.756297e-02
-9.799598e-03 8.126364e-03 1.316868e-02
-6.222651e-03 1.100007e-02 1.300417e-02
-1.011844e-02 -1.403324e-02 -1.394146e-02
6.799174e-03 -1.689134e-02 -1.323579e-02
2.882109e-04 1.379477e-02 1.176328e-02
-8.940283e-03 -6.103155e-04 -2.160569e-02
8.939523e-03 1.067299e-02 1.178486e-02
9.844791e-04 -1.302427e-02 1.288445e-02
8.223355e-03 5.549215e-03 -2.137498e-02
3.095739e-03 -1.239074e-02 1.301983e-02
2.491611e-04 -1.776266e-04 1.762778e-02
1.916840e-02 8.011265e-03 -3.704904e-03
2.083710e-03 -1.349146e-02 1.203677e-02
1.487081e-02 -2.452779e-03 -1.732095e-02
-4.681901e-03 1.114529e-02 1.345564e-02
-5.767835e-03 1.188811e-02 -1.914389e-02
1.233817e-02 1.591744e-02 -7.561723e-03
-1.244546e-02 1.583325e-02 -7.592796e-03
5.056880e-03 -1.316054e-02 1.207371e-02
2.045859e-03 -1.968076e-02 -6.289872e-03
7.949194e-03 -1.859202e-02 -7.045866e-03
3.848812e-04 1.938477e-05 1.773948e-02
2.806495e-04 -6.367265e-05 1.758737e-02
6.062654e-03 1.304534e-02 1.163337e-02
3.851507e-03 1.762033e-02 -1.269434e-02
-1.100146e-02 -4.255894e-04 1.410453e-02
2.486901e-03 1.163334e-02 -1.977648e-02
8.107321e-04 1.959405e-02 -9.511108e-03
6.679180e-03 1.838337e-02 -9.466218e-03
7.294486e-03 1.779823e-02 -1.012576e-02
1.354133e-02 1.419809e-02 -9.548647e-03
-5.764562e-03 -1.931810e-02 -7.301134e-03
-9.365174e-03 -1.779396e-02 -7.486221e-03
2.373284e-04 1.639078e-04 1.737595e-02
-2.564702e-03 -2.022461e-02 -5.578714e-03
1.173437e-02 -1.349230e-02 -1.434772e-02
-1.179798e-02 -1.355945e-02 -1.431526e-02
-1.462678e-02 -1.389213e-02 -7.508270e-03
-7.084142e-03 -1.930091e-02 -6.103089e-03
-1.805423e-02 8.989410e-03 -7.118623e-03
-4.977966e-03 1.916796e-02 -9.163000e-03
-1.434246e-02 1.063796e-02 -1.374685e-02
1.420358e-02 1.033586e-02 -1.372205e-02
-1.667130e-02 -1.060641e-02 -9.821433e-03
1.237353e-04 2.063703e-04 1.762877e-02
-1.063558e-02 1.977039e-03 -2.087815e-02
1.065021e-02 1.982693e-03 -2.089486e-02
8.458550e-04 2.180194e-03 -2.380502e-02
-4.888451e-03 -6.407023e-03 -2.246662e-02
-1.095800e-02 6.985574e-03 1.265034e-02
1.152652e-02 6.511718e-03 1.249819e-02
-1.014805e-02 -5.235200e-03 1.408283e-02
2.346988e-03 -9.622142e-04 -2.378575e-02
-1.303989e-02 -4.023163e-03 -1.884069e-02
-1.146443e-02 1.708040e-02 -3.373055e-03
-2.455741e-04 4.968738e-05 1.757690e-02
1.551725e-02 3.252249e-03 -1.651653e-02
9.280117e-03 8.459048e-03 1.329131e-02
-9.459423e-03 7.890450e-03 1.339750e-02
-7.885374e-04 -1.717972e-03 -2.393437e-02
5.715198e-03 -1.962100e-02 -6.279097e-03
-1.518771e-03 -1.258235e-02 1.319651e-02
-4.714519e-03 -2.022577e-02 -5.338350e-03
-7.200769e-03 -1.006535e-02 1.320867e-02
1.423898e-02 -1.467948e-02 -5.945063e-03
1.010268e-02 -1.780518e-02 -6.568301e-03
-2.569800e-04 -1.774044e-04 1.757278e-02
-8.601518e-03 -6.223063e-03 1.446711e-02
-3.129754e-03 1.579274e-03 -2.362379e-02
6.415562e-03 -4.799343e-04 -2.270487e-02
-6.397888e-03 -4.437541e-04 -2.274652e-02
8.621275e-03 -1.036353e-02 1.268724e-02
-5.833929e-03 -1.255034e-02 1.229976e-02
4.699468e-03 3.236397e-03 -2.333304e-02
-4.893968e-03 3.077207e-03 -2.316275e-02
2.694897e-03 1.980647e-02 -8.613657e-03
5.735089e-03 1.873880e-02 -9.246813e-03
1.658807e-04 2.653070e-06 1.749817e-02
8.959482e-03 1.764713e-02 -9.377943e-03
1.422717e-02 1.390850e-02 -9.146975e-03
-7.393257e-03 -9.510727e-03 1.361923e-02
-7.337683e-03 9.656857e-03 1.355570e-02
7.206375e-03 9.280875e-03 1.374878e-02
4.220034e-03 1.195363e-02 1.325952e-02
1.797460e-02 -2.262203e-05 -1.295969e-02
-1.830755e-02 -6.491644e-04 -1.307858e-02
9.308097e-03 1.102370e-02 1.170819e-02
-9.396990e-03 1.118289e-02 1.172258e-02
3.216771e-05 -6.971294e-06 1.744063e-02
9.859852e-03 1.033866e-02 1.172385e-02
-1.003689e-02 1.046814e-02 1.169879e-02
9.670346e-03 8.810790e-03 1.291912e-02
6.368596e-03 1.122433e-02 1.306313e-02
3.466535e-03 1.274113e-02 1.279126e-02
1.755164e-03 1.280302e-02 1.289788e-02
6.260617e-03 1.003760e-02 1.376966e-02
-6.417492e-03 1.038258e-02 1.350415e-02
7.807481e-03 -2.021593e-03 -2.248528e-02
-4.211108e-03 -6.321431e-03 -2.270255e-02
1.514862e-04 -1.506273e-04 1.758681e-02
-4.750896e-03 -2.003632e-02 -7.821097e-05
-7.044078e-03 -1.916060e-02 -4.485353e-04
1.647968e-02 1.024854e-03 -1.611965e-02
-1.104725e-02 4.451601e-03 1.383060e-02
-2.635105e-03 1.249677e-02 1.309997e-02
-5.814584e-03 1.469375e-03 -2.289786e-02
5.819151e-03 1.472751e-03 -2.288559e-02
-2.036099e-02 1.896677e-03 -1.503506e-03
2.042083e-02 1.918126e-03 -1.554792e-03
-1.308754e-03 -5.570221e-04 -2.379712e-02
6.580393e-04 -2.865941e-04 1.767411e-02
-1.968232e-02 3.510169e-03 -8.662237e-03
1.740042e-03 -4.041657e-03 -2.365318e-02
-1.346846e-02 -1.576076e-02 -5.094942e-04
3.251766e-03 -4.500220e-04 -2.362098e-02
-1.316754e-02 1.388298e-03 1.281762e-02
-1.036151e-02 -5.589427e-03 1.397256e-02
1.017446e-02 -5.197615e-03 1.418419e-02
-4.339921e-04 -2.073123e-02 -9.048677e-04
-1.076946e-02 -5.503909e-03 1.368866e-02
8.636076e-03 1.932694e-03 -2.219906e-02
-1.993487e-04 2.474710e-04 1.755701e-02
-8.631948e-03 1.932001e-03 -2.217317e-02
-1.866300e-02 -8.577618e-03 -3.175050e-03
8.613070e-03 -8.654377e-03 1.346420e-02
-5.164522e-03 7.769979e-04 -2.309939e-02
-3.596499e-04 7.658633e-03 -2.249946e-02
-3.333111e-04 7.966780e-03 -2.254277e-02
4.957101e-03 -1.125004e-02 1.361090e-02
1.682036e-02 5.010551e-03 -1.422470e-02
6.489405e-03 -9.128287e-03 -2.061787e-02
-5.727739e-04 -1.359769e-02 1.221026e-02
5.618214e-05 3.694457e-04 1.749722e-02
-2.936626e-04 -1.177827e-04 1.773820e-02
-9.602947e-03 -9.513061e-03 1.223458e-02
-2.220332e-03 -1.850803e-02 -1.191169e-02
4.211401e-03 -2.007618e-02 -6.447083e-03
1.092792e-02 -5.075038e-03 1.366149e-02
-1.184353e-02 -2.130729e-03 -1.983833e-02
-3.666758e-03 3.294338e-04 -2.344123e-02
3.603386e-03 1.812160e-04 -2.339773e-02
-1.724283e-02 5.465826e-03 -1.312848e-02
-1.039047e-02 1.785433e-02 -3.919597e-03
1.120895e-02 -4.531359e-03 1.381290e-02
-1.030293e-05 -5.554159e-06 1.773832e-02
2.039916e-03 -1.184543e-02 -1.988630e-02
-1.141062e-02 -4.878622e-03 1.354871e-02
1.121310e-02 -5.139070e-03 1.352834e-02
-2.542397e-03 4.379927e-03 -2.352015e-02
-2.577468e-03 -1.291514e-02 1.256195e-02
-5.242121e-03 -1.226307e-02 1.256577e-02
-1.378139e-02 -1.391239e-02 -9.683677e-03
-9.831076e-03 1.822767e-02 -5.299112e-03
-1.256097e-03 -1.938979e-02 -1.026225e-02
-7.927148e-03 -1.814088e-02 -9.519994e-03
2.431938e-05 -1.407500e-04 1.768818e-02
3.724835e-03 6.250612e-03 -2.284004e-02
3.277465e-03 5.037746e-03 -2.289472e-02
1.090756e-02 4.515986e-03 1.401909e-02
1.192281e-02 4.107020e-03 1.299450e-02
-1.198181e-02 4.105849e-03 1.310004e-02
5.976412e-03 -1.078279e-02 1.342303e-02
-8.652068e-04 1.106756e-02 1.415162e-02
-7.823292e-03 8.490116e-03 1.391259e-02
-7.594895e-03 6.251303e-03 -2.154845e-02
7.252259e-03 5.696212e-03 -2.159312e-02
1.013285e-04 1.678469e-04 1.744712e-02
1.011054e-02 -6.645679e-03 1.380674e-02
1.723240e-03 1.719943e-03 -2.380212e-02
-1.946750e-03 1.461089e-03 -2.378650e-02
-1.048533e-02 5.590990e-03 1.372729e-02
9.997547e-03 5.108589e-03 1.414859e-02
-1.236442e-02 -4.152993e-03 1.345265e-02
-5.657665e-03 1.920689e-02 -7.786082e-03
-1.973087e-02 2.325106e-03 2.134739e-03
2.024606e-02 4.216646e-03 -2.379613e-03
8.708627e-03 -1.848268e-02 -6.899112e-03
2.851960e-04 6.411389e-05 1.755179e-02
1.879633e-02 -8.755738e-03 -4.995054e-03
-1.874130e-02 -8.523501e-03 -5.566866e-03
-1.597194e-02 -1.327217e-02 -2.848442e-03
4.557159e-03 9.837000e-03 -2.058442e-02
6.810500e-06 1.243781e-02 1.323849e-02
1.972557e-03 -1.784923e-03 -2.400081e-02
2.033144e-02 -3.677095e-03 -4.881611e-03
4.721126e-03 -1.116388e-02 -1.993573e-02
-8.928964e-03 -1.787209e-02 1.699811e-03
-1.036620e-02 -1.795905e-02 -2.897443e-03
-2.802894e-04 1.486626e-04 1.756004e-02
-1.831218e-02 8.279288e-03 -7.661286e-03
-1.241392e-02 -1.670791e-03 1.327545e-02
1.245088e-02 -1.648769e-03 1.325180e-02
1.710176e-02 -1.407006e-03 -1.450045e-02
-1.704325e-02 -1.354146e-03 -1.449807e-02
-2.667405e-03 -1.429370e-03 -2.377050e-02
2.715091e-03 -2.252229e-03 -2.351744e-02
5.841196e-03 -9.799887e-03 1.417760e-02
-1.178281e-02 -4.269568e-03 1.375520e-02
-3.596771e-03 -2.028857e-02 -3.752334e-03
1.501456e-04 1.963471e-04 1.751059e-02
1.019293e-02 -8.175948e-03 1.317021e-02
-1.037825e-02 -8.252094e-03 1.285278e-02
9.646320e-03 -6.848333e-03 1.401324e-02
5.491578e-03 -1.095814e-02 -1.998415e-02
6.405822e-03 -9.726015e-03 1.389687e-02
-1.431908e-02 -3.457211e-03 1.136929e-02
1.086491e-02 -3.264618e-03 1.399530e-02
1.737709e-02 -1.095461e-02 -6.671776e-03
-1.136608e-02 5.220993e-03 1.367660e-02
9.866341e-03 1.797156e-02 -1.297160e-03
2.872097e-05 -1.929667e-04 1.756339e-02
1.953916e-02 -6.675678e-03 -2.316923e-03
-1.484610e-02 -1.455525e-02 -5.503697e-03
1.487721e-02 -1.436497e-02 -5.829894e-03
-6.422314e-03 -1.060828e-02 1.317220e-02
-4.176464e-03 5.966352e-03 -2.262312e-02
-1.346833e-04 4.362260e-04 -2.393255e-02
-1.325687e-02 -3.938780e-03 1.276449e-02
1.267404e-02 -3.728750e-03 1.322813e-02
3.393770e-03 -2.068901e-02 -2.058274e-03
1.752350e-03 -1.105914e-02 1.435870e-02
-1.351337e-04 4.732288e-04 1.739215e-02
-1.095909e-02 1.718094e-02 -6.703805e-03
7.334725e-03 1.918417e-02 -3.762578e-03
-1.403421e-02 -5.583531e-03 -1.720960e-02
1.291927e-03 -9.441730e-03 -2.184641e-02
1.128873e-03 2.020545e-02 -6.437345e-03
7.117906e-04 -1.211291e-02 1.361021e-02
8.151739e-04 -1.201091e-02 1.348965e-02
6.815662e-03 8.905342e-03 -2.036464e-02
-1.458092e-02 1.393507e-02 -7.975775e-03
5.866212e-03 9.890940e-03 -2.030476e-02
-2.250340e-04 3.579926e-05 1.736960e-02
-9.779152e-05 1.398699e-03 -2.373330e-02
-7.134861e-03 1.889989e-02 -2.418722e-03
5.865573e-03 -9.799201e-03 1.421141e-02
9.326101e-04 5.049314e-04 -2.403627e-02
-9.182101e-04 7.152134e-04 -2.387366e-02
-2.814715e-03 -1.107213e-02 1.377996e-02
1.983612e-02 3.231143e-03 -8.448061e-03
-1.981848e-02 3.222956e-03 -8.447971e-03
-1.076625e-02 1.764722e-02 -2.525680e-03
1.020499e-02 1.768355e-02 -2.190528e-03
2.954567e-05 9.537742e-05 1.772899e-02
-2.986905e-04 -6.490015e-05 1.740029e-02
-8.701006e-03 -7.613878e-03 1.408281e-02
7.411858e-03 9.761853e-03 1.340180e-02
7.167640e-03 1.042409e-02 1.293028e-02
-1.322419e-02 1.468211e-02 2.274376e-03
-8.954094e-04 1.197072e-02 1.335032e-02
1.283179e-02 -1.052944e-02 9.351243e-03
3.784154e-04 -2.070049e-02 -3.847308e-03
-2.053799e-02 -9.759228e-04 -2.995282e-03
4.322806e-04 1.319335e-02 -1.901785e-02
-1.551678e-02 1.317284e-02 -4.275500e-03
-1.132857e-04 -1.669618e-04 1.739227e-02
-1.043363e-03 1.271477e-02 1.294154e-02
-3.071113e-03 -1.241725e-02 1.323782e-02
-4.244182e-03 -1.234549e-02 1.305330e-02
-5.481765e-03 -1.984260e-02 -3.474803e-03
-8.600143e-03 -8.658755e-03 1.360649e-02
-1.048689e-03 -1.243439e-02 1.347713e-02
3.459650e-03 1.058566e-02 1.459858e-02
-5.954921e-03 1.073869e-02 1.373558e-02
-9.287359e-03 1.833613e-02 -3.161816e-03
8.023368e-03 -1.911151e-02 -4.765430e-03
3.222648e-04 -5.237252e-04 1.734257e-02
-1.213963e-02 3.621862e-04 1.365128e-02
2.288352e-03 -6.235458e-03 -2.332506e-02
6.551505e-03 9.715984e-03 1.391280e-02
-1.422683e-02 2.305038e-03 -1.811950e-02
-1.694891e-03 -1.224246e-02 1.321079e-02
-5.198740e-03 -1.117611e-02 1.359992e-02
-3.619907e-03 1.266373e-02 1.308334e-02
8.797773e-03 -7.633644e-03 1.399384e-02
-8.536840e-03 -7.706330e-03 1.429191e-02
1.930781e-02 6.539976e-03 -2.175253e-03
2.814953e-04 1.943868e-04 1.771792e-02
-1.927606e-02 6.443987e-03 -2.191013e-03
1.313358e-02 -1.565814e-02 -3.331563e-03
-1.318743e-02 -1.557692e-02 -3.228660e-03
2.168987e-03 8.849884e-03 1.512318e-02
-1.245281e-02 1.220394e-02 -1.392056e-02
1.265755e-02 1.224647e-02 -1.389204e-02
-6.847672e-03 8.228019e-03 1.431346e-02
-7.937559e-03 -1.582047e-03 -2.234458e-02
-9.880334e-04 2.361720e-04 -2.437170e-02
1.217870e-03 2.316349e-04 -2.418680e-02
2.295785e-05 3.857375e-05 1.746909e-02
-1.438549e-02 -2.254735e-03 -1.820362e-02
1.439100e-02 -2.256260e-03 -1.820076e-02
-1.728790e-02 8.978620e-03 3.597241e-03
1.720404e-02 9.037698e-03 3.720580e-03
-1.196881e-02 1.654271e-02 -5.541481e-04
2.075834e-02 1.276658e-03 -3.038244e-03
-7.566867e-03 1.887208e-02 -6.693232e-03
-4.265867e-03 1.139014e-02 1.359033e-02
-3.978601e-03 1.096551e-02 1.387995e-02
1.921222e-04 -2.843538e-04 -2.427568e-02
1.225701e-04 -3.396304e-05 1.740753e-02
1.055152e-03 -6.063132e-04 -2.375395e-02
1.178549e-02 1.465926e-03 1.387697e-02
-8.608517e-04 -1.253750e-02 1.333705e-02
-1.221910e-04 2.410985e-04 -2.395031e-02
8.517153e-04 1.245144e-02 1.342257e-02
-9.278978e-03 -4.128941e-03 1.470406e-02
9.441790e-03 -3.845751e-03 1.451645e-02
4.976357e-03 1.153168e-02 1.339058e-02
8.784744e-03 8.784187e-03 1.339332e-02
6.552806e-04 1.979036e-02 1.964706e-03
2.434358e-04 6.202154e-05 1.744922e-02
1.251092e-02 1.539726e-02 1.514878e-03
-9.982743e-03 6.141505e-03 1.361368e-02
8.934548e-03 5.472234e-03 1.454154e-02
-4.482538e-03 -1.123744e-02 1.388109e-02
6.610373e-03 1.513691e-02 -1.548798e-02
2.539231e-03 -1.044381e-02 1.443522e-02
-4.627056e-03 -1.202985e-02 1.314236e-02
-6.599638e-03 -9.656857e-03 1.375210e-02
1.256234e-02 -1.644465e-02 -1.484507e-03
1.148767e-04 -1.122282e-02 1.428844e-02
1.990142e-04 1.000941e-04 1.752130e-02
-7.685017e-03 -9.128322e-03 1.368989e-02
-8.265008e-03 2.638448e-04 -2.209944e-02
-1.526247e-03 1.154956e-02 1.414801e-02
6.336847e-03 8.889154e-03 1.429331e-02
-6.099080e-03 9.450596e-03 1.406956e-02
-1.740216e-02 -1.073631e-02 -4.974344e-03
-8.479102e-03 1.858177e-02 -6.726265e-03
1.760257e-02 -7.675693e-03 -1.245302e-02
-1.775001e-02 -7.761942e-03 -1.255134e-02
-1.635198e-02 1.249494e-02 -3.674398e-03
-1.506715e-04 4.672696e-05 1.764162e-02
1.579719e-02 3.974265e-04 1.020714e-02
-1.566707e-02 -2.532087e-04 1.008143e-02
1.158303e-02 -9.546487e-04 1.426194e-02
1.704428e-03 2.045637e-02 -4.675724e-03
4.460401e-04 -2.180820e-03 -2.397568e-02
-2.030769e-03 1.918755e-02 3.877750e-03
-1.476478e-03 1.075818e-03 -2.377474e-02
-5.681380e-03 -2.137421e-03 -2.291450e-02
-6.608092e-03 8.932982e-03 -2.040376e-02
1.515804e-03 -1.195129e-02 1.363273e-02
-2.792356e-04 -7.968106e-05 1.763349e-02
-6.741292e-03 1.033636e-02 1.324617e-02
8.639539e-03 6.065996e-03 1.450556e-02
8.200415e-03 1.626205e-03 -2.185452e-02
-1.003694e-02 3.010791e-03 1.471849e-02
-2.924696e-03 2.022959e-02 -2.156856e-03
-1.202955e-02 2.465657e-03 1.358566e-02
-8.133438e-03 1.886588e-02 -2.189012e-03
-2.397349e-03 1.179895e-02 1.343203e-02
-4.807549e-03 1.095901e-02 1.354033e-02
-5.100007e-03 1.056447e-02 1.363430e-02
4.554246e-04 4.577462e-05 1.775425e-02
4.272002e-04 -4.645139e-04 1.756920e-02
-8.491898e-03 6.827561e-03 1.433091e-02
3.572116e-03 6.033792e-03 -2.320548e-02
3.793872e-03 -9.483095e-03 1.478979e-02
-9.528649e-03 1.063334e-03 -2.160511e-02
1.879707e-03 7.806126e-03 -2.209616e-02
-3.123179e-03 -1.141317e-02 -2.023617e-02
-1.511631e-03 -1.074293e-02 -2.067045e-02
-6.151824e-04 -1.609472e-03 -2.385551e-02
-1.370446e-03 -1.566165e-03 -2.379244e-02
-3.316321e-03 -1.071275e-02 1.423473e-02
4.705675e-04 -9.454002e-06 1.753238e-02
-4.532753e-04 -1.336615e-03 -2.383968e-02
-9.809795e-04 -1.197479e-03 -2.397472e-02
-2.223131e-03 1.032246e-02 -2.097751e-02
-8.370090e-03 -6.981555e-03 -2.082468e-02
-5.766503e-03 -9.722114e-03 -2.065071e-02
-2.512728e-04 2.049590e-02 -6.175631e-03
-1.162168e-02 2.269753e-03 1.377170e-02
1.144356e-02 2.144190e-03 1.388704e-02
1.133880e-02 -1.737527e-02 -8.168815e-04
-7.529836e-04 2.334557e-03 -2.423596e-02
2.917502e-05 2.048557e-04 1.767990e-02
-4.406196e-05 -1.572473e-05 -2.383863e-02
1.860423e-02 8.315664e-03 -6.028242e-03
-1.868550e-02 8.474780e-03 -5.828100e-03
-6.698552e-03 -1.044356e-02 1.340384e-02
-2.266957e-04 7.673929e-06 -2.421007e-02
1.258219e-02 -9.008449e-03 -1.690780e-02
1.114998e-02 -1.642125e-02 3.200248e-03
-1.760370e-02 -1.042202e-02 -3.681427e-03
1.789521e-02 -1.002274e-02 -3.506687e-03
-2.849271e-03 1.164075e-02 1.405160e-02
-1.580682e-04 1.907872e-04 1.740982e-02
1.707755e-02 -1.536543e-03 -1.431529e-02
-1.723743e-02 -1.302082e-03 -1.439256e-02
-9.600364e-03 2.465518e-03 1.512279e-02
-6.613910e-04 2.045448e-02 -6.556440e-03
1.190283e-02 1.704872e-02 -6.969160e-03
1.217387e-02 -1.540101e-02 -9.314405e-03
-1.352306e-02 -4.755472e-03 -1.811858e-02
1.352675e-02 -4.817546e-03 -1.818080e-02
7.401910e-03 -1.816517e-02 -9.708192e-03
1.275374e-02 1.593348e-02 -6.689387e-03
3.976603e-05 -1.304717e-04 1.746004e-02
-3.473031e-03 1.197898e-02 1.340533e-02