# vtk DataFile Version 2.0
Electric current density generated by TTH
ASCII
DATASET UNSTRUCTURED_GRID
POINTS 2083 double
-1.853862e-05 -1.051097e-05 -4.368112e-22
7.281426e-06 -1.800481e-05 1.780252e-06
-1.406262e-05 -1.457117e-05 -1.630424e-06
-3.445285e-06 2.075762e-05 -9.426143e-07
1.730420e-05 -4.810732e-06 -8.512100e-07
-1.280388e-05 1.309196e-05 1.305154e-06
2.000662e-06 2.101888e-05 -8.151232e-07
-2.096605e-05 1.875276e-06 -9.293792e-07
1.871869e-05 2.323135e-06 1.654659e-06
-1.147160e-05 -1.519778e-05 -1.715816e-06
1.363043e-05 1.434993e-05 1.763768e-06
-1.802557e-05 -1.136837e-05 -4.368112e-22
1.995883e-05 -2.274912e-06 -1.693077e-06
1.995883e-05 2.274912e-06 -1.693077e-06
-2.011430e-05 -6.350265e-06 -8.546967e-07
-1.811308e-05 1.083853e-05 -8.260105e-07
1.263652e-05 1.247514e-05 2.130290e-07
8.036709e-06 -1.697374e-05 -1.619241e-06
1.547610e-05 1.028865e-05 -1.513334e-06
-1.865209e-05 -3.717390e-06 1.709323e-06
1.856111e-06 -1.957386e-05 -1.778374e-06
1.991775e-06 1.954511e-05 -1.779463e-06
-1.747290e-05 -1.220077e-05 -4.368112e-22
-1.369529e-05 1.605908e-05 8.306418e-07
1.865622e-05 -9.920013e-06 -7.837107e-07
1.273214e-05 1.492844e-05 1.780996e-06
-1.400040e-05 1.570776e-05 -9.427542e-07
-1.397675e-05 -1.571801e-05 9.555826e-07
1.029502e-05 -1.535418e-05 1.447724e-06
1.127298e-05 -1.486401e-05 -1.555490e-06
-1.365611e-05 -1.608825e-05 -8.366484e-07
-2.003241e-05 1.659901e-06 -1.688716e-06
5.869240e-06 1.710368e-05 1.045326e-06
-1.688182e-05 -1.300636e-05 -4.368112e-22
3.657941e-07 1.787963e-05 -6.906157e-07
1.982304e-05 7.180246e-06 -8.719146e-07
4.687728e-06 -2.054630e-05 -8.879647e-07
4.687728e-06 2.054630e-05 -8.879647e-07
-3.111009e-06 1.995880e-05 1.651901e-06
2.796947e-06 1.948287e-05 -1.776671e-06
2.796947e-06 -1.948287e-05 -1.776671e-06
-1.784720e-05 -5.202467e-06 -1.517040e-06
1.625221e-05 1.212065e-05 1.619621e-06
1.307170e-05 -1.216474e-05 -6.224611e-07
-1.625363e-05 -1.378335e-05 -4.368112e-22
-9.543105e-06 1.883845e-05 8.075945e-07
-1.702580e-05 -1.249236e-05 8.085767e-07
-9.543161e-06 -1.883856e-05 -8.073507e-07
4.015359e-06 -1.818179e-05 -1.535119e-06
4.015359e-06 1.818179e-05 -1.535119e-06
-1.856681e-05 4.282145e-06 -1.719433e-06
-1.697080e-05 1.255718e-05 -8.199342e-07
1.715832e-05 -7.214039e-06 1.531122e-06
-7.653065e-07 1.791007e-05 -7.852719e-07
-2.097602e-05 -2.420888e-06 -8.124224e-07
-1.558970e-05 -1.453004e-05 -4.368112e-22
1.886156e-05 -6.904585e-06 1.693883e-06
4.567140e-06 -1.751091e-05 -1.064426e-06
4.551380e-06 1.752332e-05 -1.075147e-06
-1.305133e-05 -1.271177e-05 1.211462e-06
-1.138499e-05 1.361982e-05 1.615047e-07
1.870836e-05 9.904893e-06 -6.984374e-07
-4.124456e-06 1.773385e-05 1.198709e-06
1.519091e-05 1.462055e-05 -8.712685e-07
1.766534e-05 2.002971e-06 3.481415e-07
1.766408e-05 -1.999789e-06 3.399345e-07
-1.489151e-05 -1.524480e-05 -4.368112e-22
-1.795927e-05 -5.911990e-07 8.667349e-07
-1.005751e-05 -1.469103e-05 -4.575984e-07
5.439899e-06 -1.692473e-05 3.428228e-07
-1.098481e-05 1.409476e-05 -6.572752e-07
6.977464e-06 1.989974e-05 8.644368e-07
1.650818e-05 -1.126390e-05 1.723805e-06
1.703169e-05 -1.249668e-05 7.940712e-07
-1.726601e-05 -9.612076e-06 1.768050e-06
1.745896e-05 6.050975e-06 1.441682e-06
1.737528e-05 -6.159780e-06 1.409387e-06
-1.416059e-05 -1.592604e-05 -4.368112e-22
7.284257e-06 1.847846e-05 -1.751721e-06
7.284257e-06 -1.847846e-05 -1.751721e-06
1.043907e-05 1.834516e-05 8.277533e-07
1.807159e-05 2.127820e-06 -1.186781e-06
1.807156e-05 -2.127757e-06 -1.186747e-06
4.513456e-06 1.918661e-05 -1.774035e-06
4.513456e-06 -1.918661e-05 -1.774035e-06
-4.199410e-06 1.731959e-05 -5.190579e-07
1.372326e-05 1.600652e-05 -8.707456e-07
-4.693028e-06 1.954919e-05 1.687508e-06
-1.339853e-05 -1.657228e-05 -4.368112e-22
-1.794697e-06 1.768119e-05 -3.137776e-07
-1.755049e-05 -9.854572e-06 -1.679363e-06
2.078430e-05 -3.614605e-06 8.485108e-07
2.078430e-05 3.614605e-06 8.485108e-07
-1.411672e-05 1.195746e-05 1.457823e-06
7.235249e-07 -2.024260e-05 1.628115e-06
-1.769799e-05 -1.385712e-06 1.680906e-07
1.527223e-05 -9.744983e-06 1.090464e-06
-1.831928e-05 -8.338508e-06 -1.679412e-06
1.591236e-06 1.868857e-05 1.607931e-06
-1.260703e-05 -1.718208e-05 -4.368112e-22
1.528216e-05 1.312116e-05 -1.674173e-06
-1.318332e-06 -2.008803e-05 -1.678165e-06
-1.825076e-05 1.614693e-06 -1.314207e-06
1.087982e-05 1.491418e-05 1.429182e-06
1.221000e-05 1.622826e-05 -1.603316e-06
1.905143e-05 7.467055e-07 -1.722649e-06
1.905143e-05 -7.467055e-07 -1.722649e-06
1.985211e-05 7.237634e-06 7.823371e-07
-1.621791e-05 8.151385e-06 1.134003e-06
-4.099149e-06 -2.070168e-05 -8.347922e-07
-1.178781e-05 -1.775412e-05 -4.368112e-22
-1.730429e-05 4.225989e-06 -4.899652e-07
-2.111483e-05 4.148586e-07 -8.052711e-07
-1.603181e-05 -7.807657e-06 -5.524768e-07
-1.798134e-05 -2.337588e-07 -8.911944e-07
-1.821774e-05 -8.477645e-06 1.691201e-06
-6.614986e-06 -1.910598e-05 -1.644077e-06
1.220643e-05 -1.630410e-05 -1.573467e-06
-2.026599e-06 1.870916e-05 -1.636414e-06
2.097228e-05 -2.202166e-06 8.643821e-07
2.097228e-05 2.202166e-06 8.643821e-07
-1.094268e-05 -1.828712e-05 -4.368112e-22
1.644434e-05 -8.538797e-06 1.477662e-06
8.072044e-06 1.806330e-05 -1.764770e-06
8.075319e-06 -1.807565e-05 -1.762886e-06
-1.490358e-05 -9.707069e-06 3.840120e-07
-1.579371e-05 1.404293e-05 -7.747477e-07
-1.579371e-05 -1.404293e-05 7.747477e-07
1.720980e-05 -7.621056e-06 -1.637766e-06
-1.704827e-05 -1.076250e-05 -1.667076e-06
1.988712e-05 -7.044829e-06 -8.452427e-07
-1.790647e-05 -3.208541e-06 -1.181410e-06
-1.007349e-05 -1.877993e-05 -4.368112e-22
1.177060e-05 1.327847e-05 2.728125e-08
8.786474e-06 -1.665725e-05 1.642400e-06
1.308827e-05 -1.285466e-05 -1.335044e-06
1.830970e-05 -5.959648e-06 1.762485e-06
1.115860e-05 -1.668345e-05 1.698573e-06
-1.842589e-05 9.045748e-06 1.477420e-06
-1.542488e-05 -1.324473e-05 -1.592223e-06
-1.839525e-05 7.447404e-06 1.754838e-06
1.638403e-05 8.538265e-06 1.439880e-06
-1.995474e-05 6.107509e-07 -1.729188e-06
-9.182161e-06 -1.923146e-05 -4.368112e-22
1.717243e-05 1.047344e-05 -1.684161e-06
1.181230e-05 1.386048e-05 1.203018e-06
-1.615023e-05 7.634413e-06 -6.419610e-07
-2.145992e-06 -1.761751e-05 -1.117966e-07
2.567866e-06 -1.785634e-05 9.836785e-07
2.568445e-06 1.785540e-05 9.823940e-07
3.617346e-07 2.107738e-05 -8.770605e-07
-1.725839e-05 9.852148e-06 -1.749753e-06
-2.024947e-05 1.140171e-06 1.616231e-06
9.633054e-06 1.556006e-05 1.294182e-06
-8.270647e-06 -1.964071e-05 -4.368112e-22
-1.577940e-05 8.856706e-06 -1.062196e-06
1.736192e-05 -3.781750e-06 2.963608e-07
1.737354e-05 3.774453e-06 3.495637e-07
1.557985e-05 -1.253982e-05 1.719869e-06
1.688510e-05 5.461456e-06 -8.786183e-08
1.555145e-05 -8.752252e-06 5.914639e-07
1.050562e-05 -1.829985e-05 -8.396925e-07
1.050078e-05 1.830490e-05 -8.359934e-07
1.689819e-05 -5.440757e-06 -1.714299e-07
1.284592e-05 1.447778e-05 -1.775061e-06
-7.340952e-06 -2.000679e-05 -4.368112e-22
-1.985235e-05 -2.111493e-06 1.729129e-06
4.604332e-07 -2.019836e-05 -1.650346e-06
1.941023e-05 8.313476e-06 -8.116557e-07
-1.357799e-05 1.157271e-05 5.785517e-07
-2.016791e-05 -6.344482e-06 7.572434e-07
1.126572e-05 1.490891e-05 -1.572695e-06
1.957017e-05 4.536038e-06 1.692771e-06
1.053964e-06 2.110449e-05 7.813199e-07
-1.397272e-05 1.094109e-05 -9.355764e-08
1.560608e-05 8.719055e-06 6.741861e-07
-6.395120e-06 -2.032888e-05 -4.368112e-22
1.629264e-05 7.134579e-06 3.851179e-07
8.664045e-06 1.607061e-05 1.251760e-06
-1.521820e-05 -1.002894e-05 1.218736e-06
-1.561849e-05 1.418782e-05 8.406289e-07
-5.933975e-06 2.029469e-05 -7.527276e-07
-5.823262e-06 -2.032207e-05 7.622885e-07
8.654099e-06 -1.924368e-05 8.414604e-07
1.696852e-05 1.075145e-05 1.693123e-06
-1.033855e-05 -1.449990e-05 4.734812e-07
1.627557e-06 -1.875701e-05 1.640235e-06
-5.435231e-06 -2.060629e-05 -4.368112e-22
-9.770906e-06 1.778088e-05 1.612884e-06
-1.317399e-05 -1.307991e-05 -1.500935e-06
1.946639e-05 -8.069749e-06 8.906089e-07
-9.759523e-06 -1.778897e-05 -1.612123e-06
1.785796e-05 8.906321e-06 -1.731287e-06
1.872977e-05 -9.679707e-06 8.722613e-07
2.018068e-05 -6.335900e-06 7.364123e-07
-1.953785e-05 7.963047e-06 8.447661e-07
7.522451e-06 1.607169e-05 5.406219e-08
5.560344e-06 2.035308e-05 -8.435510e-07
-4.463393e-06 -2.083841e-05 -4.368112e-22
5.560344e-06 -2.035308e-05 -8.435510e-07
-1.719727e-05 9.294965e-06 1.783295e-06
1.823767e-05 -4.518903e-06 1.623346e-06
1.601451e-05 -1.372848e-05 -8.536155e-07
5.289825e-06 1.696008e-05 2.770900e-07
-1.625662e-05 -1.230940e-05 -1.560427e-06
1.717726e-05 7.631353e-06 -1.626508e-06
-1.903431e-05 6.166471e-06 -1.717436e-06
-1.610243e-05 -1.066366e-05 -1.770485e-06
-1.007639e-05 1.547981e-05 -1.436306e-06
-3.481744e-06 -2.102471e-05 -4.368112e-22
-1.007639e-05 -1.547981e-05 1.436306e-06
1.625094e-05 -9.868854e-06 1.707496e-06
7.461713e-06 -1.609908e-05 3.117895e-09
-2.013144e-05 -2.415041e-06 -1.618908e-06
-1.775700e-05 3.043549e-07 -2.337329e-07
6.119167e-07 2.021353e-05 -1.642359e-06
2.599269e-06 2.093582e-05 8.479847e-07
8.036321e-06 1.709692e-05 -1.666088e-06
-4.792445e-07 1.793371e-05 8.126057e-07
6.190430e-06 1.923351e-05 1.649701e-06
-2.492441e-06 -2.116480e-05 -4.368112e-22
1.062724e-05 -1.555067e-05 -1.643468e-06
9.644059e-06 1.490058e-05 1.336004e-07
-1.971374e-05 4.161282e-06 1.671989e-06
9.736437e-06 1.538320e-05 -1.196903e-06
-9.014772e-06 1.629541e-05 -1.536797e-06
-9.014772e-06 -1.629541e-05 1.536797e-06
4.279742e-06 -1.764503e-05 1.140583e-06
4.177288e-06 1.767381e-05 1.145527e-06
-1.048527e-05 -1.835819e-05 7.589082e-07
-1.048527e-05 1.835819e-05 -7.589082e-07
-1.497660e-06 -2.125837e-05 -4.368112e-22
1.514478e-05 -1.156516e-05 -1.719824e-06
-3.724940e-06 -1.762681e-05 -9.464691e-07
-1.510032e-05 1.304719e-05 1.731166e-06
1.305892e-05 1.289981e-05 -1.344501e-06
-1.712856e-05 6.605542e-06 1.346412e-06
-7.750733e-06 1.968390e-05 -7.297906e-07
-7.750733e-06 -1.968390e-05 7.297906e-07
-1.763878e-05 2.698848e-06 -5.883236e-07
-1.245782e-05 -1.380182e-05 -1.518687e-06
9.515033e-06 -1.497997e-05 8.858008e-08
-4.995860e-07 -2.130520e-05 -4.368112e-22
[...]
POINT_DATA 2083
VECTORS 10.000GHz_fone_imag double
-1.494437e+10 2.693575e+10 1.346186e+09
-3.063084e+10 -1.176305e+10 -1.538351e+09
-2.474080e+10 2.076356e+10 -1.381835e+09
2.303517e+10 4.297426e+09 -6.475760e+08
-1.396183e+10 -4.604563e+10 1.022012e+09
3.857644e+10 3.612344e+10 -4.314819e+08
2.309665e+10 -2.388677e+09 -5.078259e+08
2.713896e+09 3.279395e+10 5.779706e+06
5.606653e+09 -3.677028e+10 2.193790e+09
-3.698159e+10 2.565087e+10 -1.096866e+09
2.330444e+10 -2.229408e+10 9.224204e+07
-1.462076e+10 2.186549e+10 -9.498941e+08
-2.454022e+09 -3.930692e+10 4.234107e+08
5.803169e+09 -3.702170e+10 7.416972e+08
-8.785985e+09 2.738440e+10 5.942207e+08
1.494592e+10 2.276328e+10 3.161672e+09
3.713921e+10 -3.582631e+10 4.715138e+09
-3.679450e+10 -1.953493e+10 -1.092101e+09
1.880023e+10 -2.713342e+10 -1.659140e+09
-8.666167e+09 4.480626e+10 -3.355107e+07
-3.028903e+10 -3.682172e+09 1.138257e+09
2.953648e+10 -3.425915e+09 -1.204849e+09
-1.712014e+10 2.536853e+10 1.356321e+08
2.571704e+10 2.162503e+10 -5.821849e+08
-1.589374e+10 -2.847462e+10 1.864379e+09
2.911029e+10 -2.330662e+10 -1.461408e+08
1.700352e+10 1.509786e+10 -4.608146e+08
-2.454506e+10 2.115879e+10 -9.679605e+08
-3.309387e+10 -2.324482e+10 -2.141941e+09
-3.274021e+10 -2.424573e+10 1.083815e+08
-2.113100e+10 1.494194e+10 9.623496e+08
6.165999e+09 3.510661e+10 -9.772720e+08
5.368444e+10 -1.767945e+10 2.513786e+09
-1.774871e+10 2.276055e+10 2.289615e+09
4.360696e+10 -3.789552e+09 -1.310387e+09
8.893227e+09 -2.546690e+10 5.018138e+07
-2.176664e+10 -5.138154e+09 -1.400086e+09
2.157436e+10 -3.727867e+09 -1.202312e+09
3.092944e+10 2.624340e+09 1.454199e+09
3.649859e+10 -1.135821e+09 1.573253e+08
-3.296641e+10 -4.881363e+09 3.672251e+08
-1.201804e+10 3.999990e+10 5.420167e+07
1.833157e+10 -2.715582e+10 2.239262e+09
-3.406836e+10 -3.723988e+10 -1.865808e+09
-1.764100e+10 1.982491e+10 -7.550741e+08
2.790259e+10 1.474693e+10 -2.278478e+08
-1.685179e+10 2.418430e+10 1.030468e+09
-2.154948e+10 1.119679e+10 -1.401960e+08
-4.448279e+10 -1.107767e+10 -5.307468e+08
3.059441e+10 -1.006299e+10 -2.005445e+09
6.775110e+09 2.734252e+10 -1.189601e+09
1.801870e+10 2.504711e+10 1.274638e+09
-1.364417e+10 -3.501105e+10 -1.261699e+09
4.537300e+10 4.897290e+09 -6.540923e+08
-3.470332e+09 2.451926e+10 -6.488731e+08
-1.714803e+10 1.944846e+10 2.687613e+09
-1.081684e+10 -3.026649e+10 3.034598e+08
-3.732294e+10 -9.862517e+09 6.208361e+07
4.978683e+10 -1.128698e+10 -2.322912e+09
-3.661443e+10 3.583321e+10 9.916511e+08
4.002198e+10 3.286499e+10 7.422757e+08
1.548664e+10 -2.866924e+10 -2.164932e+08
5.119596e+10 1.101129e+10 -1.020787e+09
1.937966e+10 -1.867431e+10 6.415394e+08
5.495849e+09 -5.917232e+10 -5.639555e+08
-4.703483e+09 -4.057944e+10 3.223320e+08
-1.722596e+10 1.765927e+10 -1.675665e+09
-2.573647e+09 3.591142e+10 2.484961e+09
-4.898600e+10 3.192206e+10 -3.667193e+09
-3.995093e+10 -1.556204e+10 2.271649e+08
2.999457e+10 2.800215e+10 -5.664586e+09
2.527667e+10 -7.154405e+09 -1.377384e+08
-1.511549e+10 -2.051366e+10 2.337931e+08
-2.020540e+10 -2.708899e+10 -3.842178e+08
-2.095539e+10 3.652005e+10 3.124144e+08
1.517361e+10 -4.375259e+10 1.679945e+08
-1.850226e+10 -4.814783e+10 -6.635693e+08
-2.326377e+10 2.013269e+10 -3.161355e+08
3.162122e+10 -1.310599e+10 6.440812e+08
-3.616377e+10 -1.564636e+10 7.353906e+07
2.360333e+10 -1.264605e+10 -1.309435e+09
6.295599e+09 -3.875339e+10 -9.414745e+08
-2.030581e+09 -3.708381e+10 9.651005e+08
4.349401e+10 -1.162021e+10 3.996638e+08
-3.817829e+10 -8.901634e+09 4.015369e+08
4.578652e+10 1.155147e+10 -1.772556e+09
2.204106e+10 -1.674250e+10 -1.122809e+09
3.367695e+10 1.039704e+10 -1.224223e+09
-1.973773e+10 1.270382e+10 4.777077e+08
4.441526e+10 2.012893e+09 1.686818e+09
-1.248464e+10 2.256892e+10 1.671179e+09
-5.421796e+09 -3.270646e+10 1.451063e+08
5.969896e+09 -2.211725e+10 1.339552e+09
2.379356e+10 3.084804e+10 -2.232384e+09
-2.435406e+10 -1.270407e+09 -6.077214e+08
-4.842008e+09 6.291177e+10 -5.148803e+07
-2.805697e+10 -4.482756e+10 -9.734870e+08
-1.594077e+10 3.545156e+10 -1.111647e+09
5.313131e+10 -2.485338e+09 -4.444552e+08
-1.933269e+10 1.730402e+10 1.685833e+08
2.094541e+10 -2.293790e+10 -2.120261e+09
-3.094363e+10 -3.121853e+09 -4.692509e+08
2.692033e+09 5.273589e+10 4.920943e+08
4.217083e+10 -3.088402e+10 -5.041288e+08
2.222426e+10 -1.805946e+10 2.447010e+09
2.647966e+09 -4.099500e+10 -1.339410e+09
-3.171915e+09 -4.320566e+10 -7.443346e+07
1.091283e+10 -2.961354e+10 -1.721540e+08
1.567320e+10 3.117318e+10 3.063471e+07
-3.068120e+10 4.619613e+09 2.143315e+09
-2.718482e+10 1.819707e+10 -1.522798e+09
1.294302e+10 5.677494e+10 8.565812e+08
7.743643e+08 3.343858e+10 -1.393129e+09
-1.589865e+10 3.513180e+10 -5.685774e+08
-2.286210e+09 5.635478e+10 -3.409336e+08
-1.353358e+10 2.646007e+10 -1.484760e+09
-2.631163e+10 9.826468e+09 1.201417e+09
-2.568742e+10 -2.371740e+10 2.102439e+09
5.005879e+10 5.600561e+09 2.368092e+08
-4.006305e+09 -2.285771e+10 -5.107230e+08
3.393511e+09 -3.206988e+10 -1.713466e+08
-2.968229e+10 1.686759e+10 -2.643336e+09
-2.184358e+10 -4.634452e+10 1.793009e+09
3.247712e+10 -9.978037e+09 -1.236662e+09
-3.752661e+10 -1.563705e+10 -2.071151e+08
-3.408677e+10 5.211207e+10 -5.171871e+07
1.804314e+10 1.933538e+10 -8.696815e+08
-1.856498e+10 2.080380e+10 -1.218020e+08
-1.022352e+10 -3.055370e+10 -6.350099e+08
-1.595408e+10 2.413579e+10 -2.794318e+08
-9.311299e+09 -2.721412e+10 2.154028e+09
-1.032968e+10 5.786772e+10 -3.735740e+08
-2.291717e+10 1.083402e+10 2.023716e+08
2.592327e+10 -2.444938e+10 -1.426988e+09
-2.941052e+10 -1.545173e+10 -6.337695e+07
-2.369615e+10 -2.428909e+10 -5.536855e+08
-1.386142e+10 -3.743595e+10 -1.161890e+07
-2.443444e+10 -1.721740e+10 -2.130431e+09
1.407364e+10 2.516363e+10 -4.718839e+08
-1.767659e+10 2.111545e+10 -3.573072e+08
7.812028e+09 2.947118e+10 -1.199022e+09
1.773262e+10 -4.513069e+10 2.412656e+08
1.953114e+09 2.884684e+10 4.312274e+08
-2.140802e+10 1.020839e+10 -2.244331e+09
1.977348e+10 -3.402784e+10 6.316270e+08
3.688092e+10 -3.088864e+10 2.271459e+09
2.012372e+10 4.127011e+10 -2.502584e+08
-5.685163e+10 6.242503e+09 -1.296852e+08
-5.527815e+10 -8.491218e+09 1.261414e+07
4.985922e+10 -1.045476e+10 -2.578759e+09
2.575022e+10 2.512793e+09 -4.967482e+07
1.531494e+10 3.168717e+10 2.241550e+09
1.260396e+09 2.931349e+10 -3.008791e+08
4.607415e+10 -2.854357e+10 -1.936040e+09
-1.958119e+10 8.007192e+09 9.480550e+08
1.609682e+10 3.437969e+10 1.613140e+09
-9.212957e+09 -4.270441e+10 -2.024708e+09
7.930745e+09 -4.333371e+10 8.051822e+08
-1.560569e+10 -2.141359e+10 -1.690777e+09
1.405154e+10 -3.843919e+10 -1.375211e+09
-2.318016e+10 -3.973857e+10 -4.418102e+09
-2.968908e+10 -1.819160e+10 8.934289e+08
2.603379e+10 -1.479255e+10 1.359649e+09
-1.723000e+10 -5.059290e+10 -1.728556e+09
3.160733e+10 -3.252109e+10 2.743370e+08
-2.224122e+10 9.205759e+09 -1.551369e+08
-4.578593e+09 3.764040e+10 -9.974778e+08
-2.280535e+10 -1.570073e+08 4.932260e+08
1.209622e+10 -2.813920e+10 -5.398237e+06
3.811549e+10 4.373567e+10 1.340969e+08
-8.724808e+09 2.581547e+10 -7.073300e+08
3.751288e+10 -2.698412e+10 -1.396912e+08
8.304417e+09 -3.108461e+10 -1.570121e+09
3.281449e+10 -1.604614e+09 4.536413e+08
2.661666e+10 3.164980e+10 1.327527e+09
2.059904e+10 -3.633785e+10 1.566580e+09
-2.557548e+10 7.817850e+09 -4.660540e+08
2.476951e+10 -5.810998e+10 -7.107694e+08
5.196458e+10 -2.608687e+10 5.896672e+08
-2.918929e+10 4.334435e+10 -4.606412e+08
1.510142e+10 1.936394e+10 -6.600415e+08
2.408792e+10 6.159623e+09 -9.318464e+08
-2.777840e+10 8.191899e+09 -1.889441e+08
-2.460359e+10 -1.069438e+10 2.017817e+08
1.536512e+10 -2.430196e+10 -1.243554e+08
-3.539310e+10 2.368444e+10 -2.513512e+08
-4.705793e+10 -3.587937e+09 -1.758024e+09
-2.354300e+10 5.021175e+09 -8.779709e+08
2.208603e+10 1.291642e+10 -1.089244e+09
-3.707699e+10 3.485977e+10 1.288411e+09
-1.057542e+10 -2.379047e+10 4.621271e+08
-2.052169e+10 1.303851e+10 -1.308200e+09
1.287976e+10 -2.982624e+10 -2.727990e+09
-9.437681e+09 -1.931380e+10 -2.600824e+09
-6.643803e+09 -2.184619e+10 2.143695e+07
8.228466e+09 2.513223e+10 1.427373e+09
5.428505e+10 -2.647241e+10 3.137749e+09
2.547957e+10 -6.034104e+09 3.433260e+09
-2.157113e+10 6.491794e+09 2.226558e+09
-3.084449e+10 -8.785207e+09 -3.898650e+08
1.918458e+10 3.407231e+10 3.430184e+08
-6.726014e+09 -3.855064e+10 2.047071e+09
-1.807895e+10 -2.070469e+10 -2.379437e+09
5.040591e+10 -1.793579e+10 5.014260e+08
-1.417400e+10 2.142398e+10 2.316867e+09
2.014155e+10 -4.501101e+10 1.179371e+08
1.103944e+10 3.334763e+10 -1.112860e+09
-2.270009e+10 3.610688e+10 -5.996091e+08
3.566833e+10 2.697620e+10 -3.467020e+09
-2.091656e+10 2.474240e+09 -1.372934e+08
-4.152095e+10 2.876796e+10 2.705659e+08
-2.232696e+10 -3.967072e+10 -1.416344e+09
-4.768788e+10 -2.213577e+10 1.588891e+09
-4.854535e+09 2.945753e+10 -2.213123e+09
1.960769e+09 5.905784e+10 -3.151414e+08
2.105619e+10 6.781138e+07 -1.453311e+09
3.494450e+10 -5.186429e+09 4.541580e+08
3.073713e+10 -1.317953e+10 9.437968e+08
4.238221e+10 2.289541e+09 5.088634e+09
2.868268e+10 -1.069252e+10 -9.044701e+08
-2.179572e+10 4.665603e+09 3.942415e+08
-4.041567e+10 -2.650280e+10 6.372221e+06
3.091093e+10 -1.861298e+10 -2.766829e+09
7.779642e+09 2.897306e+10 2.655372e+09
3.679880e+10 -2.473090e+10 5.252646e+08
3.973425e+10 1.968173e+10 2.365951e+09
-3.766128e+10 2.186358e+10 -1.021463e+09
-4.335790e+10 -8.829202e+09 -3.542653e+08
3.873730e+10 -7.272002e+09 -5.873590e+08
-2.751052e+10 1.296064e+10 -4.569089e+09
2.323782e+10 1.245389e+10 -1.357725e+09
-2.830419e+10 1.408315e+09 -1.470649e+09
-2.516554e+10 -3.126444e+10 7.846854e+08
-4.503421e+10 9.585071e+09 -2.154823e+09
2.172333e+10 2.724302e+10 -3.101055e+09
2.742435e+10 -2.659145e+10 3.019172e+08
1.804940e+10 3.418335e+10 -3.169345e+09
2.026401e+10 9.837023e+09 1.344398e+09
-2.361938e+10 9.044162e+09 2.042166e+09
2.690354e+09 3.700287e+10 -5.855532e+07
-3.422039e+10 3.458166e+10 1.580223e+08
-3.725638e+10 -2.229240e+10 4.662116e+08
-2.072710e+10 -2.235976e+08 -1.554133e+08
8.195066e+09 1.982037e+10 -8.575947e+08
-1.476989e+10 2.289508e+10 -2.429700e+09
-2.093799e+10 4.757893e+09 -1.572645e+09
-4.724234e+10 -1.159493e+09 3.522186e+08
-1.509142e+10 4.254152e+10 2.812237e+09
-1.920289e+10 1.862998e+10 -2.646817e+09
1.633186e+10 3.716641e+10 -6.091342e+08
-1.431548e+10 5.205234e+10 -3.598491e+09
-3.335218e+10 1.850322e+10 2.080108e+09
-1.531459e+10 -3.289756e+10 -3.742419e+08
-3.014655e+10 -3.415601e+08 -1.350071e+09
3.636838e+10 1.315572e+10 -2.747831e+08
-4.190911e+10 -1.423675e+10 1.893515e+09
-1.618678e+10 -4.184276e+10 9.731843e+08
-1.782886e+10 -2.116589e+10 1.195308e+09
-2.141839e+09 1.946891e+10 2.665926e+08
1.568985e+10 -2.102994e+10 -8.351584e+08
3.332521e+10 -1.670861e+10 -8.000572e+08
-3.097857e+10 -1.275845e+10 -4.287734e+08
-2.485860e+10 -7.012032e+09 1.670164e+09
-2.201167e+09 -6.011723e+10 1.354082e+09
-2.345568e+10 -1.124331e+09 -4.633888e+08
1.651134e+09 -5.186142e+10 -4.394158e+07
-4.042740e+10 3.279086e+09 -5.523230e+09
-1.673678e+10 2.786727e+10 1.399280e+09
9.023910e+09 -3.075262e+10 1.661429e+09
2.210970e+10 2.031509e+10 -3.159009e+08
2.620040e+10 5.129151e+09 2.879804e+09
3.983545e+10 -3.358200e+09 1.504592e+09
-4.493344e+10 -4.384609e+09 1.573592e+09
-1.082224e+10 3.683828e+10 6.591184e+08
2.526684e+10 1.303759e+10 -2.487584e+09
-2.751983e+10 -2.441474e+09 5.846348e+08
-7.377273e+09 -2.983114e+10 1.211171e+09
1.556349e+10 4.458040e+10 -3.734307e+08
2.857124e+10 -2.824972e+10 -2.238582e+09
-4.662819e+10 1.487078e+10 -1.833570e+09
2.995867e+10 2.632014e+10 7.153270e+08
-2.339000e+10 1.802268e+10 -4.746483e+08
-9.952046e+08 3.644579e+10 -8.236087e+08
6.940339e+09 2.001214e+10 -8.095559e+08
-1.078378e+10 -3.932750e+10 -5.820614e+08
-4.622368e+10 1.107975e+09 3.702552e+08
-3.127306e+10 -4.920627e+09 -1.997477e+09
1.986955e+10 3.545976e+10 2.501467e+09
-3.189277e+10 1.830362e+09 -3.357378e+08
3.057470e+10 -9.820470e+09 8.033179e+08
3.782548e+10 2.346441e+10 6.630043e+08
-6.984291e+09 2.405041e+10 -8.903326e+08
3.907031e+10 -5.481146e+09 -2.684526e+08
-2.461765e+10 -5.352737e+09 -1.205280e+09
-3.447752e+10 -3.145425e+10 -3.770280e+08
1.585546e+10 -1.862280e+10 1.753332e+09
3.604894e+10 -2.488964e+09 9.172724e+08
-3.529897e+10 -7.662283e+09 -1.591385e+08
-4.056085e+10 -3.392171e+10 -1.453404e+09
2.606036e+10 1.941077e+10 2.453723e+09
-6.809477e+09 -4.620753e+10 6.136990e+08
6.763414e+09 -5.263940e+10 1.172944e+09
3.912920e+10 3.996055e+10 7.945275e+08
2.170957e+10 -2.050303e+10 -8.186505e+08
-5.792681e+10 1.291666e+10 -1.075050e+09
2.710823e+10 -2.126551e+10 4.834215e+08
2.159302e+09 2.779611e+10 -2.837583e+09
-3.286314e+10 1.615541e+09 1.265979e+09
-3.334327e+10 -9.898805e+09 -2.507782e+08
4.889332e+10 3.541556e+10 -1.045182e+09
-1.959848e+10 -2.970694e+10 -5.620117e+08
-2.983987e+10 2.473892e+09 -2.797998e+09
1.193068e+10 -3.191790e+10 3.197274e+09
-3.516686e+10 3.465467e+09 -1.226979e+08
-1.974623e+10 -1.455798e+10 1.427292e+09
1.071395e+10 4.245959e+10 -8.875600e+08
-7.796588e+08 3.069202e+10 -2.407465e+09
3.344145e+10 1.626505e+10 6.503520e+06
3.603310e+10 -1.092086e+10 -5.613591e+07
-2.831825e+10 -8.783662e+09 -6.575306e+08
-3.632349e+10 -1.115587e+10 1.354079e+09
1.938158e+10 -1.498641e+09 2.606532e+08
-1.504957e+10 -4.091047e+10 -3.014734e+09
3.086285e+10 -2.960286e+10 -2.786539e+09
2.749696e+10 5.226432e+09 6.786302e+08
-3.483585e+10 -5.260439e+09 -8.338214e+08
5.196832e+10 -7.205982e+09 5.358860e+09
-4.031124e+10 1.611318e+10 1.602998e+09
2.975821e+10 1.477445e+10 5.049100e+08
-4.268968e+10 -2.228134e+09 2.481601e+09
-2.566772e+10 -9.692095e+09 -8.661710e+08
1.770923e+10 -4.053915e+10 -1.246010e+08
-3.342432e+10 5.513310e+09 2.167282e+08
3.920353e+09 -5.114024e+10 2.278373e+09
-2.544636e+09 -3.726662e+10 1.005453e+09
1.424093e+10 -2.271388e+10 -1.935627e+09
-1.176705e+10 -2.522585e+10 9.971150e+08
-2.319282e+10 9.206423e+09 -2.763689e+09
-1.883133e+10 4.526140e+10 3.181673e+08
2.579746e+08 -3.246190e+10 1.375188e+09
1.514373e+09 -2.663391e+10 -1.567099e+09
-2.757136e+10 -1.172750e+10 2.102544e+09
3.643365e+10 1.930809e+09 1.014883e+09
3.253616e+10 1.272609e+09 -1.619519e+09
-2.297530e+10 -1.291580e+10 2.060051e+09
-2.466082e+10 4.563269e+09 -2.299439e+08
7.099536e+09 -2.737960e+10 1.226884e+09
3.069286e+10 4.690299e+10 -2.446223e+08
-2.280540e+10 -2.489907e+10 -2.185698e+09
2.019168e+10 -4.218927e+10 2.224695e+09
-1.000734e+10 -4.313455e+10 -4.343858e+08
-2.369388e+10 4.230023e+10 -1.012372e+09
-2.822672e+10 -1.293646e+10 7.980241e+08
-2.652035e+10 3.104355e+10 3.766962e+09
3.910868e+10 3.179798e+10 3.867460e+08
-3.356607e+10 5.650645e+09 -2.830505e+09
2.513193e+09 -3.571691e+10 5.370741e+08
-3.485123e+09 -3.551275e+10 8.805751e+07
-3.336274e+10 1.210224e+10 1.050399e+09
-2.839789e+10 -1.543799e+10 6.056153e+08
1.611245e+10 -4.132053e+10 -6.667046e+08
2.135304e+10 5.282681e+10 4.939005e+09
-4.867928e+10 -2.925100e+10 -1.769913e+09
-2.163771e+10 -1.256504e+10 5.129839e+08
-4.657879e+10 3.623726e+10 -2.257684e+09
4.152857e+09 -4.189122e+10 6.966306e+08
-4.692071e+09 -3.178865e+10 -3.763647e+09
-2.353746e+10 -3.642894e+10 -3.068772e+09
-9.085579e+09 -3.468182e+10 7.119988e+08
4.725649e+10 -2.283102e+10 -2.618407e+09
-1.944249e+10 -2.541055e+10 -1.021249e+09
1.859525e+10 2.919194e+10 1.099980e+09
3.225685e+10 9.672752e+09 -9.514573e+08
2.745235e+10 -1.863640e+10 4.916595e+08
-1.827492e+10 -1.178333e+10 1.874941e+08
2.956978e+10 -6.999547e+09 -3.943806e+08
-2.864612e+10 -4.976007e+09 1.039311e+09
1.196555e+10 3.598525e+10 -6.981048e+08
3.131827e+10 3.624234e+10 2.618864e+09
-1.452235e+10 -3.698919e+10 -3.707961e+08
-2.115673e+10 -1.436682e+10 -8.811126e+08
1.589401e+10 3.324873e+10 -4.082590e+08
-1.911271e+10 3.279558e+10 2.166630e+09
2.392840e+10 -2.224358e+09 -1.554262e+09
1.124550e+10 -3.186515e+10 5.825803e+08
-2.021981e+10 -1.154704e+10 -2.889458e+08
1.172066e+10 3.399076e+10 1.210387e+09
4.125834e+10 8.633560e+09 -4.309311e+08
-3.583071e+10 9.941214e+09 -2.691334e+08
4.777746e+09 3.047770e+10 1.757274e+09
-7.941182e+09 3.093460e+10 7.156948e+08
-2.560303e+10 -2.576964e+10 -1.846056e+09
-3.738141e+10 1.615336e+10 7.807824e+08
4.399113e+10 2.321445e+10 -2.764118e+09
2.162096e+10 -8.692432e+09 -9.061246e+08
-2.163884e+10 -8.645563e+09 -1.404564e+08
-2.529829e+10 -1.861323e+10 -3.168332e+09
8.776733e+09 3.051360e+10 4.265688e+08
-1.229763e+10 -2.940221e+10 -7.170876e+08
1.029933e+10 4.248094e+10 1.933491e+08
-3.152008e+10 3.527724e+10 -1.857674e+09
1.262026e+08 2.837190e+10 6.318124e+08
3.520883e+10 4.269057e+09 -1.132642e+09
3.097366e+10 2.657981e+10 -1.226415e+09
-2.965040e+10 -2.889828e+10 -1.089836e+09
-8.706737e+09 4.703237e+10 6.640139e+08
-3.855294e+10 7.090729e+09 1.937027e+08
-2.692687e+10 -2.061648e+10 -1.070076e+09
-3.652941e+09 3.596685e+10 -2.874358e+09
4.596386e+10 8.942004e+09 9.999825e+08
3.648024e+10 2.167315e+10 -1.574030e+09
1.864181e+10 2.638836e+10 -2.674174e+09
3.244106e+10 1.592559e+10 1.755067e+09
1.812999e+10 1.673118e+10 2.666409e+09
-1.609770e+10 -2.354628e+10 -1.322213e+09
3.052695e+10 4.449623e+09 -3.240429e+09
-1.848115e+10 3.790875e+10 -5.015087e+08
2.962024e+10 -6.244832e+09 -1.325633e+09
-2.564469e+10 -2.295058e+10 -2.468333e+08
-3.682020e+10 -6.770652e+09 -2.420711e+08
5.701827e+09 -4.676802e+10 4.960926e+07
-5.131096e+09 -4.456113e+10 8.468507e+08
5.272920e+10 1.853861e+10 -1.492102e+09
-3.485311e+10 -1.152645e+10 -2.948419e+08
4.069625e+10 -1.868925e+10 2.646498e+09
-3.870944e+10 -1.081997e+10 1.360205e+09
3.892953e+10 -1.680922e+10 8.069653e+08
-2.499147e+10 1.226504e+10 -1.410483e+09
9.955741e+09 3.643884e+10 -5.230603e+08
-2.462018e+10 -2.421865e+10 1.476698e+09
8.143963e+09 4.807495e+10 3.579752e+09
-5.517597e+09 3.360657e+10 -2.485595e+09
-1.723081e+10 1.722010e+10 -1.969949e+09
-6.302010e+08 -2.909929e+10 3.731113e+09
3.454743e+09 -2.805520e+10 -3.058138e+07
2.035153e+10 2.447860e+10 -1.013362e+09
-3.203844e+10 4.682325e+10 9.639135e+08
3.362104e+10 3.686125e+10 2.581125e+09
-3.470907e+10 3.441772e+10 -2.489878e+09
5.102663e+09 -3.210821e+10 7.190273e+08
-1.740077e+10 -1.929289e+10 4.253588e+07
2.619820e+10 -3.214412e+10 -1.482645e+09
-3.069680e+10 1.774132e+10 3.976729e+08
2.974425e+10 1.367861e+10 1.177793e+09
-2.514271e+10 8.302179e+09 -1.930490e+09
-4.125892e+10 1.620206e+10 3.810259e+09
-4.002487e+10 7.832064e+09 3.199398e+08
4.158953e+10 1.261108e+10 -9.186693e+08
4.634446e+10 9.208524e+09 9.658914e+08
-3.032069e+10 -2.571747e+10 -1.373108e+09
-2.005363e+10 -2.604007e+10 -1.134713e+09
-1.428060e+10 -1.756564e+10 -1.181756e+08
2.041291e+10 1.999057e+10 7.697336e+08
2.133508e+10 -2.428381e+10 2.321143e+09
-1.382552e+10 5.624600e+10 2.452892e+08
2.677154e+10 -1.317949e+10 7.303360e+08
1.608955e+10 -2.309831e+10 2.411683e+09
-3.103443e+10 -2.254433e+09 1.619956e+09
6.926638e+09 5.568695e+10 1.143123e+09
1.538173e+10 -2.632591e+10 -1.375641e+09
5.054535e+10 -1.888554e+08 -9.122063e+08
3.057992e+10 3.242891e+09 4.958555e+08
-1.741484e+10 -2.252902e+10 -1.127015e+09
-1.094205e+10 -3.681727e+10 -6.349294e+08
-1.054983e+10 -3.479998e+10 -1.823153e+09
3.236924e+10 5.496571e+09 -1.866275e+08
2.758600e+10 2.060217e+10 1.262895e+09
3.945694e+09 2.260898e+10 8.904556e+08
5.183832e+10 2.595913e+10 2.167988e+08
-4.420044e+10 1.898272e+10 1.695268e+09
3.479949e+10 -1.519087e+10 -8.943959e+08
-3.805181e+10 -2.355142e+10 -1.574252e+09
3.433560e+10 -2.062778e+10 4.328592e+08
-1.540153e+10 -2.334129e+10 4.898137e+08
1.220794e+10 -2.862996e+10 3.393783e+08
6.691561e+09 -2.250914e+10 8.504969e+08
-3.151473e+10 -1.102488e+10 -4.927756e+08
1.118234e+10 -3.405313e+10 4.989561e+08
-4.768615e+10 -8.245036e+09 3.107991e+08
3.512350e+10 -7.559763e+09 -2.411906e+08
2.717810e+10 -1.143760e+10 4.611367e+08
4.436912e+10 -3.380728e+10 -1.644851e+09
-5.151377e+09 3.623584e+10 9.934386e+08
-2.542475e+10 3.219524e+10 7.656365e+08
-1.210855e+10 -1.936473e+10 5.052318e+08
-2.619842e+10 -6.572467e+09 1.396188e+09
-2.141481e+10 -1.118884e+10 -8.831041e+08
-6.554397e+09 2.369017e+10 -1.745145e+09
-1.190475e+09 3.142591e+10 3.517373e+09
-1.411261e+10 -2.242731e+10 2.566520e+09
2.813583e+10 2.591064e+10 3.404287e+09