# vtk DataFile Version 2.0
Electric current density generated by TTH
ASCII
DATASET UNSTRUCTURED_GRID
POINTS 6351 double
3.700452e-05 -9.063494e-21 -1.820354e-22
3.676621e-05 4.192897e-06 -1.820354e-22
1.170111e-05 3.510582e-05 -1.820354e-22
3.448755e-05 -8.545611e-06 -1.353869e-07
3.448755e-05 8.545611e-06 1.353869e-07
3.561382e-05 -7.999814e-06 -7.034184e-07
3.561382e-05 7.999814e-06 7.034184e-07
3.459536e-05 -1.155002e-05 -7.125842e-07
3.399021e-05 -1.034488e-05 -1.301410e-07
3.398231e-05 1.036924e-05 1.275665e-07
-3.226131e-05 -1.703201e-05 7.099262e-07
-1.219206e-05 -3.439483e-05 7.065764e-07
-1.309445e-05 -3.365448e-05 7.280982e-07
1.125727e-05 3.525065e-05 -1.820354e-22
-1.686987e-05 3.235982e-05 7.061255e-07
-1.044146e-05 3.496609e-05 7.065718e-07
-9.276069e-06 3.490048e-05 7.280986e-07
1.082999e-06 -3.649331e-05 -7.005947e-07
2.760897e-05 2.386792e-05 -7.053037e-07
-3.544773e-05 2.839760e-06 2.497097e-07
-3.714608e-06 -3.630805e-05 7.046632e-07
-7.768095e-06 3.566012e-05 7.050524e-07
-1.476025e-05 -3.337849e-05 7.050472e-07
-2.404212e-05 -2.745844e-05 7.050438e-07
1.081163e-05 3.538988e-05 -1.820354e-22
-2.462483e-05 -2.640932e-05 7.273693e-07
-2.545733e-05 -2.602067e-05 7.296573e-07
2.448619e-05 2.659054e-05 7.344261e-07
-3.408098e-05 -1.217869e-05 -7.399425e-07
-3.408098e-05 1.217869e-05 -7.399425e-07
1.643132e-05 3.260340e-05 7.004216e-07
1.643132e-05 -3.260340e-05 -7.004216e-07
1.556421e-05 -3.300376e-05 -7.072766e-07
1.556421e-05 3.300376e-05 7.072766e-07
1.842297e-06 -3.647374e-05 -6.966520e-07
1.036428e-05 3.552346e-05 -1.820354e-22
-2.695036e-05 2.451361e-05 -7.235160e-07
-2.692936e-05 -2.458883e-05 -7.143467e-07
4.600006e-06 3.625045e-05 -6.885224e-07
4.600006e-06 -3.625045e-05 6.885224e-07
8.225707e-06 3.561631e-05 -6.832209e-07
8.225707e-06 -3.561631e-05 6.832209e-07
-2.849713e-05 -2.282412e-05 -7.001437e-07
-3.610505e-05 -5.260633e-06 7.083480e-07
-2.881695e-05 2.217969e-05 -7.360590e-07
3.010968e-05 -2.065581e-05 6.990223e-07
9.915270e-06 3.565140e-05 -1.820354e-22
3.010968e-05 2.065581e-05 -6.990223e-07
2.796920e-05 -2.347308e-05 6.989931e-07
3.477594e-05 -9.725440e-06 -7.277040e-07
3.477308e-05 9.731319e-06 7.274592e-07
3.339926e-05 1.208561e-05 -2.816286e-08
2.773405e-05 2.219105e-05 -4.229700e-08
2.773405e-05 -2.219105e-05 4.229700e-08
3.330352e-05 -1.494880e-05 7.022403e-07
-3.557865e-05 -7.209322e-06 -7.421169e-07
3.540533e-05 5.363277e-06 5.899269e-07
9.464685e-06 3.577366e-05 -1.820354e-22
3.540533e-05 -5.363277e-06 -5.899269e-07
-8.335264e-06 3.507830e-05 7.140118e-07
-1.395905e-05 -3.324321e-05 7.140195e-07
6.768724e-06 3.503050e-05 -4.611370e-07
6.768724e-06 -3.503050e-05 4.611370e-07
1.982820e-05 2.958613e-05 -3.686417e-07
-3.537449e-05 -5.392921e-06 -5.690324e-07
5.271693e-06 -3.525722e-05 4.214741e-07
5.271693e-06 3.525722e-05 -4.214741e-07
2.501074e-05 2.526414e-05 -2.159760e-07
9.012593e-06 3.589022e-05 -1.820354e-22
-3.536809e-05 -4.415236e-06 -4.118187e-07
-3.552090e-05 -2.869268e-06 -4.026245e-07
-2.986901e-05 2.090604e-05 -7.165855e-07
-3.489749e-05 6.664537e-06 -1.219708e-07
-3.014914e-05 1.886331e-05 -2.570525e-07
-3.463074e-05 1.148923e-05 7.081654e-07
-3.463074e-05 -1.148923e-05 7.081654e-07
3.327583e-06 -3.537030e-05 1.113791e-07
3.327583e-06 3.537030e-05 -1.113791e-07
2.048036e-05 -3.022937e-05 -6.990000e-07
8.559067e-06 3.600107e-05 -1.820354e-22
1.353006e-05 3.388518e-05 -7.082637e-07
1.353006e-05 -3.388518e-05 7.082637e-07
2.010149e-06 3.633202e-05 7.324093e-07
-2.805045e-05 2.320196e-05 -7.296362e-07
3.639075e-05 3.812229e-06 6.666350e-07
3.639075e-05 -3.812229e-06 -6.666350e-07
-4.371789e-07 3.651276e-05 6.984401e-07
3.562911e-05 7.897687e-06 -7.058725e-07
3.562911e-05 -7.897687e-06 7.058725e-07
3.174665e-05 -1.595052e-05 -1.234955e-07
8.104178e-06 3.610619e-05 -1.820354e-22
-2.641681e-05 2.522133e-05 -6.954468e-07
-3.012754e-05 -1.882313e-05 -9.622013e-08
3.158838e-05 -1.803158e-05 7.348412e-07
3.158504e-05 1.804008e-05 -7.346412e-07
-4.389483e-06 3.601189e-05 7.430190e-07
-2.364405e-06 3.621803e-05 -7.424464e-07
2.235189e-05 -2.761556e-05 1.198580e-07
-2.735997e-05 2.415783e-05 7.042196e-07
-8.905042e-06 -3.517018e-05 -7.429799e-07
-1.937567e-05 -3.067256e-05 -7.429864e-07
7.647999e-06 3.620556e-05 -1.820354e-22
-2.308130e-05 2.799064e-05 -7.429864e-07
-6.876361e-06 -3.562759e-05 7.428348e-07
-1.758939e-05 -3.173677e-05 7.428349e-07
-2.144314e-05 2.927116e-05 7.428349e-07
-2.308172e-05 -2.799064e-05 -7.429798e-07
-2.136999e-05 -2.932685e-05 7.427745e-07
-2.489044e-05 2.640467e-05 7.427745e-07
-1.964226e-05 3.050276e-05 -7.429816e-07
-1.564785e-05 -3.273196e-05 -7.429816e-07
-6.776092e-06 3.564681e-05 -7.428342e-07
3.671039e-05 4.656424e-06 -1.820354e-22
7.190603e-06 3.629917e-05 -1.820354e-22
3.092073e-05 -1.944822e-05 -6.935585e-07
3.092073e-05 1.944822e-05 6.935585e-07
2.798970e-05 2.341179e-05 7.070884e-07
2.234187e-05 2.763302e-05 -1.580653e-07
-2.642075e-05 -2.524218e-05 -6.886954e-07
9.139851e-06 -3.527095e-05 -7.224104e-07
9.139851e-06 3.527095e-05 7.224104e-07
-2.306121e-06 -3.622584e-05 -7.422513e-07
-1.124101e-05 3.448735e-05 -7.431225e-07
-1.339281e-05 -3.371009e-05 -7.431225e-07
6.732062e-06 3.638700e-05 -1.820354e-22
-1.549134e-05 3.279873e-05 -7.431225e-07
-1.763554e-05 3.170671e-05 -7.429489e-07
-1.340258e-05 3.369812e-05 -7.432038e-07
-1.126403e-05 -3.447984e-05 -7.431225e-07
-2.491940e-05 -2.635833e-05 -7.431225e-07
-9.067930e-06 3.512137e-05 -7.431225e-07
1.413968e-05 3.365551e-05 7.020865e-07
1.413968e-05 -3.365551e-05 -7.020865e-07
3.227128e-05 1.696387e-05 -7.166313e-07
-2.662468e-05 -2.350972e-05 3.087278e-08
6.272449e-06 3.646904e-05 -1.820354e-22
-2.654196e-05 2.360542e-05 5.717660e-08
2.852613e-06 3.637109e-05 7.094478e-07
-3.449491e-05 9.814157e-06 -6.280166e-07
-3.449491e-05 -9.814157e-06 -6.280166e-07
-3.261144e-05 -1.413814e-05 -1.954147e-07
-3.263813e-05 1.408584e-05 -2.086313e-07
3.231569e-05 -1.706072e-05 6.878703e-07
3.629569e-05 4.012452e-06 -6.979190e-07
3.629569e-05 -4.012452e-06 6.979190e-07
3.391244e-05 -1.344519e-05 7.101573e-07
5.811838e-06 3.654528e-05 -1.820354e-22
-3.468939e-05 -1.154528e-05 -6.804708e-07
-3.468939e-05 1.154528e-05 -6.804708e-07
-3.591013e-05 1.816163e-06 -6.776256e-07
-3.603747e-05 5.580477e-06 7.141901e-07
-3.590661e-05 6.496114e-06 7.073155e-07
-2.727578e-05 -2.276485e-05 -1.182070e-07
-2.721893e-05 2.283326e-05 -1.200195e-07
2.571204e-05 2.461592e-05 -3.306258e-07
-3.304540e-05 -1.337586e-05 -4.224904e-07
-3.304540e-05 1.337586e-05 -4.224906e-07
5.350302e-06 3.661569e-05 -1.820354e-22
-2.799896e-05 -2.350247e-05 -6.824922e-07
-3.568054e-05 -8.093493e-06 -6.680702e-07
2.679816e-05 2.361254e-05 -5.058984e-07
3.488287e-05 6.689528e-06 2.484935e-08
3.488287e-05 -6.689528e-06 -2.484935e-08
2.304479e-05 2.834444e-05 6.927921e-07
3.143892e-05 1.875988e-05 6.560026e-07
3.143892e-05 -1.875988e-05 -6.560026e-07
-3.523834e-05 4.465350e-06 -5.502771e-08
2.089291e-05 2.994009e-05 7.006497e-07
4.887914e-06 3.668028e-05 -1.820354e-22
-3.583838e-05 -6.417748e-06 -7.285006e-07
-3.572857e-05 -1.923375e-06 -5.665727e-07
3.639064e-05 -2.283242e-06 7.155513e-07
3.639064e-05 2.283242e-06 -7.155513e-07
-3.222360e-05 1.716775e-05 6.998257e-07
3.125242e-05 1.707208e-05 3.604834e-07
3.125242e-05 -1.707208e-05 -3.604834e-07
6.150440e-06 -3.551080e-05 7.093442e-07
6.150440e-06 3.551080e-05 -7.093442e-07
2.381462e-05 -2.768014e-05 -6.986688e-07
4.424748e-06 3.673903e-05 -1.820354e-22
2.742185e-05 2.291223e-05 5.238863e-07
-3.630768e-05 4.140795e-06 6.877475e-07
3.299508e-05 -1.579610e-05 6.707952e-07
-3.271266e-05 -1.639487e-05 -6.660310e-07
2.656065e-05 -2.358111e-05 7.101724e-09
-3.503443e-06 3.534492e-05 7.122988e-09
-3.548826e-05 3.998342e-06 5.015001e-07
-7.923515e-06 -3.462307e-05 -9.536816e-09
-1.827320e-05 -3.045701e-05 -9.584741e-09
-2.196047e-05 2.791553e-05 -9.584741e-09
3.960878e-06 3.679193e-05 -1.820354e-22
-2.533790e-05 2.489031e-05 -6.269980e-09
-2.200446e-05 -2.788083e-05 -6.269980e-09
-1.985227e-05 -2.945204e-05 -3.301182e-09
-2.340054e-05 2.671984e-05 -3.301182e-09
-1.986534e-05 2.944325e-05 -6.215226e-09
-1.600248e-05 -3.170895e-05 -6.215226e-09
-5.395540e-06 3.510599e-05 1.285395e-08
-5.332781e-06 -3.511548e-05 4.621506e-09
2.429619e-05 -2.603501e-05 -3.594059e-07
-1.017739e-05 -3.402966e-05 -3.605086e-08
3.496377e-06 3.683897e-05 -1.820354e-22
-1.225124e-05 3.333856e-05 -1.908055e-08
-1.397163e-05 3.265481e-05 -1.303051e-08
-1.793206e-05 3.065926e-05 -1.720483e-08
-3.519869e-05 5.209250e-06 3.016897e-07
-9.156142e-07 -3.550629e-05 -2.586895e-09
-8.843019e-07 3.550719e-05 -1.249213e-08
4.237013e-06 3.552987e-05 5.676858e-07
4.479282e-06 3.626884e-05 6.871914e-07
4.237013e-06 -3.552987e-05 -5.676858e-07
4.479282e-06 -3.626884e-05 -6.871914e-07
3.031320e-06 3.688015e-05 -1.820354e-22
3.438645e-05 -1.243382e-05 6.781618e-07
3.220497e-05 1.518904e-05 -3.527203e-07
3.347255e-05 -1.191655e-05 1.351883e-07
-2.876954e-05 2.087407e-05 1.964488e-07
-2.770944e-05 -2.232069e-05 2.998426e-07
2.624057e-05 -2.417610e-05 -4.628956e-07
1.840015e-05 -3.055437e-05 -4.462876e-07
-3.487096e-05 -6.799195e-06 1.187048e-07
3.300622e-05 1.564209e-05 -6.948105e-07
1.809400e-05 3.058424e-05 1.609786e-07
3.664872e-05 5.119210e-06 -1.820354e-22
2.565780e-06 3.691546e-05 -1.820354e-22
1.232495e-06 3.657662e-05 6.628896e-07
3.434620e-05 -1.242528e-05 -6.950008e-07
-3.423842e-05 1.295141e-05 -6.583816e-07
-3.423842e-05 -1.295141e-05 -6.583816e-07
1.926144e-05 3.002115e-05 4.488392e-07
1.633843e-05 -3.177687e-05 -5.208498e-07
1.633843e-05 3.177687e-05 5.208498e-07
-3.006042e-05 -2.079187e-05 -6.846911e-07
1.259703e-05 3.322334e-05 1.396675e-07
1.259703e-05 -3.322334e-05 -1.396675e-07
2.099832e-06 3.694490e-05 -1.820354e-22
-3.152830e-05 1.866045e-05 -6.414567e-07
2.491010e-05 -2.668619e-05 -7.018863e-07
-3.211070e-05 1.554190e-05 4.557018e-07
-2.979047e-05 2.118999e-05 6.814246e-07
3.361889e-05 1.436289e-05 -6.812193e-07
2.688892e-05 -2.476949e-05 -6.811020e-07
3.414939e-05 1.303605e-05 -6.835945e-07
[...]
POINT_DATA 6351
VECTORS 10.000GHz_fone_imag double
2.748910e-05 1.382175e-04 1.988282e-02
2.280815e-04 -1.111550e-04 1.972798e-02
-8.712028e-05 -1.722101e-04 1.965046e-02
3.880028e-03 -1.002749e-03 -2.305340e-02
-3.902376e-03 -1.057980e-03 -2.307227e-02
1.942331e-02 -4.204616e-03 6.324352e-03
-1.937809e-02 -4.244878e-03 6.305872e-03
1.916697e-02 -6.432604e-03 5.669324e-03
3.977581e-03 -9.595143e-04 -2.288387e-02
-3.194282e-03 -1.017660e-03 -2.299893e-02
1.784408e-02 9.658514e-03 5.611139e-03
6.689209e-03 1.877962e-02 6.338068e-03
7.573256e-03 1.966050e-02 -4.936881e-03
1.771963e-04 -1.847325e-04 1.974947e-02
9.045479e-03 -1.783327e-02 6.245230e-03
5.539378e-03 -1.917667e-02 6.486631e-03
5.549197e-03 -2.032216e-02 -4.796047e-03
7.676686e-04 -1.998481e-02 6.444286e-03
1.524480e-02 1.294377e-02 6.139971e-03
7.368015e-03 -5.603102e-04 -2.184398e-02
1.855000e-03 1.985807e-02 6.395185e-03
4.619364e-03 -1.957832e-02 5.980725e-03
8.060820e-03 1.826453e-02 6.445135e-03
1.341599e-02 1.489174e-02 6.238414e-03
4.138001e-04 3.780355e-04 1.963840e-02
1.447164e-02 1.566193e-02 -5.083692e-03
1.475526e-02 1.496708e-02 3.468397e-03
-1.431241e-02 -1.584582e-02 -3.810861e-03
-2.033580e-02 -7.107390e-03 -2.709470e-03
-2.031516e-02 7.111070e-03 -2.707812e-03
-8.847614e-03 -1.768405e-02 6.515170e-03
8.758077e-03 -1.769676e-02 6.686975e-03
8.709525e-03 -1.801715e-02 5.904724e-03
-8.698774e-03 -1.808841e-02 5.838919e-03
8.442383e-04 -1.953999e-02 7.209484e-03
-1.389299e-04 4.040010e-04 1.978644e-02
-1.524958e-02 1.375626e-02 4.729364e-03
-1.499804e-02 -1.366022e-02 5.830482e-03
2.519389e-03 1.914751e-02 7.352503e-03
-2.648576e-03 1.914044e-02 7.365938e-03
4.369037e-03 1.879742e-02 7.826620e-03
-4.394575e-03 1.881873e-02 7.768535e-03
-1.534776e-02 -1.215256e-02 6.723133e-03
1.988686e-02 2.737526e-03 5.980475e-03
-1.672188e-02 1.276478e-02 2.751538e-03
-1.619752e-02 1.114308e-02 6.664505e-03
-2.375892e-04 -1.477166e-04 1.978072e-02
1.627186e-02 1.114017e-02 6.635556e-03
-1.492057e-02 1.273780e-02 6.750767e-03
2.080513e-02 -5.754751e-03 -4.896736e-03
-2.064249e-02 -5.768969e-03 -4.935620e-03
8.907827e-04 5.063873e-04 -2.314595e-02
5.766576e-04 5.666520e-04 -2.334311e-02
-1.020022e-03 7.608367e-04 -2.333393e-02
-1.817580e-02 8.029377e-03 6.560130e-03
-2.089551e-02 -4.288548e-03 6.343577e-04
-1.749083e-02 -2.499971e-03 -1.433696e-02
-6.234695e-07 -2.622210e-04 1.978762e-02
1.745070e-02 -2.489018e-03 -1.432625e-02
4.784809e-03 -2.042009e-02 -6.264616e-03
8.105465e-03 1.936681e-02 -6.641452e-03
2.675970e-03 1.338716e-02 -1.824066e-02
-2.752594e-03 1.344459e-02 -1.826577e-02
6.060472e-03 9.421893e-03 -2.014560e-02
-1.682998e-02 -2.456242e-03 -1.491280e-02
-2.008420e-03 1.267895e-02 -1.886259e-02
2.018309e-03 1.262887e-02 -1.883052e-02
4.690943e-03 4.718560e-03 -2.224894e-02
7.973292e-05 -1.688394e-04 1.966592e-02
-1.247948e-02 -1.853202e-03 -1.885367e-02
-1.253970e-02 -1.126197e-03 -1.901042e-02
-1.685710e-02 1.180899e-02 5.108587e-03
-3.834049e-03 7.393279e-04 -2.280278e-02
-6.793422e-03 4.121086e-03 -2.206805e-02
1.914829e-02 -6.099115e-03 5.964709e-03
1.914756e-02 6.100031e-03 5.961881e-03
-5.794713e-04 3.590600e-03 -2.296431e-02
4.230665e-04 3.532470e-03 -2.300259e-02
1.149904e-02 -1.671813e-02 6.067644e-03
3.665757e-04 3.164396e-04 1.967304e-02
7.356092e-03 1.871114e-02 5.949465e-03
-7.233611e-03 1.878246e-02 5.775817e-03
-1.274755e-03 -2.094591e-02 2.786515e-03
-1.622816e-02 1.325032e-02 3.453010e-03
-1.874678e-02 -1.848319e-03 8.696650e-03
1.872508e-02 -1.844561e-03 8.709921e-03
3.514832e-04 -1.970436e-02 6.674745e-03
1.949508e-02 4.654610e-03 6.221894e-03
-1.948864e-02 4.630060e-03 6.183319e-03
3.301936e-03 -1.595457e-03 -2.302630e-02
-6.016805e-05 9.153263e-05 1.985359e-02
-1.420328e-02 1.338202e-02 7.067236e-03
-2.630717e-03 -1.523474e-03 -2.322197e-02
-1.842085e-02 1.067964e-02 2.206635e-03
1.844563e-02 1.059967e-02 2.527325e-03
2.597272e-03 -2.121494e-02 3.506711e-04
-1.445282e-03 2.139204e-02 7.066429e-04
-1.981222e-03 2.885607e-03 -2.317467e-02
1.483761e-02 -1.334607e-02 6.181394e-03
-5.192832e-03 -2.097452e-02 9.239113e-05
-1.118607e-02 -1.805546e-02 -4.222497e-04
1.588960e-04 2.924814e-04 1.987210e-02
-1.338161e-02 1.649788e-02 -3.837962e-04
4.154187e-03 2.097409e-02 6.819132e-04
1.059326e-02 1.852084e-02 5.882673e-04
1.277088e-02 -1.705068e-02 3.987351e-04
-1.366540e-02 -1.661668e-02 1.373419e-04
1.256966e-02 1.723417e-02 -6.226026e-05
1.465100e-02 -1.552312e-02 3.405253e-05
-1.181144e-02 1.799095e-02 3.767426e-04
-9.327904e-03 -1.931862e-02 3.145965e-04
-3.862945e-03 2.114164e-02 4.266762e-04
1.141164e-05 9.201429e-05 1.975318e-02
4.444566e-05 4.233170e-04 2.012279e-02
1.677110e-02 -1.019869e-02 7.033767e-03
-1.666736e-02 -1.036279e-02 7.253112e-03
-1.510561e-02 -1.296743e-02 6.222996e-03
3.012295e-03 3.683893e-03 -2.291419e-02
-1.411349e-02 -1.335780e-02 7.406314e-03
5.142366e-03 -1.992358e-02 4.792644e-03
-5.144210e-03 -1.991196e-02 4.813605e-03
-1.306307e-03 -2.124642e-02 6.114524e-04
-6.731286e-03 2.026848e-02 -5.910271e-04
-8.022691e-03 -1.978562e-02 -5.104106e-04
-3.898422e-04 -1.048156e-04 1.980010e-02
-9.154778e-03 1.926777e-02 -2.916946e-04
-1.072336e-02 1.864888e-02 -3.070195e-04
-7.985857e-03 1.986583e-02 -5.952678e-04
-6.709714e-03 -2.043585e-02 -3.737766e-04
-1.470023e-02 -1.545416e-02 -4.994541e-04
-5.590632e-03 2.064581e-02 -5.544481e-04
-7.624790e-03 -1.834516e-02 6.715620e-03
7.641348e-03 -1.843127e-02 6.657422e-03
1.824938e-02 9.549203e-03 5.003320e-03
8.268532e-04 6.198824e-04 -2.326119e-02
1.643129e-04 -6.381802e-04 1.985060e-02
1.356661e-03 -9.530541e-04 -2.326373e-02
-1.633141e-03 -1.991782e-02 5.730873e-03
-1.797231e-02 5.191922e-03 -1.236229e-02
-1.797642e-02 -5.046633e-03 -1.251792e-02
-5.407208e-03 -2.795105e-03 -2.227849e-02
-5.804453e-03 2.782648e-03 -2.215555e-02
-1.745483e-02 8.929535e-03 7.214520e-03
1.962392e-02 2.186822e-03 6.861481e-03
-1.963459e-02 2.157316e-03 6.876811e-03
-1.862469e-02 7.478725e-03 5.825347e-03
2.565757e-04 3.366821e-04 1.997015e-02
-1.814957e-02 -6.090127e-03 7.983444e-03
-1.814933e-02 6.085455e-03 7.980212e-03
-2.014315e-02 1.045128e-03 -9.437101e-03
2.021706e-02 -3.188653e-03 5.207294e-03
1.984386e-02 -3.621563e-03 6.108523e-03
-2.761941e-03 -2.417736e-03 -2.305486e-02
-3.141783e-03 2.630149e-03 -2.312587e-02
7.146017e-03 7.059893e-03 -2.090865e-02
-1.160323e-02 -4.533762e-03 -1.921414e-02
-1.155268e-02 4.581392e-03 -1.927895e-02
1.941739e-04 4.193896e-04 1.989439e-02
-1.471444e-02 -1.214407e-02 7.727477e-03
-1.826028e-02 -4.155085e-03 8.701465e-03
1.176600e-02 9.908020e-03 -1.672374e-02
-7.884683e-04 -1.345080e-04 -2.336269e-02
8.597886e-04 -9.428386e-05 -2.347825e-02
-1.233343e-02 -1.520876e-02 6.962717e-03
-1.578727e-02 -9.704427e-03 9.354318e-03
1.575296e-02 -9.781081e-03 9.323591e-03
-1.547634e-03 2.580240e-04 -2.337926e-02
-1.123291e-02 -1.625885e-02 6.329596e-03
-2.463095e-04 4.401637e-04 1.981039e-02
-2.037636e-02 -3.929597e-03 3.344108e-03
-1.675150e-02 -9.153462e-04 -1.494146e-02
-2.045149e-02 1.306260e-03 5.267810e-03
2.041531e-02 1.394058e-03 5.296688e-03
1.748623e-02 -9.183277e-03 6.546481e-03
-9.875676e-03 -5.458327e-03 -2.028848e-02
9.784354e-03 -5.342426e-03 -2.025581e-02
-3.521034e-03 2.049025e-02 -7.408586e-03
3.534230e-03 2.052269e-02 -7.348445e-03
1.284732e-02 -1.497632e-02 6.603132e-03
-3.323763e-05 2.278451e-04 1.986077e-02
-1.216183e-02 -1.000703e-02 -1.635663e-02
1.932148e-02 -2.111281e-03 7.495271e-03
-1.684030e-02 8.151887e-03 8.477022e-03
-1.703151e-02 -8.698747e-03 8.549133e-03
-4.720783e-04 5.101137e-04 -2.339338e-02
4.658782e-04 -7.739597e-04 -2.342998e-02
1.507800e-02 -1.833056e-03 -1.696793e-02
-1.939086e-04 -7.952941e-04 -2.347804e-02
-2.761010e-04 -5.406911e-04 -2.348479e-02
-3.409520e-04 4.983336e-04 -2.350049e-02
-1.849975e-04 -5.455992e-05 1.976151e-02
-2.854740e-04 4.607314e-04 -2.346392e-02
-3.458888e-04 -6.009950e-04 -2.350048e-02
-2.728262e-04 -4.181658e-04 -2.343485e-02
-3.263751e-04 3.736417e-04 -2.345488e-02
-7.679259e-05 2.187569e-05 -2.351879e-02
2.325752e-05 -4.422718e-05 -2.341682e-02
1.013139e-04 -7.378156e-04 -2.339273e-02
-6.916172e-05 2.315558e-04 -2.342005e-02
7.857569e-03 -8.104017e-03 -2.038671e-02
-3.689513e-04 -1.115820e-03 -2.332849e-02
-6.955410e-05 8.706166e-05 1.972039e-02
-2.663375e-04 5.760072e-04 -2.354428e-02
-1.955099e-04 3.419559e-04 -2.355270e-02
-2.878789e-04 2.082457e-04 -2.327447e-02
9.173521e-03 -1.440510e-03 -2.115180e-02
1.390820e-04 -1.393242e-04 -2.337322e-02
-1.063768e-04 1.732992e-04 -2.333120e-02
-2.021172e-03 -1.696326e-02 -1.499210e-02
-2.327104e-03 -1.926929e-02 7.731408e-03
2.068039e-03 -1.681285e-02 -1.519415e-02
2.410567e-03 -1.927945e-02 7.712245e-03
-4.268655e-04 -3.938267e-04 1.970606e-02
-1.789781e-02 6.378227e-03 8.289817e-03
9.966075e-03 4.609618e-03 -2.020377e-02
-4.056880e-03 1.490289e-03 -2.314876e-02
4.506007e-03 -3.284633e-03 -2.297022e-02
6.942802e-03 5.679828e-03 -2.127464e-02
1.045072e-02 -9.848144e-03 -1.790122e-02
6.882227e-03 -1.125918e-02 -1.880684e-02
3.875025e-03 6.623332e-04 -2.294837e-02
1.796639e-02 8.475115e-03 6.636945e-03
-2.890176e-03 -4.633406e-03 -2.275812e-02
-7.019514e-06 -8.064523e-05 1.985435e-02
-6.067161e-05 -6.573467e-04 1.990704e-02
-5.520562e-04 -1.886467e-02 8.668285e-03
1.856334e-02 -6.603349e-03 6.829120e-03
-1.731719e-02 6.567165e-03 9.245406e-03
-1.732432e-02 -6.321762e-03 9.327507e-03
-7.406196e-03 -1.136947e-02 -1.877986e-02
6.891093e-03 -1.412526e-02 -1.662753e-02
-7.105659e-03 -1.418997e-02 -1.639781e-02
-1.595636e-02 -1.107021e-02 7.657419e-03
-1.380781e-03 -3.543848e-03 -2.301612e-02
1.168345e-03 -3.881537e-03 -2.298886e-02
-7.608465e-05 -4.064072e-04 1.976021e-02
-1.590895e-02 9.208358e-03 9.610698e-03
1.355341e-02 -1.453660e-02 6.328657e-03
1.220826e-02 -5.967083e-03 -1.834863e-02
1.576139e-02 -1.098922e-02 7.869065e-03
1.764313e-02 7.487456e-03 7.765337e-03
1.425654e-02 -1.315235e-02 7.725543e-03
1.795914e-02 6.899582e-03 7.656682e-03
1.574650e-02 -1.001802e-02 8.600330e-03
1.366158e-02 -1.346620e-02 7.781454e-03
6.920499e-03 1.054928e-04 -2.219304e-02
1.100375e-04 -3.127925e-04 1.992358e-02
-6.915264e-03 1.108669e-04 -2.211227e-02
-6.743726e-03 7.868855e-03 -2.076392e-02
-9.616036e-03 1.475124e-02 1.051321e-02
1.187381e-02 -1.452636e-02 8.175860e-03
1.524660e-02 -1.144099e-02 8.394981e-03
-2.242312e-03 8.926441e-04 -2.329001e-02
1.495052e-02 -1.255706e-02 7.378480e-03
9.454537e-05 3.844835e-03 -2.290668e-02
-2.726326e-04 3.557463e-03 -2.302478e-02
-1.318215e-02 1.208037e-02 1.015269e-02
5.741654e-07 -1.510329e-04 1.988350e-02
-1.593451e-02 -1.026732e-02 8.165276e-03
1.792794e-02 6.077126e-04 1.003816e-02
1.755427e-02 -6.824276e-03 8.653695e-03
-4.740360e-03 -2.103543e-02 1.160793e-03
4.766444e-03 -2.105431e-02 1.097715e-03
-9.648635e-03 -9.921676e-03 -1.814738e-02
-1.608581e-02 -7.388569e-03 1.067413e-02
1.864733e-02 -4.071130e-03 8.183168e-03
1.095118e-02 5.374065e-03 -1.954227e-02
-8.087414e-03 1.591286e-02 1.013413e-02
-4.799000e-05 -2.085982e-04 1.988795e-02
7.919716e-03 1.577127e-02 1.029941e-02
2.943804e-04 7.281395e-03 -2.212925e-02
-2.104663e-04 7.696689e-03 -2.210369e-02
7.261918e-03 1.358674e-03 -2.183463e-02
1.064407e-02 1.388631e-02 1.068043e-02
1.216232e-02 -7.102791e-03 -1.797740e-02
1.781413e-02 3.713760e-03 9.876428e-03
1.810737e-03 2.078894e-02 -7.535126e-03
5.058315e-03 -2.986130e-03 -2.248002e-02
-5.085848e-03 -3.214202e-03 -2.237351e-02
2.445945e-05 -3.052795e-05 1.989611e-02
1.451899e-03 -9.187096e-03 -2.114878e-02
-1.381941e-03 -9.073255e-03 -2.108331e-02
8.082622e-04 4.430292e-03 -2.260632e-02
-8.067391e-04 4.431553e-03 -2.259690e-02
-1.527237e-02 9.692882e-03 9.930522e-03
1.999927e-03 -5.969044e-03 -2.258593e-02
-2.001027e-03 -5.971616e-03 -2.259523e-02
-1.767404e-02 1.948752e-04 1.036763e-02
6.464589e-03 1.989509e-02 3.320234e-03
-6.441262e-03 1.991175e-02 3.288060e-03
6.999005e-05 -5.863736e-05 1.976492e-02
1.716206e-02 1.308544e-02 5.936621e-04
-1.707371e-02 1.291787e-02 7.006847e-04
9.355582e-03 -1.872355e-02 -7.350744e-03
-1.796547e-02 2.696029e-03 9.698198e-03
1.791692e-02 2.684714e-03 9.751217e-03
-1.712506e-02 -6.761586e-03 9.572423e-03
1.432725e-02 -1.141802e-02 9.250366e-03
-1.410230e-02 -1.098286e-02 9.792215e-03
-7.694692e-04 -2.132811e-03 -2.312310e-02
7.805866e-04 -2.122875e-03 -2.308904e-02
9.099472e-05 -1.162861e-04 1.982833e-02
-1.148190e-02 1.416204e-02 9.703303e-03
1.418093e-02 5.983686e-03 -1.677472e-02
-1.775535e-02 7.577929e-04 1.052274e-02
1.760121e-02 9.411434e-04 1.055066e-02
-8.904577e-03 -3.274386e-03 -2.108898e-02
-8.939720e-03 3.283944e-03 -2.107706e-02
-1.116509e-02 -1.509122e-02 8.438122e-03
-2.094439e-02 -6.066550e-04 3.187086e-03
1.497534e-02 8.688457e-03 1.064918e-02
-4.896000e-03 -3.106787e-03 -2.256408e-02
8.044151e-05 1.406857e-05 1.977252e-02
-1.251241e-02 -8.763536e-03 -1.705176e-02
-1.633516e-02 -8.641661e-03 9.430719e-03
1.676169e-02 -8.562687e-03 8.984938e-03
2.443402e-03 -1.871199e-02 8.532948e-03
1.841005e-02 3.498088e-03 8.891525e-03
-1.052276e-02 -9.943332e-03 -1.717958e-02
-1.772736e-02 5.800115e-03 8.847079e-03
1.077541e-02 -1.429645e-02 9.861584e-03
1.742588e-02 -7.854476e-03 8.290718e-03
1.673410e-02 -7.420864e-03 9.394093e-03
-5.695447e-05 -7.102781e-06 1.979313e-02
3.171984e-04 -1.618542e-02 -1.595533e-02
1.605088e-02 -8.235832e-03 9.954553e-03
-1.380497e-02 -7.304255e-03 -1.652294e-02
-1.034282e-02 -1.555507e-02 8.956359e-03
-1.220392e-02 1.411859e-02 8.961952e-03
1.264208e-02 -1.394051e-02 9.019358e-03
1.078814e-02 1.544857e-02 8.985721e-03
1.077712e-02 -1.518362e-02 9.110028e-03
9.152118e-03 1.682076e-02 8.130229e-03
-8.237609e-04 1.876095e-02 8.871459e-03
2.362464e-04 8.093903e-05 1.979897e-02
7.550970e-05 2.108905e-04 1.980254e-02
3.483682e-03 1.888075e-02 8.188954e-03
-1.087826e-02 -8.225050e-03 -1.836059e-02
1.095428e-02 -8.240116e-03 -1.848651e-02
9.683904e-03 -1.101041e-02 -1.765799e-02
1.582849e-02 1.022518e-02 8.663361e-03
6.419737e-03 7.452663e-03 -2.091272e-02
-1.398214e-02 1.037672e-02 1.049434e-02
1.841702e-02 -4.781710e-03 -1.124574e-02
1.781675e-02 -4.525154e-03 9.267870e-03
1.853830e-02 4.846291e-03 -1.106880e-02
-1.943348e-04 -1.504199e-04 1.970758e-02
1.772384e-02 4.557645e-03 9.354005e-03
1.436356e-02 1.249997e-02 8.514843e-03
1.324397e-02 -5.163883e-03 -1.777004e-02
1.309530e-02 5.036801e-03 -1.787038e-02
-9.050349e-03 1.240022e-02 -1.681056e-02
-1.373319e-02 -1.203428e-02 9.072416e-03
3.224649e-03 -1.466685e-04 -2.303157e-02
-8.303539e-03 -1.181084e-02 -1.763331e-02
-7.268724e-03 -1.496559e-02 -1.491001e-02
7.279216e-03 -1.501289e-02 -1.489173e-02
1.042357e-05 -2.273390e-04 1.988702e-02
-4.948311e-03 1.824415e-02 8.759565e-03
4.949705e-03 1.828451e-02 8.758742e-03
1.044786e-02 -1.461136e-02 1.008590e-02
1.169762e-02 1.224067e-02 -1.522542e-02
1.337485e-02 1.108410e-02 1.050363e-02
1.109045e-02 -9.323263e-03 -1.778179e-02
1.812156e-02 -1.215707e-03 9.885266e-03
1.285945e-02 -7.031539e-03 -1.754748e-02
1.559384e-02 -8.012609e-03 1.022232e-02
-4.333170e-04 1.659086e-02 1.177912e-02
1.780731e-04 3.795289e-05 1.981937e-02
-5.016434e-03 -1.776956e-02 9.422005e-03
-1.234247e-02 -1.415410e-02 8.878414e-03
-3.814404e-03 1.843552e-02 8.947730e-03
-9.835905e-03 1.585300e-02 9.002856e-03
-7.795860e-03 -1.698026e-02 9.046554e-03
1.250483e-02 -5.434079e-03 -1.834479e-02
-1.315989e-03 -1.844988e-02 9.237135e-03
1.022422e-02 1.503421e-02 1.010506e-02
2.405229e-03 -1.682048e-02 -1.530246e-02
3.360595e-04 1.828837e-02 9.345045e-03
-2.676229e-05 8.411554e-05 1.982533e-02
-9.567608e-03 -1.449235e-02 1.024721e-02
5.619343e-03 -8.308310e-03 -2.075139e-02
1.469383e-03 -1.942509e-02 7.304043e-03
7.880968e-03 3.957363e-03 -2.130243e-02
7.963554e-04 1.827142e-02 9.774907e-03
-8.151709e-04 1.809414e-02 9.715602e-03
-8.045044e-03 1.628370e-02 9.891902e-03
8.105026e-03 1.640557e-02 9.960386e-03
-9.432011e-03 -1.391567e-02 -1.522985e-02
-1.111806e-02 1.262605e-02 -1.523152e-02
-1.951191e-04 8.173055e-06 1.964351e-02
9.689679e-03 1.381252e-02 -1.550052e-02
1.139318e-02 -1.249650e-02 -1.550517e-02
3.314867e-04 1.568106e-02 -1.655538e-02
2.176244e-04 -1.582608e-02 -1.604382e-02
9.776684e-03 -1.399003e-02 -1.542490e-02
7.957202e-03 1.487834e-02 -1.531518e-02
3.013963e-03 1.662842e-02 -1.537903e-02
1.899824e-03 1.569401e-02 -1.666927e-02
-1.596564e-02 8.175089e-03 1.034422e-02
-2.208465e-03 -1.614249e-02 -1.589065e-02
1.045498e-04 -2.230196e-04 1.976725e-02
-1.167451e-02 1.135123e-02 -1.593661e-02
1.667146e-02 -3.123126e-03 1.111356e-02
-6.062118e-04 -9.793467e-03 -2.083777e-02
2.594846e-04 -9.663931e-03 -2.089947e-02
1.030403e-02 1.188689e-02 -1.640786e-02
6.654117e-03 1.455586e-02 -1.620100e-02
2.856338e-03 -1.524615e-02 -1.624035e-02
-2.637984e-03 -1.806361e-02 9.494855e-03
6.521690e-03 -1.742095e-02 8.981091e-03
7.178675e-03 -1.719230e-02 8.960150e-03
-1.124037e-04 -1.259472e-04 1.978401e-02
-1.214170e-02 6.041079e-03 -1.865679e-02
1.469257e-02 -1.154278e-02 -1.209190e-02
-1.244369e-02 1.300636e-02 1.029676e-02
1.828769e-02 -6.564880e-03 -1.123377e-02
1.385970e-03 -1.833348e-02 9.036699e-03
1.747987e-03 -1.716525e-02 1.096377e-02
1.023653e-03 -1.812696e-02 9.330347e-03
2.158963e-03 8.605461e-03 -2.142519e-02
3.019144e-03 -7.905434e-03 -2.149734e-02
4.907482e-03 -7.569213e-03 -2.137997e-02
1.446556e-04 -1.125930e-04 1.980185e-02
3.894876e-03 -8.273489e-03 -2.152176e-02
5.048759e-03 1.754715e-02 9.728876e-03
9.626399e-03 -1.546095e-02 9.602989e-03
4.403671e-03 1.874427e-02 7.857687e-03
3.635561e-03 1.652539e-02 1.125371e-02
1.033525e-02 -1.539170e-02 8.833102e-03
9.358733e-03 5.676728e-03 -2.023550e-02
-9.277026e-03 5.645316e-03 -2.038079e-02
-8.976148e-04 1.736703e-02 -1.473191e-02
1.201799e-02 -1.199739e-02 -1.469757e-02
1.482866e-04 1.683218e-04 1.970226e-02
5.219896e-03 1.748534e-02 9.983777e-03
9.166320e-03 -1.573316e-02 9.680979e-03
7.639150e-03 -1.675568e-02 9.575165e-03
5.892590e-03 -1.672066e-02 1.028190e-02
5.510111e-03 -2.974567e-03 -2.248344e-02
6.423783e-03 -6.762664e-03 -2.093174e-02
5.602792e-03 7.553155e-03 -2.129043e-02
5.813543e-03 -7.504265e-03 -2.157242e-02
4.828556e-03 8.197445e-03 -2.157911e-02
1.921666e-03 9.286635e-03 -2.120783e-02
-1.168933e-04 1.184003e-04 1.972921e-02
-1.759639e-04 -2.371839e-04 1.965629e-02
-1.581083e-03 8.615190e-03 -2.146941e-02
5.904023e-03 -1.771143e-02 8.860649e-03
-5.904252e-03 -1.764362e-02 8.958448e-03
-6.430403e-04 1.027162e-02 -2.078958e-02
-3.686853e-03 -1.796169e-02 8.897147e-03
-3.892001e-03 -1.648353e-02 1.125876e-02
-3.135365e-03 -1.797546e-02 9.397287e-03
-9.263238e-03 -1.608668e-02 8.997715e-03
-8.606057e-03 -1.454156e-02 1.160716e-02
-1.128592e-02 1.479404e-02 8.977975e-03
4.471388e-04 1.681910e-04 1.964326e-02
-1.035309e-02 1.332007e-02 1.161783e-02
-8.451685e-03 -1.612159e-02 9.389118e-03
-7.601842e-03 -1.508560e-02 1.132551e-02
-1.028887e-02 1.480242e-02 9.413460e-03
-9.336977e-03 1.392964e-02 1.146015e-02
-1.150240e-02 -1.350734e-02 1.052120e-02
-1.282234e-02 1.306556e-02 8.940804e-03
-1.109533e-02 -1.455711e-02 8.931172e-03
-1.060223e-02 -1.327710e-02 1.114365e-02
-1.224697e-02 1.349224e-02 9.420408e-03
-7.048047e-05 2.448547e-04 1.987877e-02
-1.046263e-02 -1.496157e-02 9.407294e-03
9.491777e-03 1.593534e-02 8.706533e-03
8.164216e-03 1.459398e-02 1.095087e-02
1.141922e-02 -1.460426e-02 8.707328e-03
9.956039e-03 -1.340885e-02 1.096423e-02
1.238417e-02 -1.372791e-02 9.103903e-03
1.056232e-02 1.517899e-02 9.098798e-03
-6.050077e-03 1.721814e-02 9.559434e-03
-6.938415e-03 -1.680786e-02 9.581962e-03
-8.061127e-03 1.626785e-02 9.748648e-03
-1.886162e-04 5.229943e-04 1.979586e-02
-8.275825e-03 1.619377e-02 1.003068e-02
-6.272358e-03 1.694366e-02 9.691453e-03
-5.292923e-03 -1.737720e-02 9.655381e-03
-1.219878e-02 -1.348759e-02 9.571769e-03
-4.226413e-03 1.769494e-02 9.592480e-03
-6.197222e-03 -1.604587e-02 1.121203e-02
6.155353e-03 -1.597481e-02 1.142664e-02
-8.381220e-03 1.451424e-02 1.161058e-02
7.724885e-03 -1.451494e-02 -1.534685e-02
4.393778e-03 -1.490178e-02 -1.687333e-02
-1.761444e-04 1.022974e-04 1.965736e-02
-2.042897e-03 1.817610e-02 9.160923e-03
-1.581666e-03 1.694557e-02 1.103615e-02