# vtk DataFile Version 2.0
Electric current density generated by TTH
ASCII
DATASET UNSTRUCTURED_GRID
POINTS 2071 double
2.567035e-05 -6.287423e-21 -3.660402e-22
2.429544e-05 8.288454e-06 -3.660402e-22
-2.282973e-05 -1.173757e-05 -3.660402e-22
2.361885e-05 9.672027e-07 -1.394570e-06
-9.620287e-06 2.347687e-05 8.966207e-07
-2.456000e-05 -3.682870e-06 -1.341468e-06
-1.290994e-05 2.189214e-05 -8.351834e-07
1.799156e-06 -2.476831e-05 -1.341972e-06
-7.095376e-06 -2.380640e-05 -1.338167e-06
-2.276043e-05 2.540227e-06 7.810395e-07
2.530855e-05 2.224158e-06 -8.485361e-07
-2.354073e-05 6.786060e-06 1.459053e-06
-2.257814e-05 -2.162783e-06 -1.619700e-08
-2.238582e-05 -1.256353e-05 -3.660402e-22
2.964034e-06 -2.254564e-05 4.131384e-07
-1.913947e-05 1.237295e-05 -5.606395e-07
-1.283573e-05 -1.877078e-05 4.136540e-07
-5.282814e-06 -2.211702e-05 4.115509e-07
9.354781e-07 2.530912e-05 9.538036e-07
-2.199532e-05 6.590639e-06 -8.710567e-07
-1.761101e-05 1.477487e-05 -9.067447e-07
-2.000102e-05 1.071906e-05 1.798305e-07
2.316592e-05 -4.185987e-06 -1.352949e-06
-2.192208e-05 -1.283531e-05 8.527188e-07
-2.191203e-05 -1.337272e-05 -3.660402e-22
1.919515e-05 1.664676e-05 8.457076e-07
1.919515e-05 -1.664676e-05 8.457076e-07
-3.276246e-06 2.520718e-05 -8.292195e-07
-1.081184e-05 -2.288646e-05 9.711758e-07
-1.922679e-06 -2.523865e-05 9.711754e-07
-1.940752e-05 -1.432359e-05 -1.493460e-06
-2.196266e-05 -9.846971e-06 -1.490652e-06
2.421152e-05 8.954463e-07 1.493561e-06
-1.817886e-05 -1.767471e-05 -9.184706e-07
-2.401093e-05 -1.254901e-06 -1.488615e-06
-2.140902e-05 -1.416407e-05 -3.660402e-22
2.506359e-05 -4.007885e-06 8.824355e-07
1.530962e-05 -1.677161e-05 -2.827327e-07
1.530962e-05 1.677161e-05 -2.827327e-07
-2.389716e-05 8.642972e-06 8.397577e-07
-1.751402e-06 -2.529522e-05 -9.172193e-07
-2.038584e-05 -1.298859e-05 1.494467e-06
2.360120e-05 5.916586e-06 -1.486346e-06
-2.345871e-05 -9.621783e-06 -9.178685e-07
-2.155846e-05 1.077235e-05 1.492546e-06
-1.283645e-05 -2.199891e-05 -7.472707e-07
-2.087743e-05 -1.493652e-05 -3.660402e-22
-2.494989e-05 -4.530041e-06 9.145992e-07
2.106744e-05 -1.144245e-05 -1.480814e-06
-5.918315e-06 2.471723e-05 -8.341500e-07
2.449877e-05 -2.228784e-06 -1.433044e-06
2.299854e-05 -2.525212e-06 -1.074090e-06
2.485137e-05 5.232705e-06 8.625738e-07
1.037719e-05 2.323138e-05 7.912163e-07
-2.426368e-05 -7.230048e-06 -9.638871e-07
-1.635988e-05 1.761361e-05 1.488213e-06
1.835749e-05 1.389289e-05 9.496766e-07
-2.031799e-05 -1.568904e-05 -3.660402e-22
1.835749e-05 -1.389289e-05 9.496766e-07
-9.996020e-06 -2.207264e-05 -1.493470e-06
-5.895896e-06 -2.336768e-05 1.492545e-06
2.314812e-05 -6.849659e-06 1.494048e-06
-1.806979e-05 -1.658432e-05 1.452723e-06
-2.329167e-05 -7.679931e-06 1.453084e-06
2.200733e-05 -1.264195e-05 -8.852547e-07
-4.064190e-06 2.271219e-05 -1.008469e-06
2.358348e-05 9.472723e-06 8.357437e-07
2.768253e-06 -2.395575e-05 1.493238e-06
-1.973144e-05 -1.642063e-05 -3.660402e-22
2.400248e-05 2.780709e-06 1.494417e-06
-2.209432e-05 5.190981e-06 2.078509e-07
1.594279e-05 -1.633651e-05 6.425831e-07
1.594279e-05 1.633651e-05 6.425831e-07
-2.187509e-05 1.292884e-05 -8.426631e-07
-1.385616e-05 -1.972535e-05 1.492822e-06
-1.499092e-05 -1.716839e-05 5.645266e-07
2.449438e-05 -6.709713e-06 8.619344e-07
2.322853e-05 -8.877697e-07 -1.169541e-06
1.192387e-05 1.936513e-05 4.203747e-07
-1.911856e-05 -1.713031e-05 -3.660402e-22
-2.431917e-05 1.900854e-06 1.478566e-06
-1.163237e-05 2.110379e-05 1.492408e-06
-2.079226e-05 -9.785083e-06 -8.958594e-07
6.808257e-06 2.448329e-05 8.395061e-07
-1.876923e-05 -1.324585e-05 -8.862064e-07
2.466756e-05 6.056213e-06 -8.571340e-07
4.085879e-06 2.508100e-05 8.404505e-07
5.142072e-06 2.488639e-05 8.398082e-07
7.834132e-06 2.417408e-05 8.401975e-07
-1.771551e-05 1.635755e-05 1.493124e-06
-1.848018e-05 -1.781713e-05 -3.660402e-22
-2.531570e-05 -1.798566e-06 8.858479e-07
-2.255365e-05 1.159388e-05 9.128978e-07
-1.678739e-05 1.899714e-05 9.224686e-07
-2.192591e-05 -9.693464e-06 1.480649e-06
-1.714505e-05 -1.718840e-05 -1.491018e-06
2.199818e-05 6.156735e-06 6.769017e-07
-1.923510e-05 -1.430746e-05 1.480603e-06
-2.105063e-05 -1.138321e-05 -1.474321e-06
-1.432340e-05 1.844511e-05 -1.247794e-06
1.989514e-05 1.124181e-05 6.925924e-07
-1.781713e-05 -1.848018e-05 -3.660402e-22
-7.828215e-06 2.289979e-05 1.494264e-06
-9.820267e-06 2.060001e-05 -6.306670e-07
1.751292e-05 1.663096e-05 1.494272e-06
1.751292e-05 -1.663096e-05 1.494272e-06
2.231437e-05 1.033809e-05 1.435131e-06
-1.308275e-06 -2.423147e-05 -1.491706e-06
-4.615328e-07 2.544401e-05 -7.839952e-07
6.416086e-06 2.187532e-05 5.759245e-07
-2.540708e-05 -5.130762e-07 -8.395340e-07
-2.095028e-05 -9.841346e-06 1.083553e-06
2.397652e-05 9.170243e-06 -3.660402e-22
-1.713031e-05 -1.911856e-05 -3.660402e-22
2.224594e-05 -5.141947e-06 -6.547340e-07
-2.085128e-05 9.856680e-06 9.981531e-07
6.294645e-07 2.430531e-05 1.488126e-06
2.299185e-05 -6.503059e-06 -1.467615e-06
-2.319735e-05 -1.599621e-06 -1.175031e-06
1.862198e-05 -1.529632e-05 -1.492487e-06
1.859827e-05 1.532677e-05 -1.492540e-06
-2.471100e-05 5.917242e-06 8.434453e-07
2.455289e-05 -2.135343e-06 1.418747e-06
7.307971e-06 -2.428704e-05 9.082434e-07
-1.642063e-05 -1.973144e-05 -3.660402e-22
-5.102422e-06 2.357945e-05 1.493613e-06
-2.451302e-05 -7.162519e-08 1.455923e-06
-2.230322e-05 -4.641074e-06 5.363847e-07
2.425670e-05 -7.497113e-06 -8.730006e-07
1.956098e-05 1.275148e-05 1.245677e-06
2.333497e-05 -1.000350e-05 -8.730900e-07
2.266742e-05 -3.344043e-06 -7.987352e-07
2.041995e-05 1.520094e-05 -7.700433e-07
-1.640693e-05 -1.818529e-05 -1.460505e-06
2.304229e-05 -2.411085e-06 1.103549e-06
-1.568904e-05 -2.031799e-05 -3.660402e-22
5.106337e-06 -2.493754e-05 -7.728919e-07
2.505360e-06 2.433860e-05 1.465801e-06
-2.189027e-05 6.605446e-06 7.179761e-07
2.294581e-05 3.932989e-06 1.196505e-06
-7.867914e-06 -2.138906e-05 5.599067e-07
2.920591e-07 -2.278839e-05 5.599079e-07
1.983881e-05 -1.132469e-05 6.769809e-07
-1.670486e-05 -1.917982e-05 8.056818e-07
-6.901192e-08 -2.449007e-05 -1.461052e-06
-8.750257e-06 -2.388266e-05 8.047450e-07
-1.493652e-05 -2.087743e-05 -3.660402e-22
2.028156e-05 1.529749e-05 8.517998e-07
2.028156e-05 -1.529749e-05 8.517998e-07
-1.915752e-05 1.674837e-05 -7.869354e-07
-2.372281e-05 4.020748e-06 -1.490061e-06
-2.340974e-05 5.538654e-06 -1.489659e-06
-2.360950e-05 -9.429414e-06 8.236900e-07
-1.977788e-05 -1.597370e-05 8.236457e-07
3.575972e-07 -2.543295e-05 8.042946e-07
3.450810e-06 2.519044e-05 -8.193785e-07
2.219358e-05 4.685734e-06 -6.533740e-08
-1.416407e-05 -2.140902e-05 -3.660402e-22
-1.515966e-05 1.702994e-05 -5.831448e-07
-1.670199e-05 1.536652e-05 2.048783e-07
2.021572e-05 1.239728e-05 -1.421404e-06
2.360542e-05 -9.367112e-06 8.629399e-07
1.956378e-05 -1.277508e-05 1.255643e-06
-1.415702e-05 2.108104e-05 -8.664755e-07
6.056989e-06 -2.186547e-05 -1.494166e-07
2.226454e-05 8.784628e-06 1.474915e-06
1.038749e-05 2.206546e-05 1.479313e-06
-1.551490e-08 2.275131e-05 -4.517373e-07
-1.337272e-05 -2.191203e-05 -3.660402e-22
-2.387070e-05 -5.421631e-06 -1.463480e-06
-2.339038e-05 -6.626409e-06 -1.488362e-06
-2.046821e-05 1.516555e-05 -7.399219e-07
-2.289010e-05 1.600575e-06 8.490089e-07
-2.027461e-05 1.382235e-05 -1.449918e-06
2.344511e-05 9.759805e-06 -8.638223e-07
-2.057714e-05 1.132937e-05 -1.327710e-06
1.480216e-05 1.831990e-05 -1.358274e-06
1.480216e-05 -1.831990e-05 -1.358274e-06
-4.094562e-06 2.514816e-05 -7.311063e-07
-1.256353e-05 -2.238582e-05 -3.660402e-22
8.933956e-06 2.225136e-05 1.481298e-06
-2.446443e-05 4.767636e-06 -1.293361e-06
1.197740e-05 1.995540e-05 1.191615e-06
1.565445e-05 1.997378e-05 -8.886720e-07
1.565445e-05 -1.997378e-05 -8.886720e-07
-8.785337e-06 -2.282073e-05 -1.468482e-06
-3.655656e-06 -2.293480e-05 -1.152376e-06
1.370392e-05 -1.808225e-05 -1.447649e-07
1.370392e-05 1.808225e-05 -1.447649e-07
-2.277647e-05 -4.757125e-07 -5.375578e-07
-1.173757e-05 -2.282973e-05 -3.660402e-22
1.118344e-05 2.286814e-05 -7.707648e-07
-2.451856e-05 6.771253e-06 -8.028557e-07
-2.521383e-05 3.357428e-06 -8.028557e-07
-1.550303e-05 -1.887658e-05 1.473255e-06
2.422141e-05 -3.742321e-06 -1.456917e-06
2.269881e-05 3.279805e-06 -8.321864e-07
-8.899757e-06 2.381616e-05 8.209123e-07
-1.998478e-05 -1.072638e-05 5.107962e-09
-3.448211e-06 -2.518487e-05 8.282678e-07
-1.221750e-05 -2.229127e-05 8.282664e-07
-1.089595e-05 -2.324317e-05 -3.660402e-22
-7.738697e-06 -2.317031e-05 1.472970e-06
-1.805148e-05 1.793088e-05 7.915554e-07
1.045358e-06 -2.439522e-05 1.474793e-06
2.006382e-05 -1.353829e-05 1.494205e-06
2.009360e-05 1.349256e-05 1.494220e-06
2.424213e-05 7.778954e-06 7.651343e-07
-8.599925e-06 2.215594e-05 1.437296e-06
-1.162918e-05 -2.006553e-05 -1.124806e-06
-9.869162e-06 2.202638e-05 -1.493949e-06
6.614036e-06 2.309061e-05 1.486236e-06
-1.003980e-05 -2.362561e-05 -3.660402e-22
7.349313e-06 2.286318e-05 1.485827e-06
1.929286e-05 1.496384e-05 1.475090e-06
1.929286e-05 -1.496384e-05 1.475090e-06
-2.169069e-06 -2.258637e-05 -1.626122e-07
-1.009448e-05 -2.032118e-05 -1.625902e-07
4.989680e-06 2.494352e-05 -8.007935e-07
2.356896e-05 6.412569e-06 1.473437e-06
-1.281178e-05 1.956273e-05 1.267840e-06
1.663130e-05 -1.748646e-05 -1.493842e-06
1.663130e-05 1.748646e-05 -1.493842e-06
2.362561e-05 1.003980e-05 -3.660402e-22
-9.170243e-06 -2.397652e-05 -3.660402e-22
-1.095812e-05 2.297009e-05 7.809816e-07
2.286162e-05 7.154554e-06 1.478058e-06
5.760240e-06 -2.476104e-05 8.246638e-07
-1.963562e-05 -1.181106e-05 -8.009455e-07
8.481034e-06 2.395474e-05 -8.402689e-07
-2.157487e-05 -7.018671e-06 -1.381638e-07
-1.667725e-05 -1.538231e-05 -1.403899e-07
-2.148588e-05 1.363104e-05 7.891550e-07
2.290399e-05 1.957045e-06 9.061394e-07
1.483093e-05 -1.761001e-05 9.512321e-07
-8.288454e-06 -2.429544e-05 -3.660402e-22
1.483093e-05 1.761001e-05 9.512321e-07
-1.740264e-05 1.860416e-05 -7.390548e-07
1.411011e-05 -2.007785e-05 -1.449417e-06
1.411011e-05 2.007785e-05 -1.449417e-06
-2.251439e-05 -3.127000e-06 -3.799096e-07
4.772075e-06 -2.267239e-05 -1.104518e-06
2.321241e-05 -7.923056e-06 1.452557e-06
[...]
POINT_DATA 2071
VECTORS 10.000GHz_fone_imag double
-4.832233e-05 6.449277e-05 1.781406e-02
6.338582e-05 1.608921e-04 1.768623e-02
-8.453807e-05 8.931771e-05 1.770179e-02
2.216481e-02 2.018236e-04 -1.009046e-02
4.277098e-03 -1.087347e-02 1.462525e-02
-1.846508e-02 -2.733123e-03 8.620238e-03
-5.194755e-03 9.588094e-03 1.482622e-02
1.347765e-03 -1.906353e-02 8.565212e-03
-4.860932e-03 -1.731383e-02 8.922682e-03
1.325822e-02 -2.046789e-03 -2.309465e-02
1.020927e-02 9.804365e-04 1.607582e-02
2.022643e-02 -5.658536e-03 3.797939e-03
-6.364632e-05 -5.597482e-05 -2.757555e-02
-9.230202e-05 5.403346e-06 1.781051e-02
-1.314517e-03 8.136088e-03 -2.704833e-02
-7.343092e-03 5.300039e-03 -2.602263e-02
4.060898e-03 6.198806e-03 -2.651807e-02
1.702519e-03 6.708875e-03 -2.521542e-02
2.072301e-04 -1.288672e-02 1.390682e-02
-1.464794e-02 3.941657e-03 -2.217337e-02
-1.220163e-02 1.098308e-02 -2.054021e-02
2.551056e-03 -1.667556e-03 -2.783339e-02
2.175391e-02 -3.900304e-03 -1.151539e-02
9.468427e-03 5.442573e-03 1.511121e-02
7.199596e-05 -1.003624e-04 1.777801e-02
-8.457582e-03 -7.174887e-03 1.477637e-02
-8.730400e-03 6.619428e-03 1.463829e-02
-1.033566e-03 1.034209e-02 1.502613e-02
5.275046e-03 1.134506e-02 1.407187e-02
1.462467e-03 1.218768e-02 1.411302e-02
-1.837989e-02 -1.347093e-02 -1.480757e-03
-2.070254e-02 -9.394505e-03 -2.714408e-03
-2.228222e-02 -5.625224e-04 -8.951433e-04
-8.905808e-03 -8.586864e-03 1.439321e-02
-2.289618e-02 -6.056789e-04 -2.575174e-03
3.141062e-05 -6.235085e-05 1.777019e-02
-1.120287e-02 1.736497e-03 1.485987e-02
3.451409e-03 -3.775412e-03 -2.711278e-02
3.482526e-03 3.721527e-03 -2.710877e-02
1.022251e-02 -3.523616e-03 1.517411e-02
-1.247336e-03 -1.213282e-02 1.418625e-02
1.893438e-02 1.202547e-02 -1.003247e-03
2.086945e-02 5.955811e-03 1.265270e-03
-1.067236e-02 -4.901944e-03 1.442528e-02
2.022630e-02 -1.005190e-02 -2.675969e-03
-4.721700e-03 -8.490247e-03 1.549155e-02
8.415458e-04 1.847889e-04 1.782789e-02
1.079927e-02 1.473288e-03 1.510331e-02
2.003084e-02 -1.082735e-02 -4.215597e-03
-2.389392e-03 1.068399e-02 1.498824e-02
1.945108e-02 -2.280787e-03 5.798804e-03
1.948945e-02 -1.858113e-03 -1.913586e-02
-1.059956e-02 -2.404834e-03 1.499114e-02
-4.009249e-03 -9.187779e-03 1.635759e-02
-1.255051e-02 -3.978922e-03 1.407208e-02
1.568524e-02 -1.671341e-02 -3.455876e-03
-1.344868e-02 -9.477615e-03 -2.061039e-02
1.855068e-06 3.772233e-04 1.781720e-02
-1.292974e-02 1.016581e-02 -2.077543e-02
-9.493537e-03 -2.018949e-02 -3.097886e-04
6.738246e-03 2.121698e-02 -3.191631e-03
-2.166859e-02 6.483630e-03 -1.872478e-03
1.549160e-02 1.410664e-02 3.791802e-03
1.894521e-02 5.578661e-03 2.922963e-03
1.006581e-02 -5.354618e-03 1.474594e-02
-2.627114e-03 1.704124e-02 -1.979912e-02
-1.002123e-02 -3.969216e-03 1.516277e-02
-2.804761e-03 2.155220e-02 -2.669353e-03
-6.329812e-04 -8.633468e-05 1.793352e-02
-2.216150e-02 -2.471107e-03 -5.375561e-04
3.258026e-03 -9.921235e-04 -2.772861e-02
-7.947457e-03 7.202522e-03 -2.491302e-02
-7.944079e-03 -7.209882e-03 -2.486674e-02
-9.129387e-03 5.747845e-03 1.508938e-02
1.332063e-02 1.805175e-02 -2.292858e-03
6.259210e-03 7.332211e-03 -2.579246e-02
-1.043701e-02 2.776640e-03 1.496667e-02
1.974861e-02 -9.745771e-04 -1.644178e-02
-3.883490e-03 -5.130953e-03 -2.654812e-02
1.157500e-04 -7.050448e-04 1.775619e-02
2.148764e-02 -1.084888e-03 2.490829e-03
1.142783e-02 -1.940141e-02 -2.945595e-03
-1.350564e-02 -6.637676e-03 -2.186587e-02
-3.583502e-03 -1.045486e-02 1.519132e-02
-1.236761e-02 -8.324380e-03 -2.220702e-02
1.120474e-02 2.742747e-03 1.488630e-02
-1.997918e-03 -1.193215e-02 1.524079e-02
-2.603919e-03 -1.138609e-02 1.561027e-02
-2.795267e-03 -9.596523e-03 1.561894e-02
1.623705e-02 -1.390310e-02 -7.169181e-04
2.531949e-04 -1.261320e-06 1.804462e-02
1.184351e-02 3.789287e-04 1.475038e-02
1.023127e-02 -5.463876e-03 1.468157e-02
8.179002e-03 -9.458068e-03 1.420321e-02
2.069893e-02 9.202203e-03 -4.348714e-03
-1.549288e-02 -1.576808e-02 4.577674e-04
-1.091977e-02 -2.877584e-03 -2.233444e-02
1.823253e-02 1.355957e-02 -4.543726e-03
-1.962543e-02 -1.100317e-02 -4.776361e-03
-1.237100e-02 1.641066e-02 -1.429916e-02
-1.051590e-02 -5.753022e-03 -2.412272e-02
1.983115e-04 2.417130e-04 1.787167e-02
7.361596e-03 -2.129998e-02 -5.194600e-04
-4.960956e-03 1.033524e-02 -2.485451e-02
-1.630481e-02 -1.535932e-02 -1.239567e-03
-1.633550e-02 1.536719e-02 -1.269996e-03
-1.835922e-02 -8.462597e-03 5.231017e-03
-1.237341e-03 -2.214300e-02 1.004604e-03
-7.876110e-04 9.244564e-03 1.563457e-02
-1.588882e-03 -9.112137e-03 -2.537139e-02
-1.044321e-02 -5.139986e-04 1.489662e-02
1.665120e-02 7.924904e-03 -1.806461e-02
5.685835e-04 5.204417e-05 1.771722e-02
3.182640e-04 4.282341e-04 1.778847e-02
1.123787e-02 -2.692120e-03 -2.452965e-02
1.565234e-02 -7.377534e-03 -2.022934e-02
-9.602174e-04 -2.140103e-02 1.559483e-03
2.177017e-02 -6.559438e-03 -4.982558e-03
-2.011396e-02 -1.137267e-03 -1.707563e-02
1.714489e-02 -1.474738e-02 -2.746367e-03
1.694654e-02 1.495596e-02 -2.950446e-03
1.053518e-02 -2.284252e-03 1.467988e-02
-2.063076e-02 1.959363e-03 5.836095e-03
-3.567199e-03 1.119397e-02 1.491433e-02
1.946183e-04 4.534397e-04 1.784744e-02
4.773768e-03 -2.207817e-02 -1.925277e-03
2.066665e-02 7.250074e-04 4.844596e-03
9.063838e-03 2.582859e-03 -2.590551e-02
1.095763e-02 -3.414414e-03 1.501182e-02
-1.712169e-02 -1.137839e-02 -1.452854e-02
1.001633e-02 -4.005931e-03 1.578946e-02
1.351838e-02 -2.106972e-03 -2.366217e-02
7.813188e-03 6.154243e-03 1.556330e-02
-1.451167e-02 -1.550532e-02 3.053381e-03
-1.659998e-02 1.731023e-03 -1.736598e-02
4.676889e-04 -1.117778e-04 1.756482e-02
2.169720e-03 -1.101756e-02 1.605085e-02
-2.108183e-03 -1.924660e-02 3.185779e-03
1.233450e-02 -3.544902e-03 -2.380884e-02
-1.957198e-02 -3.798434e-03 -1.595158e-02
3.393230e-03 8.639466e-03 -2.574630e-02
-6.748932e-05 9.643376e-03 -2.591102e-02
-1.042606e-02 5.492684e-03 -2.425236e-02
7.023534e-03 7.702146e-03 1.502541e-02
-3.856721e-04 -2.124603e-02 2.931703e-03
3.651873e-03 9.387939e-03 1.519961e-02
6.444702e-05 3.323963e-04 1.781658e-02
-9.170318e-03 -6.690780e-03 1.485727e-02
-9.045623e-03 6.811014e-03 1.492845e-02
-8.293206e-03 6.830016e-03 1.535584e-02
-2.223274e-02 3.725260e-03 -2.212095e-03
-2.206255e-02 5.293962e-03 -2.599078e-03
9.800347e-03 3.789629e-03 1.527303e-02
8.047937e-03 6.812615e-03 1.528049e-02
1.251321e-04 1.013342e-02 1.503070e-02
9.739918e-04 1.076801e-02 1.486247e-02
9.213978e-04 4.157555e-04 -2.782932e-02
-1.225909e-05 2.130424e-04 1.798259e-02
-7.183683e-03 7.624873e-03 -2.477920e-02
2.300130e-03 -2.183011e-03 -2.802603e-02
1.906829e-02 1.163431e-02 -8.234894e-03
-1.058052e-02 3.603943e-03 1.444710e-02
-1.720681e-02 1.144795e-02 -1.417070e-02
-6.113748e-03 9.008332e-03 1.498547e-02
7.152369e-04 -1.709849e-03 -2.593657e-02
-2.110644e-02 -8.298853e-03 -4.820607e-03
-9.165560e-03 -1.947720e-02 1.463502e-03
-2.129831e-04 8.520789e-03 -2.637988e-02
7.322748e-07 1.551435e-04 1.780150e-02
-2.061844e-02 -4.353601e-03 3.060810e-03
-2.065544e-02 -5.962857e-03 6.513670e-04
-8.090087e-03 6.015996e-03 1.634018e-02
1.460759e-02 -8.412495e-04 -2.224492e-02
-1.703017e-02 1.147050e-02 4.377921e-03
1.009899e-02 3.872979e-03 1.485961e-02
-1.825496e-02 1.036638e-02 -1.202988e-02
1.347374e-02 1.690273e-02 -1.123192e-02
1.355934e-02 -1.675616e-02 -1.108899e-02
-1.476175e-03 9.204382e-03 1.589581e-02
-3.614832e-04 -7.286237e-05 1.786926e-02
-7.718974e-03 -2.024448e-02 -5.219164e-03
-1.733467e-02 3.433805e-03 9.626737e-03
-9.891591e-03 -1.674961e-02 -1.694490e-02
7.422781e-03 9.102915e-03 1.487263e-02
7.079180e-03 -9.380953e-03 1.487691e-02
-7.915238e-03 -2.047453e-02 3.094647e-03
-3.511351e-03 -1.843328e-02 -1.794147e-02
1.508619e-03 -3.134902e-03 -2.759477e-02
1.281974e-03 2.348699e-03 -2.743444e-02
-8.178344e-03 8.059174e-04 -2.631934e-02
-2.320502e-04 -5.830042e-04 1.790659e-02
4.160271e-03 8.891748e-03 1.556877e-02
-1.005188e-02 2.774387e-03 1.527396e-02
-1.049495e-02 1.833110e-03 1.509387e-02
1.374525e-02 1.655152e-02 2.566389e-03
2.056907e-02 -3.236079e-03 3.999201e-03
1.405229e-02 2.106287e-03 -2.277419e-02
3.479120e-03 -9.729705e-03 1.524445e-02
1.180173e-04 3.259712e-04 -2.780461e-02
1.270833e-03 1.019119e-02 1.573923e-02
5.224137e-03 9.428461e-03 1.528694e-02
4.189550e-04 -8.366418e-05 1.780855e-02
6.976575e-03 2.019840e-02 2.985497e-03
7.315312e-03 -7.444374e-03 1.544181e-02
-4.007302e-04 2.118175e-02 2.754007e-03
-1.828002e-02 1.253685e-02 -3.519729e-04
-1.831415e-02 -1.253462e-02 -4.411290e-04
-9.319915e-03 -1.871747e-03 1.551629e-02
8.056835e-03 -2.132030e-02 -7.659474e-03
-9.351251e-03 -1.582177e-02 -1.751805e-02
-9.064221e-03 2.026080e-02 -1.825305e-03
-6.300758e-03 -2.157105e-02 -3.712524e-03
1.124808e-03 2.969415e-04 1.736394e-02
-6.914857e-03 -2.203149e-02 -3.608094e-03
-1.674780e-02 -1.305846e-02 2.949697e-03
-1.669209e-02 1.310201e-02 3.160576e-03
-9.647296e-05 -3.037291e-03 -2.747237e-02
-1.580749e-03 -2.697844e-03 -2.742951e-02
2.361919e-03 1.039951e-02 1.398729e-02
-2.103708e-02 -5.885902e-03 3.092063e-03
1.161122e-02 -1.724435e-02 -1.402614e-02
1.557884e-02 -1.619258e-02 -2.563833e-03
1.561143e-02 1.620452e-02 -2.562449e-03
-2.928758e-04 1.989550e-05 1.775953e-02
-5.529173e-04 1.033578e-03 1.734507e-02
4.660923e-03 -8.907418e-03 1.609943e-02
-2.273615e-02 -7.033933e-03 -4.729653e-03
-3.224249e-03 1.093069e-02 1.468488e-02
-1.197857e-02 -7.200363e-03 -2.311376e-02
3.283698e-03 1.006871e-02 1.510002e-02
-3.355187e-03 -9.912369e-04 -2.883204e-02
-2.124256e-03 -1.604434e-03 -2.725367e-02
8.457782e-03 -5.455322e-03 1.501080e-02
-1.529086e-02 -1.425765e-03 -2.224406e-02
-1.011863e-02 1.175163e-02 -2.132265e-02
1.741846e-04 2.789340e-04 1.789168e-02
-1.011628e-02 -1.172610e-02 -2.115019e-02
-6.950577e-03 7.267839e-03 1.586663e-02
1.193112e-02 -1.750881e-02 4.452133e-03
1.200720e-02 1.693156e-02 4.492160e-03
-6.327944e-03 -4.505331e-04 -2.663089e-02
3.615992e-03 -1.798107e-02 -1.805076e-02
-1.969178e-02 6.558621e-03 4.550351e-03
5.636476e-03 4.555594e-04 -2.672174e-02
-2.190688e-03 -8.973985e-03 1.619363e-02
-6.787038e-03 -8.047750e-03 1.544005e-02
7.980103e-06 3.575331e-04 1.771959e-02
-6.681777e-03 7.964761e-03 1.543880e-02
-2.007773e-02 7.531826e-03 3.709718e-03
-1.909139e-02 8.897502e-03 3.726426e-03
2.275609e-02 4.155924e-03 -3.026578e-03
-2.152342e-03 6.335336e-03 -2.655241e-02
-7.807778e-03 8.091805e-03 1.491267e-02
-7.820069e-03 -8.093221e-03 1.492009e-02
-9.158037e-03 3.666481e-03 1.519598e-02
7.963725e-04 -8.188284e-03 -2.617095e-02
5.211904e-03 -2.083500e-03 -2.730405e-02
1.428192e-06 3.793434e-04 1.652742e-02
1.167628e-02 2.973202e-03 -2.579290e-02
-7.806555e-04 -1.584071e-02 -2.114665e-02
-6.231665e-03 -1.320407e-02 -2.188177e-02
2.069864e-02 -4.063780e-03 3.458963e-03
-1.706568e-02 -6.191473e-03 -1.841089e-02
-1.501448e-02 -4.428654e-03 -2.123950e-02
1.145819e-03 -9.904299e-03 1.666663e-02
-3.890129e-03 -2.101171e-02 1.779964e-03
-1.384621e-02 1.720535e-02 3.578921e-04
-2.512244e-03 -1.956785e-02 2.977756e-03
-4.894878e-04 -3.511257e-04 1.655221e-02
1.011971e-02 2.949649e-03 1.536903e-02
7.102038e-03 7.654008e-03 1.513922e-02
-7.541106e-03 1.420243e-02 -2.078228e-02
5.779452e-03 7.647750e-03 1.541139e-02
2.045512e-03 9.311761e-03 1.550244e-02
1.345690e-02 7.899940e-03 -2.156324e-02
-1.062713e-02 -1.115498e-02 -2.147736e-02
-1.309335e-02 1.781063e-02 1.293649e-04
-1.235632e-03 1.070774e-02 1.492338e-02
2.008230e-02 7.578773e-03 -1.331200e-02
2.328215e-04 5.340493e-04 1.745634e-02
1.521587e-03 2.081636e-02 3.340312e-04
1.750262e-02 1.422951e-02 -2.486193e-03
1.061140e-02 -2.377813e-03 1.484516e-02
2.092400e-02 8.164813e-03 -2.343232e-03
1.046998e-02 -2.963595e-04 1.517724e-02
5.592523e-03 -5.963167e-03 1.636273e-02
5.588599e-03 5.958559e-03 1.639459e-02
-2.071663e-02 -3.107812e-03 3.105618e-03
-4.529685e-03 2.527839e-03 -2.727458e-02
-8.474576e-03 -5.911402e-03 1.555141e-02
-1.147188e-04 -3.999681e-04 1.629173e-02
-8.455408e-03 5.995838e-03 1.551087e-02
-1.386091e-02 1.864303e-02 -4.709914e-03
-1.271910e-02 -1.883288e-02 -4.649815e-03
-1.143630e-02 -1.776964e-02 2.533292e-03
3.133371e-04 5.317089e-03 -2.728763e-02
2.184379e-03 4.860912e-03 -2.698368e-02
-1.601291e-02 1.338916e-02 2.299807e-03
-1.857588e-03 1.792160e-02 8.326126e-03
-1.738924e-02 2.442816e-03 -1.926998e-02
-1.138552e-02 -1.569609e-02 -1.777160e-02
-2.556814e-05 -4.816615e-05 1.657670e-02
-1.539365e-02 1.646387e-02 -3.565276e-03
4.646139e-03 -7.859770e-03 1.566844e-02
1.925797e-02 -7.687440e-03 4.359000e-03
7.611692e-03 7.167567e-03 1.517100e-02
-7.555403e-03 -5.619386e-03 1.582759e-02
-8.503364e-03 -3.882231e-03 1.573066e-02
2.194804e-02 -5.683194e-03 -5.617612e-03
-7.608410e-03 1.900390e-02 -1.454316e-02
2.033098e-02 -6.677457e-03 2.463015e-03
6.963594e-03 -5.866607e-03 1.562519e-02
-1.580460e-06 -1.744852e-05 1.777961e-02
-6.013187e-03 -7.557196e-03 1.559200e-02
-3.236222e-03 -2.056515e-02 -1.289099e-02
-8.222597e-03 -4.249664e-03 1.581537e-02
-8.137305e-03 4.165489e-03 1.543007e-02
-7.950372e-04 -1.809426e-02 -1.891030e-02
3.748462e-03 3.853006e-03 -2.690814e-02
-2.065669e-02 5.375165e-04 -1.392642e-02
1.154001e-02 -1.861372e-02 9.442506e-04
3.622954e-03 -1.978949e-02 2.313708e-03
5.437588e-03 1.333036e-03 -2.821009e-02
2.598215e-04 3.861119e-04 1.784821e-02
-7.546735e-03 1.023419e-02 -2.392831e-02
2.132344e-02 6.887383e-04 3.160317e-03
-4.266926e-03 2.046423e-02 3.534979e-03
-1.258125e-02 1.843258e-02 -2.101060e-03
7.531485e-03 -5.234521e-03 1.555516e-02
1.658331e-02 1.486528e-02 5.252573e-04
1.653883e-02 -1.473032e-02 8.522047e-04
-1.082872e-03 7.285713e-04 -2.769938e-02
9.564024e-05 -5.215946e-04 -2.798401e-02
5.831660e-03 -2.145730e-02 1.736863e-03
-8.600782e-05 -1.971921e-04 1.776759e-02
-8.059468e-06 6.694221e-04 1.774368e-02
9.282475e-03 -6.128123e-03 1.452159e-02
5.581045e-03 -7.266412e-03 1.567607e-02
1.642098e-02 -7.387256e-03 -1.860222e-02
-3.744499e-03 1.879681e-02 -1.684686e-02
-1.912446e-02 1.130955e-02 2.766067e-04
-4.281107e-03 -2.118058e-02 2.746747e-03
2.324297e-02 2.536011e-03 -2.619015e-04
-6.215757e-03 -1.681730e-02 -1.872462e-02
-8.004358e-03 4.194742e-03 -2.579885e-02
1.898956e-02 -1.146472e-02 -9.024049e-03
5.815631e-04 8.970203e-04 1.764407e-02
2.600785e-03 -8.226201e-03 1.645423e-02
-1.987636e-02 1.088208e-02 -2.206615e-03
1.149761e-02 -1.837910e-02 2.201947e-03
1.175114e-02 1.835828e-02 1.794383e-03
2.990082e-03 1.834909e-02 -1.824094e-02
9.593925e-03 1.590144e-02 -1.779842e-02
1.478224e-02 -1.688917e-02 -8.667488e-03
-1.471177e-02 1.443444e-02 4.221680e-03
2.813875e-03 -8.897842e-03 1.554798e-02
6.733405e-04 -2.064326e-02 -1.348474e-02
-3.920314e-04 6.857223e-04 1.779054e-02
-3.865077e-03 8.001873e-03 1.588322e-02
-1.847309e-02 -3.486570e-03 7.374147e-03
-1.995582e-02 5.655083e-03 4.480231e-03
-2.058574e-02 2.921490e-03 4.110753e-03
-3.176385e-03 8.922014e-03 1.580098e-02
-1.924611e-02 -1.119294e-02 5.388717e-04
4.136038e-03 2.059610e-02 -1.155276e-03
6.637361e-04 -1.069837e-03 -2.819361e-02
-1.307851e-03 1.838416e-02 -1.897710e-02
2.109044e-02 6.740189e-03 -1.152124e-02
5.726588e-04 8.920219e-04 1.769807e-02
-5.700843e-03 8.171388e-03 1.532074e-02
-7.088500e-03 2.065350e-02 9.264612e-05
1.518092e-02 1.575256e-02 -1.190233e-02
-8.712889e-03 -9.371899e-04 1.508944e-02
1.673372e-02 -1.197166e-03 -1.967692e-02
-1.533317e-02 1.336524e-02 5.426395e-03
-7.167527e-03 -1.390851e-02 -2.156676e-02
-1.994591e-02 -1.079132e-02 -1.610135e-03
-1.741252e-02 8.088607e-03 -1.660446e-02
-1.062320e-02 7.190081e-03 -2.367468e-02
-4.390290e-04 9.680031e-04 1.836223e-02
6.442245e-03 -5.587051e-03 -2.627019e-02
6.288070e-03 4.115254e-03 -2.636175e-02
-2.934134e-03 -8.563652e-03 1.570276e-02
8.414379e-03 -4.323531e-03 1.586339e-02
-1.917121e-02 -2.059053e-03 7.075974e-03
-3.488584e-03 -4.723742e-03 -2.715570e-02
-2.121442e-02 3.365352e-04 3.922693e-03
-8.885999e-03 2.098169e-03 1.572488e-02
-8.845204e-03 1.461863e-03 1.582849e-02
1.455440e-02 3.204719e-03 -2.299981e-02
-3.091791e-04 2.834728e-04 1.815312e-02
-5.528538e-03 -7.520791e-03 1.590230e-02
2.711736e-04 -9.261106e-03 1.608930e-02
-2.290366e-03 -9.006914e-03 1.581589e-02
-2.801933e-04 -2.181544e-02 2.693629e-05
3.462696e-03 -1.080185e-03 -2.751194e-02
-1.656706e-02 1.363694e-02 3.086001e-03
-1.647630e-02 -1.361819e-02 2.881244e-03
8.720601e-03 1.826816e-02 2.430796e-03
5.311150e-03 -8.456043e-03 1.565642e-02
5.553164e-03 8.303402e-03 1.567711e-02
1.914364e-04 1.654274e-04 1.868570e-02
-1.764332e-03 -5.288947e-03 -2.760403e-02
8.928037e-03 2.038779e-02 -1.203423e-02
8.803613e-04 2.203836e-02 -1.198615e-02
1.369164e-03 -5.849283e-03 -2.658725e-02
-1.028206e-02 -6.532445e-03 -2.418415e-02
-3.196241e-03 -7.645154e-03 1.650038e-02
1.807937e-02 -1.091186e-02 3.835035e-03
3.304519e-03 1.740763e-04 -2.661139e-02
9.120597e-03 1.766016e-02 6.296134e-03
2.699209e-03 2.042381e-02 6.548142e-03
-2.703340e-04 1.863463e-04 1.741357e-02
-7.919851e-03 4.287448e-03 1.586291e-02
-5.131023e-03 -1.779885e-02 -1.890394e-02
8.737456e-03 -1.876419e-03 1.599558e-02
2.148214e-03 -1.774093e-02 -1.895556e-02
6.440116e-04 -5.405400e-03 -2.716669e-02
9.561403e-03 1.751443e-03 1.570888e-02
-6.775847e-03 6.693195e-03 1.580132e-02
2.096462e-02 -5.210275e-03 2.122012e-03
-8.200027e-03 -2.014229e-03 1.626927e-02
9.850119e-03 -2.318009e-03 1.542992e-02
2.847160e-05 -1.114346e-03 1.738676e-02
5.767926e-03 -1.726324e-02 -1.832000e-02
-1.695896e-02 -4.076271e-03 -1.960381e-02
-1.754109e-02 -8.379470e-03 -1.595010e-02
-2.561767e-03 -4.430310e-03 -2.733630e-02
-3.416973e-04 -5.316277e-03 -2.587072e-02
-9.424038e-03 2.970221e-03 1.551443e-02
2.057761e-02 -6.626365e-03 2.339005e-03
3.853073e-03 -9.673613e-03 1.513547e-02
-2.087095e-02 3.044131e-03 4.427698e-03
1.676806e-02 -5.707755e-03 -1.917653e-02
3.024218e-04 9.869871e-04 1.756313e-02
1.731796e-02 8.963838e-03 -1.627820e-02
1.802917e-02 7.484058e-03 -1.695383e-02
-5.152379e-03 1.893615e-02 6.321012e-03
-4.309638e-03 8.474826e-03 1.554824e-02
-5.605716e-03 -7.787428e-03 1.571829e-02
-1.231244e-02 -1.039263e-02 -2.028378e-02
-2.045088e-03 -1.872147e-02 -1.746407e-02
-1.974464e-02 -5.919708e-03 5.212878e-03
8.943382e-04 -1.012079e-02 1.552297e-02
-1.921313e-02 4.428726e-03 -1.572392e-02
4.144531e-04 9.213878e-05 1.768331e-02
-1.125013e-03 5.006793e-04 1.745366e-02
3.347284e-03 1.893521e-02 -1.778589e-02
7.467252e-03 -5.193291e-03 -2.647117e-02
-1.662506e-02 -4.710035e-03 -1.762087e-02
-9.742303e-03 -4.594527e-04 1.544456e-02
-9.834889e-03 4.667104e-04 1.548094e-02
9.743778e-03 -3.936818e-04 1.546205e-02
2.427032e-03 -1.775879e-02 -2.019827e-02
-9.109933e-03 -1.411545e-02 -2.019081e-02
-3.694748e-03 -1.597167e-02 -2.109060e-02
1.504253e-02 1.216786e-02 -1.691897e-02
-2.589862e-04 -7.372366e-05 1.787006e-02
9.965330e-03 -1.892157e-02 3.638992e-03
-1.195707e-03 3.201606e-03 -2.698444e-02
1.827270e-02 7.127427e-03 -1.699791e-02
-1.747407e-02 -1.416389e-02 -7.112670e-03
-7.708242e-03 1.521520e-03 -2.528305e-02
8.117802e-03 1.945389e-02 3.447356e-03
-4.707086e-03 2.097093e-02 2.942572e-03
2.004314e-02 8.186751e-03 2.423652e-03
2.260295e-02 -2.171334e-03 -1.867148e-03
-5.772414e-03 -6.298366e-03 1.624758e-02
2.810576e-04 -3.326004e-04 1.787591e-02
4.114241e-04 -8.423903e-03 1.607225e-02
-2.088962e-02 -8.283347e-03 -6.890270e-03
1.847506e-02 1.318154e-02 -1.195181e-03
5.173990e-03 -1.846775e-03 -2.611899e-02
2.093711e-02 3.616288e-03 -1.241927e-02
1.135633e-02 -1.649209e-02 5.592289e-03
9.437058e-03 1.950285e-03 1.539141e-02
-4.555862e-03 7.005308e-03 -2.630303e-02
-5.029480e-03 -7.197835e-03 -2.585135e-02
8.420308e-03 3.197352e-03 1.549014e-02
2.364649e-04 9.299480e-04 1.769525e-02
-1.824200e-03 1.584071e-02 -2.135664e-02
-1.933712e-02 -7.350178e-03 4.350513e-03
2.151846e-02 1.834824e-03 -1.344099e-02
1.536596e-02 -2.576173e-03 -2.141164e-02
9.015809e-03 -1.278604e-02 -1.897452e-02
9.573701e-03 1.388467e-02 -1.982007e-02
-8.214067e-03 -1.965209e-03 1.608827e-02
-8.253401e-03 2.055313e-03 1.586469e-02
-6.230044e-04 -1.657485e-02 -2.025883e-02
-2.421580e-03 2.276325e-02 -9.916428e-03
-3.532713e-04 -3.811457e-04 1.773671e-02
2.890018e-03 -3.350937e-04 -2.753976e-02