# vtk DataFile Version 2.0
Electric current density generated by TTH
ASCII
DATASET UNSTRUCTURED_GRID
POINTS 1563 double
1.059027e-05 -2.593868e-21 2.213597e-06
-8.839368e-06 1.613686e-06 2.295103e-06
-8.539848e-06 -7.429001e-06 1.741469e-06
4.202147e-07 1.196857e-05 6.624771e-07
4.202147e-07 -1.196857e-05 6.624771e-07
3.647408e-06 7.228420e-06 -1.803961e-06
-9.608393e-07 1.044243e-05 2.253767e-06
-9.608393e-07 -1.044243e-05 2.253767e-06
-5.870420e-06 4.323341e-06 2.514486e-07
2.336352e-06 6.929546e-06 -4.104629e-07
-8.435422e-06 8.508410e-06 6.438780e-07
9.673367e-06 -2.369292e-21 2.395980e-06
-6.696130e-06 9.112298e-06 -1.751716e-06
-7.638575e-06 2.117857e-07 -1.269756e-06
6.331923e-06 -6.926137e-06 2.378476e-06
6.331923e-06 6.926137e-06 2.378476e-06
1.245043e-06 9.532259e-06 -2.395225e-06
-1.985479e-06 7.004712e-06 -1.253294e-07
-1.103981e-05 1.636950e-06 -1.878598e-06
-3.531743e-06 -7.147403e-06 -1.687396e-06
-8.943447e-06 -1.656490e-06 -2.325265e-06
-3.696359e-06 -6.469522e-06 8.955006e-07
8.756465e-06 -2.144715e-21 2.213597e-06
-3.249063e-06 -6.572930e-06 -5.091469e-07
5.662109e-06 -9.835225e-06 -1.712967e-06
8.448109e-06 -6.703138e-07 2.074565e-06
8.423593e-06 6.716890e-07 2.060316e-06
5.985790e-06 -8.251858e-06 -2.338674e-06
2.461286e-06 -1.173841e-05 -5.974141e-07
-7.435002e-06 -8.516581e-06 1.754219e-06
-6.290269e-07 -1.195358e-05 -6.824015e-07
7.203120e-06 2.853444e-06 1.425686e-06
7.203120e-06 -2.853444e-06 1.425686e-06
7.979153e-06 -1.954329e-21 1.694214e-06
-5.053966e-06 -6.785426e-06 -2.066475e-06
1.077564e-05 5.267887e-06 5.946911e-07
1.077564e-05 -5.267887e-06 5.946911e-07
4.903107e-06 6.487696e-06 -1.834433e-06
5.180787e-06 -5.502645e-06 -1.124679e-06
5.253625e-06 5.431321e-06 -1.122208e-06
-9.542649e-06 5.629734e-06 1.939953e-06
1.310307e-06 1.086071e-05 -2.034138e-06
-7.895132e-06 -8.983002e-06 7.174499e-07
-5.510057e-06 1.060759e-05 -7.366004e-07
7.459770e-06 -1.827117e-21 9.169018e-07
-5.549447e-06 -6.135156e-06 -1.943881e-06
-5.325169e-06 5.981602e-06 -1.723116e-06
6.772855e-06 -2.662646e-06 1.715198e-08
6.767936e-06 2.675147e-06 1.827741e-08
-2.624371e-06 8.166114e-06 2.130657e-06
4.177218e-06 9.530466e-06 -2.281312e-06
-7.596303e-06 -2.476516e-06 -1.704797e-06
-2.281403e-06 1.174034e-05 7.157125e-07
-2.281403e-06 -1.174034e-05 7.157125e-07
-9.222929e-06 7.571256e-06 7.979349e-07
7.277387e-06 -1.782446e-21 8.805653e-21
-5.448203e-06 5.285008e-06 -1.184054e-06
8.951090e-06 -7.210111e-07 -2.293485e-06
8.951090e-06 7.210111e-07 -2.293485e-06
-1.189401e-05 1.265853e-06 7.117903e-07
-3.186203e-06 9.670625e-06 2.341372e-06
6.773568e-06 -3.517370e-06 1.255015e-06
6.773568e-06 3.517370e-06 1.255015e-06
-1.030610e-05 -6.141102e-06 -5.842013e-07
7.260607e-06 -6.513391e-06 -2.394622e-06
7.288016e-06 6.542220e-06 -2.392958e-06
7.459770e-06 -1.827117e-21 -9.169018e-07
2.648171e-06 9.654218e-06 -2.372096e-06
-3.773994e-06 -7.615805e-06 2.088788e-06
1.194068e-05 8.600363e-07 6.773294e-07
1.194585e-05 -7.153566e-07 6.919648e-07
-6.691850e-06 -5.070325e-06 2.026939e-06
-4.743849e-07 1.157744e-05 1.441577e-06
-4.743849e-07 -1.157744e-05 1.441577e-06
-1.053912e-05 -3.190991e-06 -1.987417e-06
2.126361e-06 7.747926e-06 -1.747725e-06
3.079280e-06 -7.373593e-06 -1.705716e-06
7.979153e-06 -1.954329e-21 -1.694214e-06
-3.095693e-06 -7.368866e-06 1.707668e-06
1.187484e-05 -1.581339e-06 -6.493926e-07
1.187484e-05 1.581339e-06 -6.493926e-07
2.748407e-06 1.162170e-05 -7.699451e-07
-3.068872e-06 -9.653365e-06 2.352174e-06
-7.045332e-06 7.598262e-06 -2.294897e-06
-2.775874e-06 9.373686e-06 -2.393778e-06
-6.731447e-06 -8.096936e-06 -2.237758e-06
-1.111263e-05 2.562753e-06 1.656671e-06
-2.360870e-06 1.131409e-05 -1.479762e-06
8.756465e-06 -2.144715e-21 -2.213597e-06
7.297139e-07 -7.812531e-06 -1.550293e-06
1.159854e-05 7.688206e-07 -1.391318e-06
1.157224e-05 -7.042057e-07 -1.432910e-06
5.593698e-06 9.295341e-06 2.087935e-06
5.593698e-06 -9.295341e-06 2.087935e-06
1.055614e-05 -2.601940e-06 -2.074558e-06
1.055614e-05 2.601940e-06 -2.074558e-06
5.139844e-06 6.188854e-06 1.757473e-06
5.139844e-06 -6.188854e-06 1.757473e-06
3.541043e-06 6.380697e-06 3.091571e-07
9.673367e-06 -2.369292e-21 -2.395980e-06
3.537068e-06 -6.382397e-06 3.057483e-07
-6.410684e-06 9.656074e-06 1.437298e-06
-4.821077e-06 7.752130e-06 2.333316e-06
-7.690307e-06 9.937585e-07 1.434471e-06
1.724968e-06 9.249062e-06 2.381300e-06
1.724968e-06 -9.249062e-06 2.381300e-06
-7.281041e-06 -7.673906e-07 -4.569775e-07
1.099091e-05 5.467993e-07 1.992184e-06
1.099091e-05 -5.467993e-07 1.992184e-06
-4.579974e-06 -9.650710e-06 2.173176e-06
1.059027e-05 -2.593868e-21 -2.213597e-06
-7.642491e-06 -7.699467e-06 2.088022e-06
-5.110992e-06 -1.081747e-05 -7.023062e-07
-6.410815e-06 -7.443229e-06 -2.391275e-06
6.423323e-06 -1.008079e-05 -7.366366e-07
3.389487e-07 7.428829e-06 -8.587223e-07
7.716614e-06 -8.535123e-06 1.543098e-06
7.716614e-06 8.535123e-06 1.543098e-06
9.242431e-06 -5.668168e-06 -2.091611e-06
9.242431e-06 5.668168e-06 -2.091611e-06
-4.640632e-06 9.632778e-06 2.168511e-06
1.136758e-05 -2.784254e-21 -1.694214e-06
3.005557e-06 -8.322651e-06 -2.249596e-06
-8.836554e-06 -8.720097e-07 -2.260632e-06
7.259172e-06 -4.204766e-06 -2.022664e-06
7.259172e-06 4.204766e-06 -2.022664e-06
7.545632e-06 9.284411e-06 -7.027136e-07
8.016874e-06 -1.601446e-06 -1.869866e-06
8.016874e-06 1.601446e-06 -1.869866e-06
-1.245639e-06 -9.685109e-06 -2.394231e-06
-1.479769e-06 -7.792408e-06 1.645357e-06
-8.581890e-07 -9.693046e-06 2.395288e-06
1.188696e-05 -2.911466e-21 -9.169018e-07
-8.611342e-07 9.693183e-06 2.395278e-06
1.847579e-06 -1.181043e-05 7.342257e-07
1.847579e-06 1.181043e-05 7.342257e-07
-2.674075e-06 7.111129e-06 1.196089e-06
-9.579764e-06 -2.843769e-06 2.374572e-06
4.031742e-06 -7.251428e-06 -1.961120e-06
-1.041761e-05 1.336577e-06 -2.247759e-06
-1.484797e-06 1.191174e-05 -5.560783e-07
7.204811e-06 8.959311e-06 -1.554179e-06
-6.406546e-06 5.040334e-06 -1.850672e-06
-1.290702e-06 -7.162173e-06 -2.739291e-08
-8.846861e-06 7.839487e-07 2.261351e-06
-6.096871e-06 4.322726e-06 9.500828e-07
9.205175e-06 1.867397e-06 2.379482e-06
9.172542e-06 -1.778130e-06 2.373136e-06
9.348023e-06 -4.024679e-06 2.342321e-06
9.348023e-06 4.024679e-06 2.342321e-06
-5.429888e-06 7.597342e-06 -2.372431e-06
-8.534975e-06 2.094552e-06 -2.226488e-06
-3.425780e-06 1.150699e-05 -5.468138e-07
-6.130740e-06 9.570656e-06 -1.695904e-06
-1.233134e-06 7.172150e-06 0.000000e+00
-8.890736e-06 -4.380996e-06 -2.384114e-06
-6.158354e-06 -9.464565e-06 -1.766805e-06
6.649242e-06 -6.934689e-06 -2.395072e-06
6.737345e-06 6.874161e-06 -2.395497e-06
7.044254e-06 -9.184338e-06 1.457968e-06
7.044254e-06 9.184338e-06 1.457968e-06
4.794073e-06 1.026841e-05 1.728673e-06
4.794073e-06 -1.026841e-05 1.728673e-06
-9.861378e-06 -5.625486e-06 -1.708572e-06
3.689743e-06 -1.089742e-05 1.544470e-06
5.608276e-06 7.300443e-06 2.349942e-06
3.689743e-06 1.089742e-05 1.544470e-06
-6.473873e-06 -9.605691e-06 1.446250e-06
-6.976581e-06 9.771309e-06 -5.460373e-07
-1.119431e-06 7.874430e-06 -1.668270e-06
4.243602e-06 9.312527e-06 2.329506e-06
4.243605e-06 -9.312527e-06 2.329506e-06
4.738023e-06 -6.137925e-06 -1.434006e-06
-1.002256e-05 3.866566e-06 2.144201e-06
-9.092563e-06 7.240017e-06 -1.392808e-06
-1.642499e-06 1.137068e-05 1.563742e-06
5.608276e-06 -7.300443e-06 2.349942e-06
-1.642499e-06 -1.137068e-05 1.563742e-06
-6.862117e-07 -7.913097e-06 -1.657058e-06
-7.328316e-06 -3.371340e-06 -1.777370e-06
-7.194106e-06 2.250962e-06 1.086778e-06
-8.297681e-06 7.790277e-06 1.680117e-06
-8.129956e-06 3.316726e-06 -2.223393e-06
-1.277206e-06 9.723928e-06 -2.392225e-06
6.977543e-06 9.772657e-06 -5.389158e-07
-7.641182e-06 3.920152e-06 2.136092e-06
5.193826e-06 6.729012e-06 2.089182e-06
6.597416e-06 -6.038925e-06 -2.282256e-06
5.193826e-06 -6.729012e-06 2.089182e-06
5.422201e-06 9.465712e-06 -2.052960e-06
-1.499195e-06 7.824596e-06 1.681896e-06
-7.288946e-06 1.089921e-06 6.596560e-07
1.632513e-06 -7.166258e-06 -5.848151e-07
-9.087687e-06 7.224902e-07 -2.330336e-06
-6.100523e-06 -1.032562e-05 5.995735e-07
-1.158720e-05 -2.955405e-06 7.214202e-07
-1.834581e-06 -8.637002e-06 -2.242529e-06
-2.442006e-06 -8.290246e-06 2.162842e-06
6.597416e-06 6.038925e-06 -2.282256e-06
-5.545456e-06 -8.501123e-06 -2.348106e-06
-9.798509e-06 1.762887e-06 -2.379272e-06
-1.097662e-05 4.044486e-07 2.005687e-06
-1.744948e-06 -1.184216e-05 -6.826980e-07
-6.013905e-06 1.036139e-05 6.474522e-07
-7.307556e-06 7.889461e-08 3.816725e-07
-1.086871e-05 3.399369e-06 1.673639e-06
7.931584e-06 -1.587043e-06 1.797186e-06
7.985898e-06 1.656877e-06 1.854243e-06
-4.397557e-06 1.075617e-05 1.396342e-06
-1.103012e-05 3.421285e-06 -1.491457e-06
-4.397557e-06 -1.075617e-05 1.396342e-06
-1.105028e-05 -1.838541e-06 -1.844838e-06
-6.113019e-06 6.118565e-06 -2.165980e-06
-4.336654e-06 -8.901857e-06 2.385046e-06
1.089203e-06 -1.087866e-05 -2.038117e-06
-5.642480e-06 -6.066808e-06 1.952838e-06
1.674524e-06 -1.135857e-05 -1.572243e-06
9.776006e-06 -6.979934e-06 -5.207645e-07
9.776006e-06 6.979934e-06 -5.207645e-07
-1.664214e-06 -7.765908e-06 -1.656462e-06
-1.104051e-05 -3.455291e-06 -1.465912e-06
-1.009536e-05 -7.027076e-07 -2.354024e-06
-1.102871e-05 -2.758756e-06 1.693272e-06
5.938827e-06 8.128575e-06 -2.363433e-06
8.193405e-06 6.229346e-06 2.314590e-06
8.193405e-06 -6.229346e-06 2.314590e-06
-9.533416e-06 -7.232650e-06 6.944332e-07
-6.629892e-06 -3.063518e-06 3.525457e-07
-4.298533e-06 8.949289e-06 2.382400e-06
4.727422e-06 -5.544911e-06 2.099282e-07
4.769808e-06 5.505747e-06 1.848188e-07
-5.764089e-06 -4.723119e-06 8.979583e-07
1.021816e-05 5.283971e-06 1.546361e-06
1.021816e-05 -5.283971e-06 1.546361e-06
-1.177370e-05 -2.113719e-06 -7.093587e-07
-9.664609e-06 2.706756e-06 -2.368303e-06
-1.093286e-05 -9.737771e-07 2.010844e-06
2.001374e-06 -8.296412e-06 -2.107954e-06
7.164798e-06 1.361565e-06 2.732832e-07
7.174580e-06 -1.315896e-06 2.838230e-07
1.100035e-05 -1.859744e-06 1.881802e-06
1.098421e-05 1.864810e-06 1.893582e-06
-5.629597e-06 4.835636e-06 8.178806e-07
-6.371418e-06 4.091355e-06 -1.150952e-06
[...]
POINT_DATA 1563
VECTORS 10.000GHz_fone_imag double
1.240621e+09 -6.051528e+10 1.720995e+09
1.422446e+10 1.010669e+11 -1.966558e+09
-3.706862e+10 4.542438e+10 1.516591e+09
5.214138e+10 -1.925571e+09 -7.735962e+08
-3.588494e+10 -3.744287e+09 -1.059775e+09
1.143749e+11 -6.937384e+10 2.602427e+09
5.566356e+10 4.180660e+09 3.787354e+08
-7.171881e+10 5.849346e+09 1.517851e+09
1.144199e+11 1.568154e+11 4.027897e+09
1.885437e+11 -5.938935e+10 -2.102842e+09
2.734861e+10 2.816446e+10 1.045606e+09
-2.401876e+09 -7.709190e+10 1.260668e+09
3.673186e+10 3.233895e+10 4.672803e+09
5.392685e+09 1.777525e+11 1.253805e+09
-7.135055e+10 -6.978571e+10 -8.724431e+08
6.340271e+10 -5.541737e+10 1.467061e+09
7.389730e+10 -1.501984e+10 1.149260e+09
1.504050e+11 4.658064e+10 1.948243e+10
1.062787e+10 4.852310e+10 -4.401890e+09
-1.136293e+11 5.518575e+10 1.919528e+08
-2.372329e+10 1.262619e+11 -1.638699e+09
-1.466914e+11 6.597331e+10 1.222830e+10
-7.749121e+09 -1.084773e+11 1.650117e+08
-1.412643e+11 6.738365e+10 -6.749444e+09
-4.163845e+10 -2.315291e+10 -6.753560e+08
1.258999e+09 -1.332116e+11 3.373520e+09
5.829951e+09 -1.166112e+11 -2.491943e+09
-6.227387e+10 -4.059373e+10 -6.421556e+08
-4.173260e+10 -1.090645e+10 3.991129e+09
-3.567336e+10 2.938799e+10 -2.714234e+08
-3.773621e+10 1.096444e+09 2.833871e+09
5.646465e+10 -1.249318e+11 -5.148814e+09
-6.019314e+10 -1.486048e+11 1.017136e+10
4.006567e+09 -1.661741e+11 1.671636e+09
-8.918332e+10 6.924651e+10 2.556277e+09
1.843425e+10 -3.792011e+10 -3.643335e+09
-2.011671e+10 -4.278745e+10 3.058099e+08
1.078822e+11 -6.930994e+10 -9.172817e+09
-1.017699e+11 -1.004713e+11 -3.398388e+08
1.265003e+11 -1.193158e+11 -6.041870e+09
3.327835e+10 5.112209e+10 -6.237843e+08
6.772315e+10 -5.812981e+09 8.032333e+08
-3.615085e+10 3.109232e+10 -7.558984e+08
3.582845e+10 1.873187e+10 2.558179e+09
-6.095481e+09 -1.590375e+11 1.714658e+09
-1.076959e+11 8.438572e+10 2.723328e+09
1.127522e+11 9.505265e+10 6.130754e+09
-5.773960e+10 -1.257109e+11 2.609386e+07
5.983080e+10 -1.379850e+11 7.386911e+09
1.187944e+11 4.507352e+10 3.563026e+09
7.554042e+10 -3.026931e+10 -3.123687e+08
-3.164161e+10 1.301138e+11 1.396577e+10
4.006575e+10 6.334009e+09 3.657683e+09
-3.786691e+10 5.984971e+09 -4.441525e+09
2.839679e+10 3.621971e+10 -3.758664e+09
-6.120205e+09 -1.654374e+11 2.298192e+09
9.751005e+10 9.642614e+10 7.261726e+09
-6.301910e+09 -9.930308e+10 3.712158e+09
9.191263e+09 -1.010977e+11 6.250501e+08
4.860201e+09 3.760592e+10 -2.108929e+09
5.879262e+10 1.916411e+10 3.209738e+09
-8.198371e+10 -1.654535e+11 -5.448236e+08
8.396500e+10 -1.647080e+11 5.221750e+09
-2.150232e+10 3.719194e+10 -2.402250e+09
-5.096041e+10 -5.316263e+10 -4.240372e+09
4.450455e+10 -5.793630e+10 5.264069e+08
2.002313e+09 -2.013262e+11 -2.164812e+09
6.313758e+10 -1.971758e+10 -2.796416e+07
-1.518546e+11 6.527938e+10 4.932243e+09
2.490256e+09 -4.310596e+10 6.200964e+09
-1.413224e+09 -4.896451e+10 -5.178328e+09
-8.139393e+10 1.093377e+11 -7.272966e+08
4.969457e+10 3.164572e+09 -6.002528e+08
-4.252560e+10 3.667192e+09 1.538956e+09
-1.473445e+10 6.010217e+10 -6.324799e+09
1.500932e+11 -4.073590e+10 2.604540e+09
-1.265719e+11 -5.112920e+10 3.852431e+09
5.042992e+09 -1.370153e+11 8.672313e+08
-1.408649e+11 5.292628e+10 1.233744e+10
-7.362929e+09 -4.981734e+10 -2.343299e+09
6.780546e+09 -3.878820e+10 4.454625e+09
4.196658e+10 -8.693010e+09 5.746855e+09
-7.418731e+10 2.578473e+10 -2.395182e+07
5.374218e+10 5.151215e+10 1.473066e+09
7.212981e+10 1.773213e+10 -2.711855e+09
-5.007788e+10 4.320388e+10 -3.185845e+07
9.431902e+09 5.476716e+10 -9.539062e+08
4.941298e+10 1.148362e+10 -8.987077e+07
8.814131e+09 -1.355575e+11 -3.177041e+09
-1.101709e+11 -1.537380e+10 1.110724e+09
2.979431e+09 -5.498627e+10 9.709757e+07
-1.206570e+09 -5.476185e+10 5.784638e+08
4.703828e+10 -3.091383e+10 7.323817e+08
-5.250248e+10 -3.846048e+10 -4.461652e+09
-1.351887e+10 -5.540044e+10 -6.451934e+08
1.256464e+10 -5.359798e+10 -9.005137e+08
1.287029e+11 -8.838348e+10 -1.869079e+06
-8.582258e+10 -8.458260e+10 5.361290e+09
1.669552e+11 -8.945059e+10 -4.212952e+09
-1.595955e+09 -9.124608e+10 -2.859473e+09
-1.614257e+11 -9.088580e+10 8.763644e+09
4.035885e+10 2.898160e+10 -2.527989e+09
9.893690e+10 7.092184e+10 1.798705e+09
7.237063e+09 1.266355e+11 1.066532e+10
7.612503e+10 -1.925364e+10 1.357192e+09
-1.008892e+11 -1.610223e+10 3.010420e+08
-1.610454e+10 1.782320e+11 1.242916e+10
4.241657e+09 -5.392877e+10 -1.895261e+09
-7.978822e+09 -6.114370e+10 3.001692e+09
-6.705966e+10 3.243477e+10 -1.693813e+07
-6.385981e+08 -5.586333e+10 -5.842059e+08
-4.845552e+10 4.519941e+10 -2.927497e+09
-4.288303e+10 1.811579e+10 1.864740e+09
-8.102337e+10 6.250608e+10 2.445689e+09
-3.419139e+10 -2.210606e+10 3.579432e+09
1.887527e+11 2.786559e+09 -9.486705e+08
-3.543209e+10 -3.581917e+10 -1.245513e+09
3.970271e+10 -3.698330e+10 2.175071e+09
-4.071020e+10 -6.293360e+10 -2.057181e+09
4.017477e+10 -6.050563e+10 -1.927533e+09
6.901254e+10 3.305684e+10 3.581069e+06
-1.104013e+09 -5.873618e+10 -1.015286e+09
-1.104894e+11 -3.725379e+10 -1.847185e+09
-1.548808e+10 1.218777e+11 3.860245e+09
-5.028858e+10 -9.495484e+10 1.493116e+09
6.447670e+10 -9.671288e+10 -2.412962e+09
3.985217e+10 -3.305832e+10 6.482229e+08
-3.883240e+10 -1.374599e+11 1.505803e+09
2.677184e+10 -1.315358e+11 1.167605e+09
-8.125254e+10 3.484748e+09 2.237693e+09
-1.169809e+11 1.496696e+10 2.408054e+09
-7.558195e+10 9.081768e+09 2.505726e+09
2.577961e+06 -4.920825e+10 -1.732087e+07
1.077574e+11 8.537191e+09 -8.584358e+08
-4.021925e+10 -6.058300e+09 -2.098702e+09
5.392586e+10 -7.934911e+09 -8.430195e+07
1.171869e+11 3.511202e+10 -2.437292e+09
-1.984149e+10 6.531313e+10 -2.262829e+09
-1.348486e+11 -7.250498e+10 1.097161e+09
7.555124e+09 7.343154e+10 1.019402e+09
5.044653e+10 6.182344e+09 1.632468e+08
4.295797e+10 -3.695628e+10 -1.689323e+09
1.171822e+11 1.438685e+11 3.063214e+09
-1.551575e+11 2.947390e+10 2.037976e+09
2.312550e+10 1.278630e+11 -3.016827e+09
9.581248e+10 1.117071e+11 -1.527458e+10
1.236511e+10 -9.345343e+10 3.892316e+08
-1.291357e+10 -8.287188e+10 3.730237e+09
-3.065598e+10 -7.655242e+10 -5.789782e+08
3.302026e+10 -7.260718e+10 -5.012161e+08
6.690209e+10 4.790695e+10 -4.338173e+09
3.361937e+10 1.193414e+11 9.604054e+08
4.495062e+10 1.221905e+10 3.291032e+09
3.835192e+10 2.374224e+10 -1.688716e+09
1.752874e+11 2.615389e+10 -1.932598e+10
-2.843279e+10 6.136721e+10 -4.439722e+09
-4.783350e+10 2.770964e+10 1.399141e+08
-7.370578e+10 -7.160597e+10 8.808925e+08
6.671586e+10 -5.254185e+10 3.070673e+09
-4.362517e+10 -3.031027e+10 -7.108779e+08
4.267671e+10 -2.836231e+10 -3.983413e+09
5.056779e+10 -2.285341e+10 -7.768075e+08
-4.815290e+10 -2.456804e+10 -1.890860e+09
-2.202119e+10 3.820833e+10 1.006214e+09
-5.526480e+10 -1.704616e+10 2.439800e+09
6.337209e+10 -4.785844e+10 3.862024e+08
4.101013e+10 -1.303891e+10 6.853820e+07
-4.192581e+10 2.472489e+10 -2.616748e+09
3.935842e+10 2.850507e+10 1.477909e+09
1.871457e+11 2.337215e+10 2.486884e+09
5.909711e+10 -2.796675e+10 -2.580587e+09
-4.852169e+10 -2.188057e+10 -1.635743e+08
-1.201875e+11 -8.577010e+10 -6.143005e+09
2.361984e+10 5.075173e+10 2.107249e+09
3.412197e+10 4.092445e+10 -2.118418e+09
4.985123e+10 4.881800e+09 1.775841e+09
-6.649006e+10 -5.978958e+10 -1.140835e+09
-5.185897e+10 6.453348e+09 -6.289400e+08
-1.655521e+11 1.719141e+10 -6.712614e+08
-4.085381e+10 1.004093e+11 -2.288238e+07
5.586775e+10 1.638661e+11 -8.442646e+09
4.101836e+10 3.801492e+10 2.849940e+09
5.065258e+10 8.917295e+10 1.230149e+09
9.286686e+10 1.653742e+10 -1.381900e+09
3.691518e+10 -2.691029e+10 -5.065487e+09
5.558510e+10 1.243271e+11 2.435859e+09
1.167369e+11 -8.048665e+10 1.329262e+09
-7.197785e+10 -8.763893e+10 -4.307590e+09
-9.508805e+10 -7.702764e+10 -8.101333e+09
6.043058e+10 -3.451174e+10 3.002431e+09
1.510016e+11 3.363807e+10 1.609289e+10
2.130927e+10 1.542083e+11 -1.191356e+09
-1.811005e+11 -3.669267e+10 -1.672247e+09
1.223832e+10 1.015288e+11 -3.265039e+08
-3.147535e+10 1.841206e+10 -1.250604e+09
-1.133629e+10 4.636128e+10 1.409932e+08
-1.231220e+11 2.724298e+10 3.145121e+09
-1.228753e+11 4.311989e+10 -5.446281e+09
7.336026e+10 -8.017098e+10 2.457702e+09
-5.570949e+10 3.865550e+10 -4.545927e+09
1.570876e+10 8.532131e+10 -1.063665e+09
1.323107e+09 6.850022e+10 -7.597242e+08
-3.961354e+10 5.964201e+09 -1.324753e+09
2.923556e+10 1.772461e+10 -1.019713e+09
1.589220e+10 1.828451e+11 -1.256651e+10
1.960945e+10 5.682698e+10 1.215145e+09
-2.577317e+10 -1.179299e+11 2.551902e+08
2.542358e+10 -1.107026e+11 4.831865e+09
3.849345e+10 1.445144e+10 1.345973e+09
1.341693e+10 4.217629e+10 -1.207159e+09
-5.575441e+10 2.057809e+10 -3.551856e+09
-1.316678e+10 5.549775e+10 4.832016e+09
7.378248e+10 7.850651e+10 3.356618e+09
-8.103002e+10 3.957449e+10 3.930484e+08
-6.609916e+10 -3.832014e+09 -1.922357e+09
-9.894882e+10 6.164685e+10 1.553247e+10
-4.499580e+10 -6.341487e+09 -1.116597e+09
-2.541569e+10 -3.708397e+10 4.503414e+09
2.815138e+10 -4.068260e+10 -3.848233e+09
-1.591222e+11 2.079480e+10 -4.369441e+09
-1.711487e+10 4.858975e+10 1.164597e+09
-1.392347e+10 8.646638e+10 5.709103e+09
-1.169454e+10 4.674707e+10 1.587208e+09
7.193976e+10 -4.987818e+10 -1.623354e+08
5.057868e+10 -6.783335e+10 -8.865831e+07
-5.454078e+10 -6.106330e+10 2.091779e+09
-2.023558e+10 2.713863e+10 1.278912e+09
-8.111177e+10 1.790378e+11 7.609698e+09
8.227020e+10 3.566449e+10 8.733422e+08
-1.241108e+11 -1.109066e+11 -1.156020e+10
9.980832e+10 -9.666140e+10 7.155678e+09
-9.300926e+10 1.091700e+11 5.275018e+09
2.805819e+10 -5.287017e+10 -1.579887e+09
-2.637114e+10 -4.561489e+10 3.486576e+09
-6.316750e+09 3.916714e+10 -8.437687e+08
1.603289e+10 6.898336e+10 1.288884e+09
-4.630770e+09 5.899963e+10 -2.620459e+09
-9.863556e+10 -2.778864e+10 1.632918e+09
3.570105e+10 -1.959692e+11 -5.554413e+09
-2.670674e+10 -2.014172e+11 5.504639e+09
-8.834874e+09 -5.162187e+10 7.225864e+08
7.921101e+09 -6.617220e+10 2.365289e+09
9.405558e+10 1.141804e+11 4.149776e+09
8.118952e+10 1.116807e+11 -4.392037e+09
-2.849337e+10 1.804168e+11 7.002145e+09
-5.914611e+09 -7.992412e+08 -5.534802e+07
5.228748e+09 -4.443176e+09 -2.689983e+08
-5.555876e+09 -3.665902e+09 -1.280524e+08
5.971119e+09 2.595121e+09 2.157322e+08
6.699103e+09 -1.255567e+09 -6.174473e+08
3.121408e+09 6.676333e+09 2.580269e+08
-2.573881e+09 5.712970e+09 6.980561e+07
-5.907698e+09 4.804499e+09 5.582588e+08
2.607194e+10 -5.006443e+10 8.528863e+08
-4.766015e+09 -5.531191e+09 4.337197e+07
5.849636e+09 -2.605204e+09 1.338161e+08
4.155570e+08 5.528791e+09 -1.663152e+08
8.336107e+08 -5.928544e+09 1.538434e+08
6.698698e+09 1.541792e+09 -1.134418e+08
4.864580e+09 4.506602e+09 8.563445e+07
-1.162905e+09 -6.150610e+09 2.063944e+08
-6.901860e+09 2.116717e+09 -4.233434e+08
-1.433025e+09 7.096732e+09 -2.631920e+08
4.318687e+09 -6.401552e+09 -1.167760e+08
-2.361529e+10 -6.197329e+10 -5.746815e+09
-4.319920e+09 4.392618e+09 -1.188850e+08
3.176464e+09 -6.582952e+09 2.203570e+07
-5.556136e+08 -6.627633e+09 1.117912e+08
-6.188068e+09 3.313824e+08 -1.292129e+08
-7.413866e+09 -3.137338e+09 7.216290e+07
1.463833e+09 6.371443e+09 -2.763443e+08
4.141276e+09 5.140943e+09 -3.913326e+07
-5.249573e+09 2.436723e+09 2.263540e+07
1.632010e+09 2.425717e+09 1.016818e+09
1.165771e+09 6.117010e+08 -5.051545e+08
2.554446e+10 -6.129983e+10 3.754277e+09
-1.536397e+10 -8.074410e+08 -4.808683e+08
-1.759653e+10 -6.978177e+09 2.651159e+08
-3.144889e+10 -2.627086e+10 2.318319e+08
-3.243903e+10 9.942080e+09 -4.518100e+07
-2.119972e+10 5.888560e+10 4.815253e+09
3.091172e+10 1.575340e+10 1.103545e+09
-2.411592e+10 -1.734631e+10 9.166921e+08
-3.111512e+10 -1.931109e+09 -4.208237e+09
-2.480308e+09 -1.490337e+10 9.294205e+08
3.540461e+10 -1.488906e+10 -2.809785e+08
-1.677791e+10 -5.234207e+10 7.148352e+08
-3.325403e+10 9.306723e+09 3.880330e+07
-1.290049e+10 1.277613e+10 1.410174e+08
-1.993634e+10 -3.019633e+10 -4.813443e+08
2.127125e+10 -1.877795e+10 8.561039e+08
1.241569e+10 5.496817e+10 -1.555650e+09
-1.209273e+10 -8.320836e+09 -3.153891e+08
1.856604e+09 -1.744378e+10 4.554628e+08
1.408351e+10 -2.034748e+10 -6.556613e+08
1.521101e+10 -4.616912e+10 -1.322514e+09
-6.898375e+09 2.097697e+10 -7.303261e+08
-1.685537e+11 -3.316668e+10 5.528324e+09
1.767102e+10 -1.456397e+10 -3.018029e+08
5.253287e+10 -4.691849e+10 -1.208456e+09
1.127894e+10 1.117239e+10 -1.798836e+08
-7.096265e+10 3.728068e+10 -4.061301e+09
-1.818147e+10 3.266426e+10 -4.080698e+08
-1.008498e+10 1.717445e+10 5.660900e+08
-1.986828e+10 1.727715e+10 1.784715e+09
-6.529345e+10 1.726197e+10 -1.298485e+09
1.942213e+09 4.456309e+09 8.425578e+08
5.533428e+08 -2.939839e+10 5.539990e+07
1.386710e+11 -4.308275e+10 3.323986e+09
-1.222183e+10 6.657607e+09 -7.343919e+08
3.094884e+09 -5.900040e+10 -1.955736e+08
5.202876e+10 6.119454e+08 -8.506929e+08
-4.206779e+10 -1.795376e+10 2.535768e+08
-5.937842e+09 1.942975e+10 -2.573793e+08
6.984395e+10 -3.693243e+10 1.163181e+09
2.396254e+10 5.803630e+09 1.205211e+09
4.849860e+10 1.118124e+10 -4.533898e+09
9.984307e+09 -1.617424e+10 -3.013910e+08
4.967565e+10 5.149533e+10 8.195832e+08
-1.859364e+10 1.484072e+11 -6.138906e+09
-1.677231e+10 -1.869273e+10 6.597898e+08
4.554761e+10 -5.892296e+09 7.322202e+07
4.986522e+10 5.100687e+08 3.099660e+08
1.453987e+10 2.201137e+10 5.931575e+08
5.530869e+09 2.542483e+10 1.342104e+09
-5.449413e+09 -4.219999e+10 1.202088e+09
-2.225459e+10 -5.991642e+10 1.458581e+09
2.261061e+10 -1.511078e+10 -5.514796e+07
1.078902e+10 -3.408506e+10 2.766608e+08
-1.841487e+10 3.085463e+10 6.894375e+08
2.226183e+08 9.101453e+10 1.855273e+09
-1.367043e+09 1.801855e+10 -8.425742e+08
-2.411069e+09 -7.107268e+09 -4.784356e+08
3.811887e+10 -5.948005e+10 1.381495e+09
1.387239e+10 2.888508e+10 -1.194523e+09
9.933358e+09 2.145182e+10 -4.405657e+09
3.492076e+10 5.443446e+10 3.545888e+09
-2.542585e+09 4.567787e+10 2.931274e+09
-1.754848e+10 1.044945e+10 -6.881009e+08
3.170644e+09 -1.231653e+10 -1.357233e+08
-3.594527e+10 3.543011e+10 1.632308e+09
2.776912e+10 9.732361e+10 -3.446245e+08
-1.650112e+10 -5.608153e+09 -8.142473e+08
7.110187e+09 3.951973e+10 -3.738559e+08
-2.106061e+10 -1.112401e+09 -5.336542e+08
7.538210e+10 -1.306102e+10 -3.163139e+08
1.160296e+10 1.944018e+10 -1.041939e+08
2.028566e+09 6.387495e+10 -2.743074e+09
-4.635474e+10 -5.160726e+10 9.502567e+07
4.127968e+10 1.088784e+10 2.751629e+08
-8.330291e+09 -2.204427e+10 5.519864e+08
2.001199e+10 9.181617e+09 7.060926e+08
7.774010e+10 -1.137143e+11 -1.850397e+08
-3.313539e+09 -3.402394e+10 2.137239e+08
-9.908313e+09 -1.605677e+10 8.644356e+08
7.522403e+10 2.967802e+10 3.192768e+09
1.887183e+10 9.834426e+08 -1.517546e+08
2.193202e+10 1.548010e+10 3.973295e+08
-4.398894e+10 2.898990e+10 -6.926620e+08
2.146605e+10 -3.767708e+09 5.863441e+08
3.350475e+10 3.411828e+10 2.753141e+08
-1.017842e+10 -5.738840e+10 4.191786e+08
-4.222664e+10 2.628530e+09 -1.813048e+08
-8.020696e+10 -1.337807e+11 7.099490e+08
-5.089938e+10 2.448301e+10 1.955667e+08
-1.501157e+10 -1.838345e+10 -6.222738e+08
-3.923086e+10 -6.072152e+10 3.036834e+09
1.827898e+10 -6.786192e+09 -1.318106e+09
1.895394e+10 2.040227e+10 1.138570e+09
7.448275e+10 1.863075e+10 3.972792e+09
5.290216e+10 -5.369129e+10 -6.765846e+08
4.816040e+10 3.538426e+10 -2.915447e+08
-2.182513e+10 4.255323e+09 -2.493082e+08
5.245938e+10 2.618821e+10 1.032786e+09
-7.611175e+10 -2.102273e+10 3.854184e+09
-6.069744e+10 -2.836895e+10 6.338681e+09
3.232973e+10 4.185766e+10 -2.787467e+09
3.368150e+10 -1.565305e+10 -3.202088e+09
1.558209e+10 -9.780791e+09 -7.907241e+08
2.044019e+10 1.626538e+10 -8.738195e+07
-3.498632e+10 6.070849e+09 -3.758467e+08
9.512037e+09 1.581897e+10 -8.774916e+08
-4.110198e+09 2.369708e+10 1.497617e+09
-6.301135e+10 -1.513728e+10 -1.034829e+09
-4.200308e+10 -2.672528e+09 -8.836369e+08
8.811132e+10 -2.288712e+10 -3.864157e+08
-2.063405e+10 -9.797129e+09 7.102710e+08
-2.909146e+10 -1.341789e+10 -6.628083e+08
4.552613e+10 2.721509e+10 9.390761e+07
3.648608e+10 -2.360180e+10 -8.779181e+08
-2.089859e+10 2.292200e+10 -1.181932e+09
-5.671693e+10 -4.786822e+10 -2.977828e+08
-2.267451e+10 -5.048149e+09 4.122256e+08
-7.183304e+08 -3.247122e+10 -5.783035e+08
6.453909e+09 1.588430e+10 -6.406608e+08
-4.242190e+10 -4.071918e+10 -1.785841e+09
6.153040e+10 1.402802e+11 -2.715408e+09
-6.895276e+10 2.748755e+10 -1.354079e+08
3.816223e+10 -7.631061e+10 -1.566584e+08
-2.467310e+10 1.354080e+10 1.421659e+09
3.092589e+10 -1.080219e+10 -5.604755e+07
3.448745e+10 -4.194717e+10 2.308146e+09
-1.650927e+10 6.390945e+10 -5.712391e+08
-2.148162e+10 5.947800e+10 6.068610e+08
5.183027e+09 -2.318080e+10 7.890930e+08
7.818601e+09 -2.676018e+10 -2.082345e+08
-6.401227e+10 1.236993e+10 2.225536e+09
7.296882e+10 6.375614e+10 2.843984e+08
-6.297934e+10 2.374321e+10 3.711628e+09
1.228076e+10 -5.162950e+10 -1.229566e+09
-4.249473e+10 3.025049e+10 5.940150e+08
4.790785e+10 2.979162e+10 -2.656493e+08
2.337312e+10 -1.796390e+10 -8.473710e+07
-2.498787e+10 9.701721e+08 -3.332181e+06
-3.206780e+10 -1.806781e+10 -2.039801e+08
1.038352e+09 6.976305e+10 -3.429266e+08
-2.171383e+10 -5.999230e+10 8.418379e+08
-6.001685e+10 1.188988e+10 -1.485564e+08
3.837295e+10 -1.072311e+11 1.238700e+09
-4.125242e+10 8.831603e+10 2.198431e+09
4.250927e+10 8.550149e+09 -2.578101e+08
-1.337688e+10 -2.384351e+10 3.537350e+08
-2.302185e+10 -2.073659e+10 7.391595e+08
4.679878e+10 4.788434e+10 4.007583e+08
-2.755907e+10 -4.207445e+09 2.909304e+08
-2.566604e+10 1.162750e+10 -2.977763e+08
-6.048548e+08 2.345325e+10 2.059858e+08
3.085726e+10 -7.291951e+09 3.699627e+08
-3.116692e+10 2.415329e+10 -1.115679e+09
-6.515569e+10 -1.228885e+11 -9.677613e+08
-1.902694e+10 4.691131e+10 -8.933856e+08
3.839475e+10 -2.863419e+10 -3.141813e+09
6.090235e+09 2.777050e+10 2.107214e+08
-4.067097e+10 -4.025960e+10 -3.314511e+08
2.858351e+10 4.453257e+09 3.292851e+07
1.660110e+10 -2.328688e+10 5.410708e+08
-1.017857e+10 2.355129e+10 -1.253811e+09
-3.808945e+09 -3.838040e+10 -4.446389e+08
-1.840377e+10 -3.703438e+10 -9.939711e+08
-2.293291e+10 -1.385837e+10 9.034211e+08
-9.399971e+10 5.547896e+10 -2.598869e+09
-7.670507e+10 -4.553861e+10 -1.131400e+09
2.586173e+10 -5.065234e+10 -5.109683e+08
-2.940092e+10 3.512189e+10 6.787439e+08
1.600162e+10 6.006287e+10 -2.377591e+09
4.990097e+10 4.520295e+09 -1.370791e+08
2.216991e+10 1.744610e+08 1.010385e+09
7.363702e+07 -2.887135e+10 8.310151e+07
9.163011e+09 -2.223676e+10 1.832084e+09
2.191117e+10 1.276868e+10 2.617891e+08
-7.243503e+10 5.542920e+10 2.020803e+09
-9.678349e+10 4.599196e+10 -2.676474e+06
1.084082e+10 -1.923639e+10 1.786701e+08
6.251461e+10 4.080276e+10 6.568471e+08
-5.078340e+10 -1.274599e+10 -7.056689e+08
-2.033084e+10 -1.574544e+10 -8.000437e+08
-1.661609e+10 -3.903479e+10 -5.537259e+08
2.558711e+10 8.394319e+10 6.867295e+08
-6.575689e+09 2.620493e+10 2.064051e+08
-4.038424e+09 4.101637e+10 9.134013e+08
-3.578466e+10 4.787267e+10 1.086513e+09
4.398802e+10 -5.729013e+10 1.336588e+09
-1.135616e+11 1.466677e+10 3.505958e+09
2.157904e+10 -1.037893e+11 4.791285e+09
-6.724043e+10 -1.663681e+10 1.891134e+09
-1.025854e+10 -2.267134e+10 3.579809e+08
3.058193e+10 -1.917565e+10 -4.026793e+08
-3.707391e+10 -2.388266e+10 1.343178e+09
-3.798491e+10 1.913796e+10 6.236342e+08
-7.031023e+09 -2.600350e+10 1.341889e+08
8.617077e+10 7.546624e+09 -3.838483e+08
-1.240898e+10 2.649339e+10 4.255984e+08
7.732421e+10 -2.054149e+10 -3.092044e+09
7.718988e+10 4.591918e+10 -1.556089e+09
-7.510901e+10 9.580460e+09 3.412894e+09
-5.058936e+10 7.065529e+10 9.270239e+08
6.140772e+09 5.270889e+10 -1.260645e+09
1.215179e+10 -3.266433e+10 -4.186625e+06
-1.499221e+10 -8.995734e+10 -1.860065e+08
-6.970663e+09 7.307886e+10 2.162815e+09
3.617857e+10 -7.885274e+10 2.425305e+08
-1.462828e+10 1.880206e+10 -1.372239e+08
5.458209e+10 -6.225819e+09 -1.143962e+09
2.624307e+10 9.514325e+09 -1.679548e+08
1.074191e+11 1.648507e+10 1.501665e+09
2.653880e+10 -7.389151e+09 -5.874548e+07
-8.605276e+10 3.853821e+10 -1.334185e+09
2.661294e+09 2.005600e+10 -1.679592e+09
2.796886e+09 4.409769e+10 3.531486e+08
9.739153e+09 3.251557e+10 7.993004e+07
1.249253e+10 -5.832826e+10 4.958668e+08
2.831566e+10 -3.711513e+10 -8.308137e+08