# vtk DataFile Version 2.0
Electric current density generated by TTH
ASCII
DATASET UNSTRUCTURED_GRID
POINTS 2094 double
-1.301865e-05 -1.460806e-05 -4.651196e-22
1.589975e-05 -9.132846e-07 7.551779e-07
1.589975e-05 9.132846e-07 7.551779e-07
-1.028602e-05 -1.528535e-05 -1.742168e-06
5.497064e-06 -1.733038e-05 -1.828402e-06
-8.901275e-06 -1.523929e-05 -1.898891e-06
8.897940e-06 -1.720832e-05 8.375607e-07
1.304288e-05 -1.185982e-05 -1.898582e-06
8.842739e-06 1.725988e-05 -7.943202e-07
-1.635536e-06 1.678442e-05 1.720201e-06
-1.603957e-05 -2.109377e-06 1.176481e-06
-1.225577e-05 -1.525374e-05 -4.651196e-22
-8.061317e-06 -1.609193e-05 1.870128e-06
1.019542e-05 1.642204e-05 -9.201659e-07
-1.242641e-05 9.708592e-06 3.693540e-09
-1.928809e-05 -1.977465e-06 -8.030268e-07
-1.574235e-05 9.881777e-06 -1.662082e-06
-8.314316e-06 -1.352341e-05 6.241226e-07
-4.435114e-06 1.789830e-05 1.735317e-06
-1.014081e-06 -1.800206e-05 1.864123e-06
-1.396129e-05 -1.344860e-05 8.117202e-07
-1.811409e-05 -2.271990e-07 1.845595e-06
-1.146092e-05 -1.585963e-05 -4.651196e-22
1.410045e-05 1.324724e-05 8.875801e-07
-1.740552e-05 -6.536166e-06 1.659061e-06
-7.150086e-07 1.814103e-05 1.835547e-06
-8.785822e-06 -1.722049e-05 9.152002e-07
1.206369e-05 1.054491e-05 -9.476900e-07
-6.958848e-06 -1.428096e-05 6.558590e-07
-1.506276e-05 4.851933e-06 4.560525e-07
9.765271e-06 1.258358e-05 7.602884e-07
-5.474197e-06 -1.774635e-05 1.670485e-06
4.294945e-06 1.577842e-05 1.369240e-06
-1.063617e-05 -1.642415e-05 -4.651196e-22
-1.483744e-06 -1.639169e-05 1.463886e-06
-1.575295e-05 -9.478839e-07 -2.140009e-07
8.354438e-06 -1.650417e-05 1.708063e-06
1.152448e-05 -1.096150e-05 -7.047627e-07
-1.517585e-05 -1.197081e-05 9.212541e-07
-1.376941e-05 -1.038877e-05 -1.852084e-06
-1.691068e-06 -1.931808e-05 7.970865e-07
-1.336168e-05 8.822932e-06 9.285185e-07
-1.110455e-05 -1.119708e-05 -3.988842e-08
1.033111e-05 1.276351e-05 1.431625e-06
-9.783668e-06 -1.694581e-05 -4.651196e-22
-7.419826e-07 -1.700851e-05 1.786588e-06
-7.098392e-06 1.538997e-05 1.757111e-06
-5.803293e-06 -1.847354e-05 -8.556885e-07
1.090469e-05 -1.459989e-05 1.816258e-06
-9.592024e-06 -1.678563e-05 9.138650e-07
-1.576146e-05 9.176279e-06 1.811512e-06
8.964510e-07 1.872814e-05 1.561120e-06
-3.166896e-06 1.571794e-05 9.666829e-07
-1.783189e-05 -7.601405e-06 8.130744e-07
-1.625170e-05 5.575959e-06 -1.835568e-06
-8.905643e-06 -1.742327e-05 -4.651196e-22
3.438386e-06 1.792814e-05 1.806144e-06
1.239134e-06 -1.934174e-05 8.195418e-07
1.352255e-05 -8.986533e-06 -1.247161e-06
-5.958383e-06 1.468240e-05 5.318799e-07
1.649423e-05 -3.986311e-06 1.765571e-06
1.649423e-05 3.986311e-06 1.765571e-06
1.127502e-05 -1.576937e-05 8.108234e-07
-1.261463e-05 -1.344742e-05 -1.736008e-06
1.253393e-05 -1.214393e-05 1.886638e-06
1.405564e-05 -1.330216e-05 -8.779105e-07
-8.004384e-06 -1.785527e-05 -4.651196e-22
1.032425e-05 1.360634e-05 1.805521e-06
1.895813e-05 -3.954956e-06 8.504355e-07
1.895813e-05 3.954956e-06 8.504355e-07
1.874161e-05 -4.777533e-06 -8.991817e-07
1.874161e-05 4.777533e-06 -8.991817e-07
1.597744e-05 3.669303e-06 -1.407340e-06
1.596557e-05 -3.653698e-06 -1.393555e-06
-1.562276e-05 -9.405404e-06 1.812334e-06
-1.105528e-05 1.595873e-05 -7.477514e-07
-1.636305e-05 -3.460652e-06 1.648114e-06
-7.082242e-06 -1.824068e-05 -4.651196e-22
-4.908516e-06 -1.519419e-05 -8.443171e-07
-1.419938e-05 -1.313089e-05 -9.006319e-07
-1.842991e-05 -1.093816e-06 -1.725035e-06
-1.837034e-05 1.875452e-06 -1.723425e-06
-1.493287e-05 6.717375e-06 -1.389720e-06
-1.899554e-05 -3.847519e-06 -8.197787e-07
1.056494e-05 -1.172250e-05 2.086241e-07
7.338128e-06 -1.681299e-05 -1.774498e-06
-7.286372e-06 -1.716674e-05 1.626144e-06
9.010111e-06 -1.574708e-05 1.838829e-06
-6.141624e-06 -1.857851e-05 -4.651196e-22
1.037052e-05 1.542835e-05 1.660437e-06
6.121681e-06 -1.665195e-05 1.897584e-06
6.067173e-06 1.842515e-05 -7.830551e-07
-1.778247e-05 -5.253395e-06 1.685970e-06
1.544161e-05 7.649471e-06 -1.848293e-06
2.882338e-07 1.862207e-05 -1.640829e-06
-1.566192e-06 -1.819085e-05 -1.805079e-06
-1.252993e-05 -1.105327e-05 -1.638561e-06
1.734218e-05 -8.592858e-06 8.739478e-07
-1.615588e-05 -7.358678e-06 -1.897115e-06
-5.184982e-06 -1.886787e-05 -4.651196e-22
1.560473e-05 -1.152990e-05 -7.744992e-07
-8.274731e-06 -1.751982e-05 -8.314679e-07
-8.522659e-07 -1.937051e-05 -8.029139e-07
-1.544882e-05 -5.080236e-06 1.276838e-06
-1.850692e-05 5.856871e-06 -7.532176e-07
2.529449e-06 -1.617081e-05 1.383422e-06
-1.642029e-05 1.035251e-05 7.537427e-07
-7.394336e-06 -1.639137e-05 -1.872909e-06
-1.705364e-05 -9.164192e-06 8.628639e-07
-1.003052e-05 1.659594e-05 7.977099e-07
-4.214814e-06 -1.910801e-05 -4.651196e-22
1.446208e-05 7.165198e-06 -1.126767e-06
1.353759e-07 1.727138e-05 1.857154e-06
-1.791094e-05 -4.684724e-06 -1.700574e-06
-1.272781e-05 -1.348731e-05 1.684706e-06
-6.831150e-06 1.562499e-05 -1.796536e-06
-1.156558e-05 -1.553330e-05 -8.507469e-07
1.563152e-05 4.855382e-06 1.384167e-06
-1.781400e-05 7.714211e-06 -7.509027e-07
-1.574150e-05 2.513425e-06 -7.887462e-07
1.926505e-05 -2.039735e-06 8.374084e-07
-3.233650e-06 -1.929829e-05 -4.651196e-22
1.926505e-05 2.039735e-06 8.374084e-07
1.292872e-05 -1.070159e-05 -1.680091e-06
1.693465e-07 -1.606955e-05 -1.026114e-06
3.725750e-06 -1.708119e-05 1.889909e-06
-9.960583e-06 -1.284156e-05 1.264681e-06
1.534006e-05 -8.009141e-06 -1.863916e-06
-7.031308e-06 1.717618e-05 1.676828e-06
-1.268072e-05 1.050347e-05 -1.469747e-06
-3.998112e-06 1.585453e-05 -1.367643e-06
-9.696547e-06 1.320647e-05 1.398755e-06
-2.244049e-06 -1.943823e-05 -4.651196e-22
-1.518545e-05 -6.557930e-06 -1.528153e-06
-1.649898e-05 3.832055e-06 1.752998e-06
1.841767e-05 1.871900e-06 -1.701027e-06
1.841767e-05 -1.871900e-06 -1.701027e-06
6.807011e-06 1.465140e-05 1.147770e-06
-1.226323e-05 -9.996654e-06 4.420141e-07
1.733077e-05 8.617432e-06 8.725784e-07
-1.324501e-05 9.033946e-06 -9.645425e-07
1.405127e-05 -1.039958e-05 -1.889743e-06
1.656097e-05 1.011895e-05 7.621122e-07
-1.248594e-06 -1.952746e-05 -4.651196e-22
1.436005e-05 9.610376e-06 -1.858693e-06
1.927103e-05 1.877997e-06 -8.582551e-07
1.927103e-05 -1.877997e-06 -8.582551e-07
1.216301e-05 1.513829e-05 -7.352194e-07
9.846531e-07 -1.623150e-05 1.275354e-06
1.308590e-05 9.341750e-06 -1.038112e-06
-4.589716e-06 -1.885287e-05 -7.715966e-07
-1.596761e-05 6.471443e-06 -1.847513e-06
-1.523087e-05 -5.326230e-06 -1.120707e-06
1.466461e-05 -9.098613e-06 1.854111e-06
-2.498818e-07 -1.956574e-05 -4.651196e-22
1.529752e-05 1.028840e-05 1.737168e-06
1.717168e-06 1.663945e-05 1.649728e-06
5.489193e-06 1.573028e-05 -1.609496e-06
-1.284893e-05 1.324250e-05 1.729973e-06
1.503534e-05 -4.765948e-06 -1.114859e-07
9.492470e-06 1.406516e-05 1.765401e-06
5.876196e-06 -1.465670e-05 2.844500e-07
-2.930843e-08 -1.857831e-05 1.666761e-06
4.472832e-06 1.811427e-05 -1.620534e-06
8.790842e-06 -1.729734e-05 -7.727297e-07
7.494825e-07 -1.955298e-05 -4.651196e-22
-1.867251e-05 -8.331384e-08 -1.611662e-06
-1.700362e-05 -9.374079e-06 -7.419518e-07
1.072927e-05 1.504417e-05 -1.717642e-06
-1.477644e-05 6.041686e-06 -8.372315e-07
-3.814169e-06 -1.711977e-05 -1.894620e-06
-1.940807e-05 -2.477998e-09 7.612666e-07
-1.653551e-05 -5.741849e-06 -1.891875e-06
-5.616745e-06 1.527243e-05 -1.287586e-06
-1.081123e-05 -1.607609e-05 8.363158e-07
-1.126936e-05 1.141245e-05 9.750498e-07
1.746891e-06 -1.948920e-05 -4.651196e-22
-1.541944e-05 1.180153e-05 7.395824e-07
9.669532e-06 -1.682967e-05 7.574617e-07
5.924962e-06 -1.471308e-05 -5.836676e-07
1.275291e-05 1.046707e-05 -1.495778e-06
-4.501881e-07 -1.581601e-05 4.457878e-07
1.295006e-05 1.077891e-05 1.713147e-06
-8.353781e-06 -1.382493e-05 -1.144315e-06
1.412499e-05 1.077695e-05 1.896443e-06
5.332731e-06 1.866841e-05 7.448972e-07
-1.006495e-05 -1.214013e-05 -4.062407e-08
2.739743e-06 -1.937458e-05 -4.651196e-22
-1.193827e-05 -1.419119e-05 -1.684603e-06
5.659814e-06 1.739033e-05 -1.794994e-06
1.764066e-06 1.571401e-05 -4.035261e-07
2.809429e-06 1.860672e-05 -1.511736e-06
-1.202061e-05 1.213604e-05 -1.806055e-06
1.465166e-05 9.078660e-06 1.849217e-06
1.267650e-05 1.323662e-05 -1.780878e-06
-1.133378e-05 1.458409e-05 -1.721370e-06
-1.513140e-05 9.301285e-06 -1.896705e-06
5.226913e-06 -1.869609e-05 7.499100e-07
3.725447e-06 -1.920942e-05 -4.651196e-22
5.148509e-06 -1.873515e-05 -7.098118e-07
-1.125194e-06 -1.579156e-05 -4.822191e-07
-1.387831e-05 -1.216145e-05 -1.729363e-06
-1.648857e-05 -2.641786e-06 1.632880e-06
-6.404420e-06 -1.830645e-05 7.917841e-07
-1.687174e-05 9.577109e-06 -7.784929e-07
-3.842163e-07 -1.842722e-05 -1.739020e-06
1.582572e-05 -4.903678e-06 1.547734e-06
1.347495e-05 1.299929e-05 1.579112e-06
1.239844e-06 1.939061e-05 -7.085321e-07
4.701432e-06 -1.899414e-05 -4.651196e-22
-1.539376e-05 6.367921e-06 1.608467e-06
-1.639501e-05 3.600510e-07 -1.412395e-06
4.153984e-06 1.641706e-05 -1.751449e-06
1.764749e-05 8.093037e-06 -7.458960e-07
1.764749e-05 -8.093037e-06 -7.458960e-07
-1.456642e-05 -6.066153e-06 -1.918897e-07
-1.009481e-05 -1.245155e-05 -9.594327e-07
-9.246875e-06 1.462997e-05 -1.864347e-06
-1.864987e-05 5.256176e-06 8.298746e-07
-1.122510e-05 1.260035e-05 1.725421e-06
5.665151e-06 -1.872930e-05 -4.651196e-22
-7.621107e-06 -1.381947e-05 2.154387e-07
-1.510063e-05 5.236350e-06 -8.746268e-07
1.267038e-05 1.182748e-05 1.869125e-06
1.088835e-05 -1.209728e-05 -1.291084e-06
1.416502e-05 -1.180193e-05 -1.736349e-06
-1.347098e-05 -9.462016e-06 1.466595e-06
1.430826e-05 1.167238e-05 1.723627e-06
4.153546e-06 -1.630897e-05 -1.703716e-06
-1.200444e-05 1.108959e-05 1.359776e-06
-4.651203e-06 -1.883693e-05 7.734894e-07
6.614090e-06 -1.841560e-05 -4.651196e-22
1.578324e-05 1.925785e-06 6.929501e-07
1.578327e-05 -1.925519e-06 6.929528e-07
-1.484976e-05 1.082706e-05 1.761521e-06
1.556973e-05 -9.639237e-06 -1.786565e-06
1.394496e-05 -1.059826e-05 1.892816e-06
8.517222e-06 1.676102e-05 -1.524281e-06
-8.351272e-06 1.645017e-05 -1.731280e-06
-1.859322e-06 1.826951e-05 1.767035e-06
1.500433e-05 4.853957e-06 -4.733045e-08
1.198730e-05 -1.526385e-05 -7.608342e-07
[...]
POINT_DATA 2094
VECTORS 10.000GHz_fone_imag double
-1.943680e+10 1.706760e+10 9.291224e+08
-5.024746e+09 -5.044248e+10 -4.461686e+09
3.257204e+09 -5.884068e+10 3.991854e+09
-2.674323e+10 2.170041e+10 -2.895910e+09
-4.041684e+10 -1.248035e+10 5.221547e+08
-3.462395e+10 1.925427e+10 3.021467e+09
-2.260918e+10 -1.223809e+10 8.283942e+08
-3.043611e+10 -3.037980e+10 4.904124e+08
3.498552e+10 -1.725193e+10 2.189909e+09
5.843562e+10 5.945423e+09 -1.498703e+08
-5.782020e+09 4.756263e+10 -6.076219e+08
-1.841947e+10 1.467452e+10 4.560187e+08
-2.897829e+10 2.085322e+10 7.273100e+08
2.090702e+10 -1.161202e+10 9.302384e+07
2.894908e+10 3.420423e+10 1.072225e+09
-5.290774e+09 2.991455e+10 2.819699e+09
1.674183e+10 2.704729e+10 -6.514877e+08
-4.465221e+10 2.727033e+10 -1.392767e+09
3.089849e+10 7.135559e+09 3.346140e+08
-3.035463e+10 8.394744e+08 -2.633863e+08
-2.556620e+10 2.545337e+10 -1.142055e+09
-1.400933e+08 3.515551e+10 -1.483298e+09
-2.735856e+10 1.988180e+10 -4.490708e+08
2.164456e+10 -2.136207e+10 -2.092605e+09
-1.499610e+10 4.169968e+10 8.229527e+08
4.298543e+10 5.276109e+09 -1.765322e+09
-2.926533e+10 1.304704e+10 -5.678630e+08
3.891366e+10 -4.151731e+10 -3.953370e+09
-5.374891e+10 2.853437e+10 -3.352074e+09
2.337510e+10 6.849566e+10 -2.758963e+09
4.075213e+10 -3.021225e+10 1.984774e+09
-3.354320e+10 1.049020e+10 -1.095991e+09
3.795041e+10 -8.811028e+09 -1.825503e+08
-2.857654e+10 1.934032e+10 -9.923727e+08
-5.185915e+10 5.049760e+09 3.225737e+09
-3.913423e+09 5.937272e+10 4.547645e+09
-3.297483e+10 -1.940004e+10 -1.167462e+09
-4.054043e+10 -3.899660e+10 -2.901785e+09
-1.440425e+10 1.843269e+10 5.777060e+08
-2.089753e+10 2.866892e+10 1.649925e+09
-2.446056e+10 2.173951e+09 1.144027e+09
3.589902e+10 5.307389e+10 4.818874e+08
-4.337927e+10 4.113085e+10 -1.968771e+09
5.054628e+10 -4.220998e+10 -6.784420e+07
-3.341806e+10 1.903042e+10 1.021036e+08
-4.820689e+10 2.036384e+08 -1.585318e+09
4.162978e+10 1.737909e+10 4.751650e+08
-3.069465e+10 9.161828e+09 1.003658e+09
-2.703777e+10 -1.990546e+10 7.439350e+08
-3.395981e+10 1.766716e+10 -1.428079e+09
2.291081e+10 3.730576e+10 3.670635e+08
3.933469e+10 -1.254196e+09 -1.717753e+08
6.096398e+10 1.170647e+10 -5.708939e+08
-1.104984e+10 2.635462e+10 3.020665e+09
1.289955e+10 3.989003e+10 -1.641589e+08
-2.572962e+10 1.201393e+10 9.358479e+08
3.490883e+10 -3.682062e+09 2.487674e+08
-3.483612e+10 -2.587600e+09 1.828727e+08
-3.407561e+10 -4.591611e+10 2.886885e+09
4.655866e+10 2.253363e+10 1.282045e+09
-8.983771e+09 -3.522298e+10 2.770618e+08
8.914497e+09 -3.464212e+10 8.773918e+08
-3.119477e+10 -2.222435e+10 -7.846281e+08
-2.326526e+10 2.247565e+10 -7.361112e+07
-3.163369e+10 -3.418826e+10 2.125142e+09
-1.929577e+10 -2.228536e+10 -1.063043e+09
-2.212309e+10 9.478422e+09 -2.276994e+08
4.023303e+10 -3.583913e+10 -9.318958e+08
-5.592329e+09 -3.072794e+10 1.062709e+09
4.626305e+09 -2.410730e+10 -2.126748e+09
-4.637048e+09 -2.966609e+10 1.858193e+09
6.058502e+09 -3.121350e+10 -2.385230e+09
8.996369e+09 -5.475791e+10 3.366651e+09
-1.069050e+10 -4.514569e+10 1.154050e+09
-1.390757e+10 2.339001e+10 8.928926e+08
2.939920e+10 2.037622e+10 5.283964e+08
-1.044708e+10 5.357602e+10 2.370031e+09
-2.421762e+10 9.999154e+09 2.027280e+09
-5.480566e+10 1.314886e+10 -5.980658e+08
-2.341649e+10 2.315444e+10 1.287208e+09
-1.232788e+09 3.262146e+10 -4.879757e+08
2.293315e+09 3.961067e+10 1.596845e+09
1.832296e+10 4.516825e+10 -2.375958e+09
-4.332554e+09 2.186658e+10 -2.070157e+07
-3.619887e+10 -3.382079e+10 -8.016620e+08
-4.029140e+10 -1.879842e+10 3.552514e+08
-3.841789e+10 1.657418e+10 7.038739e+08
-4.021035e+10 -2.341819e+10 -1.030641e+09
-2.743206e+10 8.150473e+09 -2.578815e+09
2.810775e+10 -1.847046e+10 -2.967984e+07
-3.896505e+10 -1.129449e+10 -8.822521e+08
3.117936e+10 -1.168883e+10 -3.461655e+09
-1.176297e+10 2.778743e+10 -1.139888e+09
1.406690e+10 -3.180876e+10 -6.086847e+08
3.310093e+10 7.484087e+08 2.027946e+08
-3.058106e+10 2.175861e+09 8.817899e+08
-3.673213e+10 3.983429e+10 -3.128653e+09
-1.160504e+10 -2.270107e+10 -3.006686e+09
-2.014110e+10 4.034714e+10 -7.928836e+08
-2.043874e+10 5.694263e+09 -6.632302e+08
-1.738284e+10 -2.398649e+10 1.898446e+09
-3.517392e+10 1.486135e+10 1.588386e+09
-3.402702e+10 2.364938e+09 -7.856212e+08
-1.399388e+10 5.392196e+10 -3.476921e+09
8.843985e+09 2.589412e+10 -8.939369e+08
-5.508969e+10 -6.982451e+09 3.454636e+08
1.608607e+10 2.838333e+10 -1.659225e+09
-3.360987e+10 1.645219e+10 -3.017401e+08
-1.195981e+10 2.107891e+10 -5.781612e+07
2.955719e+10 1.685685e+10 1.364357e+09
-3.129442e+10 6.216578e+09 -1.818909e+07
2.937069e+10 -5.369302e+10 -1.180131e+09
4.187906e+10 -2.939857e+09 7.929857e+08
-7.963999e+09 3.746181e+10 -6.853692e+07
-2.338796e+10 2.236272e+10 -2.236888e+08
3.209659e+10 1.434559e+10 -8.027223e+08
-2.215906e+10 1.805818e+10 -2.247494e+09
1.324091e+10 -4.829376e+10 -8.343196e+08
1.031815e+10 2.804304e+10 7.052267e+08
9.990702e+09 6.405041e+10 -2.380829e+09
-3.909541e+09 -3.041856e+10 -2.411437e+09
-2.698322e+10 5.017066e+09 1.615061e+09
3.556457e+09 -2.962757e+10 1.516585e+09
-3.219280e+10 -3.878985e+10 2.038147e+08
-5.253862e+10 -2.967401e+09 -3.727843e+09
-3.678634e+10 -5.552533e+09 -3.257062e+08
-3.437558e+10 2.863136e+10 -2.374792e+09
-1.736621e+10 -2.847524e+10 1.004043e+09
2.926268e+10 1.266511e+10 -1.133022e+09
3.645524e+10 4.640053e+10 5.475847e+08
6.077944e+10 1.346812e+10 -1.088078e+09
4.834589e+10 3.720278e+10 4.790040e+08
-3.321239e+10 4.019011e+09 -3.338382e+08
-1.656243e+10 4.067577e+10 -7.486321e+08
8.182487e+09 4.113020e+10 1.565418e+08
2.178604e+09 -3.693899e+10 -2.891381e+09
-3.297502e+09 -3.801185e+10 -2.542691e+08
3.916604e+10 -1.830227e+10 1.996564e+09
-4.175069e+10 5.137992e+10 -3.876258e+09
1.497183e+10 -2.939467e+10 1.033134e+09
3.931478e+10 5.562433e+10 9.659744e+08
-2.863964e+10 -3.115273e+10 -1.124415e+09
1.411637e+10 -2.165750e+10 -2.742385e+09
-3.215755e+10 1.702014e+09 1.752089e+09
1.979375e+10 -3.229016e+10 1.177640e+08
3.050270e+09 -2.581763e+10 -5.479454e+08
-2.469142e+09 -2.480499e+10 -2.836143e+08
2.548473e+10 -2.250789e+10 -8.736593e+08
-5.739234e+10 -1.827309e+09 4.294554e+07
2.816834e+10 -4.029967e+10 2.212903e+08
-2.335224e+10 6.125274e+09 -7.332072e+08
1.545454e+10 3.579438e+10 2.427656e+07
-2.262772e+10 4.823509e+10 -2.160413e+09
-2.627392e+10 -3.946336e+10 3.209781e+07
-2.915124e+10 -1.134352e+08 -1.546928e+09
1.827395e+10 -2.708227e+10 3.431973e+08
4.837922e+10 -3.972294e+09 -7.423292e+08
5.813707e+10 -2.026670e+10 -7.614648e+07
2.948400e+10 2.909432e+10 7.814068e+08
-1.675625e+10 -6.028097e+10 1.272308e+09
4.317490e+10 -3.135827e+10 -9.551174e+08
-5.028920e+10 -1.736639e+10 -7.271326e+09
-3.587934e+10 -2.119238e+09 -2.418727e+09
3.293631e+10 -9.028664e+09 -2.383504e+09
-2.779430e+10 -1.260750e+10 -3.853540e+08
-2.369563e+10 -1.192243e+09 2.342395e+08
-2.064063e+09 3.213783e+10 1.152126e+09
-1.614444e+10 2.594999e+10 3.021073e+08
2.886707e+10 -2.298109e+10 -2.605388e+09
2.206875e+10 5.195750e+10 5.199280e+09
-3.989276e+10 7.113533e+09 1.580677e+09
2.311280e+08 3.221608e+10 1.673956e+08
-1.615231e+10 4.608643e+10 2.190992e+07
5.148220e+10 1.897509e+10 -3.000128e+09
-2.796578e+10 1.990828e+10 -2.040618e+08
4.220994e+10 3.899036e+10 -5.849749e+08
-2.735230e+10 -1.819233e+09 -2.107873e+09
2.136568e+10 2.404752e+10 2.749895e+09
-2.378908e+10 -1.284118e+10 1.461446e+09
-6.284160e+10 -2.523503e+10 2.088650e+09
4.160507e+10 -4.761114e+10 -2.210344e+09
-5.981041e+10 7.048049e+08 -1.616156e+09
2.273420e+10 -3.087502e+10 -1.096863e+09
-4.069857e+10 2.464753e+10 1.045392e+09
2.885902e+10 -4.015565e+10 -9.092088e+08
3.360167e+10 -7.762519e+09 -2.735946e+09
-4.894696e+10 3.946456e+10 -7.119468e+08
-2.445118e+10 -3.414663e+09 2.884583e+09
-2.753100e+10 1.929467e+10 9.102330e+08
3.492777e+10 -1.108306e+10 3.828444e+08
5.481323e+10 -5.987568e+09 -2.443855e+09
3.691468e+10 -5.609600e+09 -1.563244e+08
2.909345e+10 2.941523e+10 7.837184e+08
2.580484e+10 -4.304362e+10 -6.565920e+08
2.321111e+10 -2.093349e+10 -1.317802e+09
2.688927e+10 2.355593e+10 1.559890e+09
2.355287e+10 3.830283e+10 -6.423177e+08
-2.964034e+10 -5.821665e+09 -4.821586e+05
-2.593386e+10 -6.385475e+09 -1.188279e+09
-2.960445e+10 -5.141817e+09 1.952520e+08
-5.094376e+10 2.623526e+09 -8.860807e+09
-1.916031e+10 2.663419e+10 -1.610315e+09
-1.143483e+10 6.427121e+10 1.431365e+09
-2.168982e+10 9.195950e+09 -1.146240e+09
1.760987e+10 3.095123e+10 -3.482925e+08
-3.318724e+10 1.228608e+08 -5.908834e+07
-1.710282e+10 -5.575993e+10 -2.633870e+09
2.224333e+10 -2.630278e+10 1.225219e+09
2.456697e+10 -2.177533e+09 -6.099677e+08
-2.437404e+10 -5.465147e+09 7.153537e+08
1.968168e+10 4.967565e+10 3.308941e+08
4.461134e+09 6.757816e+10 2.045422e+09
5.514729e+10 -1.549800e+10 1.050770e+09
1.053727e+10 -2.258047e+10 7.903633e+08
-1.152952e+10 -2.197416e+10 5.404485e+07
-2.442466e+10 5.931110e+10 -4.086910e+09
-4.185334e+10 3.422119e+10 3.850279e+09
3.660308e+10 2.808340e+10 -1.162278e+09
9.381125e+09 3.437366e+10 8.031875e+08
3.879529e+10 3.544545e+10 -1.831964e+09
-3.335828e+10 -1.047457e+10 9.428184e+08
-5.717057e+10 3.235063e+10 -2.159756e+09
1.902979e+10 5.586658e+10 6.786958e+08
3.366475e+10 -3.001963e+10 5.065282e+08
-4.650514e+10 -4.374443e+10 -1.974426e+08
-2.460608e+10 -2.861961e+10 2.551196e+08
-2.931151e+10 4.690754e+10 -1.450523e+09
2.436096e+10 -3.327224e+10 5.165425e+08
-4.722678e+10 -1.066521e+10 -1.593327e+08
3.459496e+10 3.895607e+10 1.955220e+09
-3.081098e+10 8.275275e+09 2.234618e+09
-2.539922e+10 -1.046091e+10 3.464344e+08
3.690534e+09 -4.770367e+10 -4.688456e+08
-2.794590e+09 -4.652871e+10 4.337624e+09
2.412390e+10 3.185673e+10 -4.619261e+08
-1.865900e+10 -2.927683e+10 1.810042e+09
-3.326907e+10 -4.443388e+10 2.171978e+08
2.391680e+10 -1.225529e+10 -1.057195e+09
2.580669e+10 1.223513e+10 2.187952e+08
3.596702e+10 1.881026e+09 1.564249e+09
1.586507e+10 -4.946529e+10 1.426144e+09
-1.834061e+10 -1.456099e+10 7.194081e+08
-2.428700e+10 -8.578454e+09 -5.517253e+08
-4.055863e+10 1.638533e+10 1.133885e+09
-2.947406e+10 6.211038e+08 -8.635204e+07
1.093627e+10 -4.537582e+10 1.163423e+08
-8.769850e+09 -3.885619e+10 9.530621e+07
2.668206e+10 2.813131e+10 -1.693763e+09
-5.740422e+10 3.991661e+10 -1.942067e+09
-3.975188e+10 -3.428995e+09 -7.011068e+08
-4.439970e+10 3.187993e+10 -8.997653e+08
1.964133e+10 1.796366e+10 7.379811e+08
-1.699721e+10 -3.443065e+10 -3.857817e+08
-2.456074e+10 -1.268036e+10 2.575552e+09
-4.927608e+10 -8.085457e+09 7.159171e+08
2.869940e+10 -5.408744e+10 -8.469471e+08
2.392434e+10 3.038773e+10 -5.571745e+07
4.881707e+10 1.847976e+10 -8.296362e+08
-2.000876e+10 5.384559e+10 -1.331093e+09
3.487797e+10 3.340634e+10 3.299248e+09
-1.840425e+10 -1.828671e+10 -7.658484e+08
5.911907e+10 1.120248e+10 -1.298328e+09
-4.140493e+10 -4.543419e+10 1.846879e+09
3.095514e+10 -1.812774e+10 -7.819644e+08
-2.712651e+10 -1.397704e+10 -7.835224e+08
2.666083e+10 -1.560726e+10 1.653110e+09
-1.039983e+09 -5.055438e+10 1.063823e+09
4.071000e+09 -6.513940e+10 8.560473e+08
8.489654e+09 -3.607242e+10 2.736942e+09
-9.017361e+09 -3.856949e+10 -5.845990e+08
1.551388e+10 -2.364458e+10 2.326383e+09
-1.661974e+10 -2.820303e+10 -4.699534e+07
-3.810330e+10 2.807520e+10 -3.843436e+08
2.715781e+10 1.226571e+10 3.208486e+09
-3.386016e+10 1.656844e+10 8.716962e+08
-2.750257e+10 -1.649446e+10 -3.934354e+07
-3.430335e+10 9.803056e+09 1.011177e+09
-4.360956e+10 -3.584262e+10 1.486646e+09
3.708349e+09 -5.338344e+10 5.524484e+08
-5.860568e+09 -3.503078e+10 1.912540e+08
-2.280307e+10 -2.840255e+10 -8.220271e+08
2.706539e+10 -5.643428e+10 9.823663e+08
2.133553e+10 -4.143972e+10 7.775177e+08
5.567463e+10 1.197170e+10 -1.508462e+08
3.791733e+10 5.134504e+08 -5.514778e+08
-2.569906e+10 4.894096e+10 9.231806e+07
-2.596545e+10 -1.673095e+10 -3.409966e+09
-4.967546e+10 -2.172736e+09 1.555471e+09
-3.120263e+10 -1.573970e+10 -5.433639e+08
-5.000485e+10 -3.283121e+10 1.565196e+09
-2.953185e+10 -2.592944e+09 -5.848149e+08
5.247764e+09 3.265431e+10 7.420625e+08
4.561289e+10 1.563416e+10 -1.006753e+09
-6.442455e+10 1.101792e+10 -4.382283e+09
1.242349e+10 3.051407e+10 5.193174e+07
-3.110511e+10 -1.304200e+10 -2.791754e+09
2.175917e+10 -3.199636e+10 9.423234e+08
-2.098589e+10 -1.699946e+10 -1.127705e+09
5.021641e+10 -1.121491e+10 -9.098358e+08
1.774162e+10 -3.480247e+10 -1.029777e+09
2.464514e+10 4.172575e+10 1.067737e+09
3.621252e+10 -2.176475e+10 -7.345835e+08
2.432471e+10 -2.185386e+10 -1.437568e+08
9.664617e+09 2.386560e+10 -3.959846e+08
2.603670e+10 1.783388e+10 -1.054681e+09
-3.564583e+10 -1.106607e+09 1.391522e+09
-3.247144e+10 -5.737647e+09 -5.455524e+08
-1.029835e+10 5.671429e+10 1.602093e+09
-2.044616e+10 -1.705618e+10 2.929621e+08
5.905899e+10 -1.527710e+10 6.293643e+08
4.922396e+10 -1.733304e+10 -5.761827e+08
-6.547508e+10 -5.015252e+09 -3.194439e+09
-4.046562e+10 3.812544e+10 -6.648588e+08
1.509387e+10 5.153400e+10 1.588306e+09
-3.923134e+10 3.120136e+10 4.413527e+08
-3.128033e+09 4.104030e+10 4.128161e+07
-2.053058e+10 4.312231e+10 -3.890294e+08
6.015934e+10 3.204239e+09 3.075227e+09
-1.757453e+10 -3.333574e+10 -9.739807e+08
-2.383749e+10 -2.254768e+10 2.371056e+09
2.571685e+10 1.460644e+10 1.200099e+09
1.541033e+10 -3.437284e+10 2.767571e+08
-1.239884e+10 -3.807578e+10 1.626854e+08
4.839594e+10 4.426848e+10 7.703701e+08
3.773297e+10 -3.301514e+10 9.473799e+08
-5.526046e+10 -4.197312e+10 3.897232e+08
1.267379e+10 3.006604e+10 2.607923e+09
-5.123568e+10 -1.953159e+10 -1.298439e+09
2.803926e+10 -6.976197e+09 3.720010e+08
-2.320608e+10 4.142720e+10 9.870092e+08
-2.034009e+10 -2.322798e+10 4.439898e+08
1.786000e+10 1.901002e+10 1.131613e+09
-2.688633e+10 3.137861e+10 1.699232e+09
2.344618e+10 1.900141e+10 -1.585781e+09
6.268960e+09 -2.861736e+10 3.539666e+09
-6.396956e+09 -2.577186e+10 -1.848952e+09
2.275516e+10 -3.384634e+10 1.659564e+09
1.019204e+10 3.661897e+10 1.807860e+08
4.860250e+10 2.411314e+10 -2.421852e+09
-1.675346e+09 -2.996215e+10 -1.016650e+09
2.546627e+09 -3.161003e+10 6.421519e+08
-1.943484e+10 -2.181254e+10 -3.075814e+09
2.315119e+10 -1.005814e+10 1.903793e+09
4.523954e+10 2.360705e+10 2.788829e+08
5.565721e+10 1.980562e+10 1.389782e+09
2.781157e+10 5.253632e+10 -2.929933e+09
3.495384e+10 -5.231713e+10 -7.567996e+09
-3.109505e+10 3.468464e+10 -3.718045e+08
3.324198e+10 1.166750e+10 6.954387e+07
-5.338386e+09 3.631265e+10 -6.959149e+08
3.841183e+10 -2.684946e+10 -1.728068e+08
5.622945e+10 2.508560e+10 1.435383e+09
-2.017725e+10 -2.612913e+10 1.144802e+09
-3.108144e+10 3.340911e+09 -1.713623e+09
-4.949386e+10 -1.285905e+09 -1.133123e+09
-2.247541e+10 3.066332e+10 1.245803e+09
1.086246e+10 -2.483540e+10 -1.211433e+09
-1.194384e+10 -3.125921e+10 7.823208e+08
-2.661543e+10 -4.141881e+10 -9.356144e+08
-2.676463e+10 -3.464003e+10 -5.380396e+08
3.242331e+10 -1.974815e+10 -2.065170e+09
2.531211e+10 -2.666176e+10 9.842140e+08
-4.253640e+09 3.061497e+10 1.318197e+09
-1.397827e+10 -1.984356e+10 -1.083744e+09
5.961947e+10 -1.596389e+10 -1.100794e+09
-3.780233e+10 3.190503e+10 -1.571441e+09
-2.775101e+10 -2.289530e+10 5.180678e+08
2.853146e+08 -3.989229e+10 -2.614728e+08
4.335913e+08 -3.706986e+10 -1.675002e+08
-5.702605e+10 1.503881e+10 3.256083e+09
-1.947913e+10 3.678944e+10 -5.274255e+08
1.075115e+10 4.040160e+10 1.061602e+09
-2.218281e+10 -1.454706e+10 -6.121093e+08
2.490432e+10 -9.751363e+09 1.692700e+09
-1.482920e+10 -2.555178e+10 1.544835e+09
1.757189e+10 -2.004600e+10 -8.214289e+08
-4.633536e+10 1.312062e+10 -4.241820e+09
2.914861e+10 -1.080311e+10 -3.802474e+08
1.540094e+10 -3.056779e+10 -5.528314e+08
3.043867e+10 7.833600e+08 -2.059637e+09
-4.921280e+10 2.638146e+10 5.142223e+08
-4.690085e+09 3.979367e+10 2.552848e+09
-3.991042e+10 3.523029e+10 -1.156885e+09
-2.349879e+10 3.952362e+10 3.444828e+08
-2.495869e+10 -2.377562e+10 3.140924e+09
-1.389123e+10 -2.546140e+10 1.089994e+09
-1.447977e+10 -2.197268e+10 1.655311e+07
-2.757555e+09 6.070359e+10 -4.955582e+09
2.836144e+10 -2.150441e+10 2.379306e+09
2.224067e+10 3.073247e+10 8.189023e+07
-3.747335e+10 3.510613e+10 9.864938e+08
-4.701579e+10 -1.974820e+10 -1.511088e+09
4.358551e+10 1.590377e+10 2.622928e+08
3.335876e+10 7.238009e+09 1.660610e+09
-2.664451e+10 -2.319967e+10 1.503112e+09
-2.805160e+10 -2.999253e+10 8.029906e+08
-1.003219e+10 -1.869533e+10 -1.283687e+09
-1.997010e+10 -3.071288e+10 -2.486731e+09
-2.702271e+10 -1.369057e+10 -1.694036e+08
-5.270258e+10 -1.549480e+10 -1.828404e+09
2.251092e+10 2.151185e+10 -3.365127e+09
-5.778998e+10 3.334513e+10 1.329447e+09
3.991876e+09 3.283887e+10 -8.721615e+08
4.125612e+10 -2.424283e+10 -2.247814e+08
2.249622e+10 -5.558577e+10 -4.429290e+09
-3.297875e+10 -1.458447e+10 -1.546468e+08
3.301245e+09 5.306536e+10 1.520493e+09
-1.084775e+10 -2.496785e+10 4.029358e+09
-3.929252e+09 -2.857540e+10 -6.737185e+08
5.449490e+09 -3.269585e+10 -2.414246e+09
4.426498e+10 7.685841e+09 1.862588e+08
-5.128343e+10 -6.347886e+09 -4.425734e+07
2.975218e+10 -2.859906e+10 -2.503463e+08
-3.937170e+10 -2.549686e+10 -2.072007e+09
-3.864078e+10 2.428839e+10 5.598746e+08
2.647470e+10 -5.457399e+09 5.192319e+08
-5.669649e+08 -2.954372e+10 1.227374e+08
3.249278e+08 -3.166985e+10 -2.860698e+08
-9.380760e+09 -2.579318e+10 -9.346928e+08
-6.798902e+10 -1.752793e+10 -3.054744e+09
5.672504e+10 2.393831e+09 5.366934e+08
1.480928e+09 3.264972e+10 1.185641e+09
6.728117e+09 4.276359e+10 4.349370e+08
-3.986599e+10 9.578862e+09 1.930302e+08
-5.425085e+10 2.375870e+10 3.029182e+09
-2.410831e+10 -1.092769e+10 -1.000597e+09
-2.115943e+10 2.765960e+10 -6.414831e+08
-2.927530e+10 -6.108980e+10 4.363192e+09
-5.728276e+10 -1.618009e+10 -3.542455e+09
-1.016597e+10 -2.870955e+10 2.507826e+09
-1.917765e+10 2.562974e+10 3.253931e+09
-4.115387e+10 8.803164e+09 -7.444605e+08
1.908047e+09 3.442022e+10 -6.841607e+08
-1.539723e+10 -1.758554e+10 1.207878e+09
-2.794534e+10 5.797057e+09 -1.098697e+09
-2.501397e+10 -8.435277e+09 1.230565e+08
-1.304906e+10 5.401050e+10 -2.148542e+09
-1.698577e+10 -3.816819e+10 1.419771e+09
-3.226740e+10 -2.031818e+10 -7.973240e+07
3.166584e+10 -3.068621e+09 5.928227e+06
-8.601872e+09 -3.470259e+10 -2.455740e+09
-2.334076e+10 -1.697982e+09 -6.942916e+08
6.917167e+09 -4.097278e+10 4.981245e+08
-1.596188e+10 -4.027498e+10 3.711385e+08
1.860153e+10 -2.387448e+10 2.169828e+09
5.930723e+10 -1.020779e+10 -1.806130e+08
-3.147535e+10 -1.751356e+10 2.829453e+09
-2.205601e+10 4.339573e+10 -1.883896e+09
-3.376991e+10 -1.031259e+10 3.628904e+08
-3.315871e+10 -2.080022e+10 9.902340e+08
-2.561692e+10 1.377206e+10 1.725455e+09
-4.562604e+09 -2.502956e+10 -1.316912e+09
1.766861e+10 2.634225e+10 3.309964e+08
-5.087413e+10 -1.126538e+10 -1.784315e+09
3.093700e+10 8.901673e+09 7.561549e+08
1.496478e+10 -2.728744e+10 1.728707e+09
4.400911e+09 4.028182e+10 -1.703125e+09
-4.500035e+10 -2.519728e+10 -9.640729e+07
2.560240e+10 1.145958e+10 -2.473481e+09
2.683577e+10 4.063997e+10 4.150660e+08
-3.311290e+10 2.221879e+10 -2.218671e+09
-2.963179e+10 -1.144159e+10 3.495872e+09
-5.088591e+09 -2.868916e+10 2.107886e+09
3.492571e+10 -1.336531e+10 1.656144e+08
-9.934429e+09 3.974810e+10 1.551490e+08
4.463023e+10 4.888270e+10 4.222765e+08
-3.027287e+10 3.854879e+10 -1.353079e+09
-3.827190e+10 -4.909050e+10 4.141245e+09
-3.685969e+10 4.340344e+10 -3.420924e+09
1.578754e+10 4.626133e+10 -1.277561e+09
4.326116e+10 1.874588e+10 -8.957740e+08
6.113469e+10 -2.336969e+10 1.676515e+09
-1.512642e+10 2.262112e+10 -1.942965e+09
-3.675930e+09 -2.895485e+10 -2.858660e+09
-1.517268e+10 -3.526192e+10 1.356283e+09
-1.290070e+10 -2.767698e+10 1.602429e+09
-4.247875e+10 -7.807152e+09 7.217795e+08
2.665418e+10 -1.146917e+10 -3.389219e+09
-3.918681e+10 -3.077081e+10 9.304851e+07
-2.520359e+09 3.448370e+10 -7.885423e+07
-3.838458e+10 5.221896e+09 -1.818595e+09
2.229993e+10 2.634376e+10 9.328285e+08
-5.889207e+09 -3.065178e+10 -1.973128e+08
6.165677e+09 -3.966830e+10 9.663122e+08
-1.353873e+09 -2.509236e+10 1.920208e+09
4.150114e+10 -2.229306e+10 -5.738619e+08
3.555116e+10 -2.065623e+10 1.074316e+09
3.865702e+10 -5.037254e+10 1.129794e+09
-1.050808e+10 3.971756e+10 -1.910107e+09
3.202994e+10 -1.410854e+10 2.602198e+09
5.141002e+10 -6.004061e+09 1.613860e+09