# vtk DataFile Version 2.0
Electric current density generated by TTH
ASCII
DATASET UNSTRUCTURED_GRID
POINTS 1725 double
1.956734e-05 -4.792615e-21 -4.651196e-22
1.753557e-05 8.682415e-06 -4.651196e-22
6.614090e-06 -1.841560e-05 -4.651196e-22
-1.740552e-05 -6.536166e-06 1.659061e-06
-7.150086e-07 1.814103e-05 1.835547e-06
-8.785822e-06 -1.722049e-05 9.152002e-07
1.206369e-05 1.054491e-05 -9.476900e-07
-6.958848e-06 -1.428096e-05 6.558590e-07
-1.506276e-05 4.851933e-06 4.560525e-07
9.765271e-06 1.258358e-05 7.602884e-07
-5.474197e-06 -1.774635e-05 1.670485e-06
4.294945e-06 1.577842e-05 1.369240e-06
-1.483744e-06 -1.639169e-05 1.463886e-06
7.545774e-06 -1.805386e-05 -4.651196e-22
-1.575295e-05 -9.478839e-07 -2.140009e-07
8.354438e-06 -1.650417e-05 1.708063e-06
1.152448e-05 -1.096150e-05 -7.047627e-07
-1.517585e-05 -1.197081e-05 9.212541e-07
-1.376941e-05 -1.038877e-05 -1.852084e-06
-1.691068e-06 -1.931808e-05 7.970865e-07
-1.336168e-05 8.822932e-06 9.285185e-07
-1.110455e-05 -1.119708e-05 -3.988842e-08
1.033111e-05 1.276351e-05 1.431625e-06
-7.419826e-07 -1.700851e-05 1.786588e-06
8.457772e-06 -1.764502e-05 -4.651196e-22
-7.098392e-06 1.538997e-05 1.757111e-06
-5.803293e-06 -1.847354e-05 -8.556885e-07
1.090469e-05 -1.459989e-05 1.816258e-06
-9.592024e-06 -1.678563e-05 9.138650e-07
-1.576146e-05 9.176279e-06 1.811512e-06
8.964510e-07 1.872814e-05 1.561120e-06
-3.166896e-06 1.571794e-05 9.666829e-07
-1.783189e-05 -7.601405e-06 8.130744e-07
-1.625170e-05 5.575959e-06 -1.835568e-06
3.438386e-06 1.792814e-05 1.806144e-06
9.347705e-06 -1.719014e-05 -4.651196e-22
1.239134e-06 -1.934174e-05 8.195418e-07
1.352255e-05 -8.986533e-06 -1.247161e-06
-5.958383e-06 1.468240e-05 5.318799e-07
1.649423e-05 -3.986311e-06 1.765571e-06
1.649423e-05 3.986311e-06 1.765571e-06
1.127502e-05 -1.576937e-05 8.108234e-07
-1.261463e-05 -1.344742e-05 -1.736008e-06
1.253393e-05 -1.214393e-05 1.886638e-06
1.405564e-05 -1.330216e-05 -8.779105e-07
1.032425e-05 1.360634e-05 1.805521e-06
1.021325e-05 -1.669042e-05 -4.651196e-22
1.895813e-05 -3.954956e-06 8.504355e-07
1.895813e-05 3.954956e-06 8.504355e-07
1.874161e-05 -4.777533e-06 -8.991817e-07
1.874161e-05 4.777533e-06 -8.991817e-07
1.597744e-05 3.669303e-06 -1.407340e-06
1.596557e-05 -3.653698e-06 -1.393555e-06
-1.562276e-05 -9.405404e-06 1.812334e-06
-1.105528e-05 1.595873e-05 -7.477514e-07
-1.636305e-05 -3.460652e-06 1.648114e-06
-4.908516e-06 -1.519419e-05 -8.443171e-07
1.105215e-05 -1.614716e-05 -4.651196e-22
-1.419938e-05 -1.313089e-05 -9.006319e-07
-1.842991e-05 -1.093816e-06 -1.725035e-06
-1.837034e-05 1.875452e-06 -1.723425e-06
-1.493287e-05 6.717375e-06 -1.389720e-06
-1.899554e-05 -3.847519e-06 -8.197787e-07
1.056494e-05 -1.172250e-05 2.086241e-07
7.338128e-06 -1.681299e-05 -1.774498e-06
-7.286372e-06 -1.716674e-05 1.626144e-06
9.010111e-06 -1.574708e-05 1.838829e-06
1.037052e-05 1.542835e-05 1.660437e-06
1.186222e-05 -1.556176e-05 -4.651196e-22
6.121681e-06 -1.665195e-05 1.897584e-06
6.067173e-06 1.842515e-05 -7.830551e-07
-1.778247e-05 -5.253395e-06 1.685970e-06
1.544161e-05 7.649471e-06 -1.848293e-06
2.882338e-07 1.862207e-05 -1.640829e-06
-1.566192e-06 -1.819085e-05 -1.805079e-06
-1.252993e-05 -1.105327e-05 -1.638561e-06
1.734218e-05 -8.592858e-06 8.739478e-07
-1.615588e-05 -7.358678e-06 -1.897115e-06
1.560473e-05 -1.152990e-05 -7.744992e-07
1.264134e-05 -1.493577e-05 -4.651196e-22
-8.274731e-06 -1.751982e-05 -8.314679e-07
-8.522659e-07 -1.937051e-05 -8.029139e-07
-1.544882e-05 -5.080236e-06 1.276838e-06
-1.850692e-05 5.856871e-06 -7.532176e-07
2.529449e-06 -1.617081e-05 1.383422e-06
-1.642029e-05 1.035251e-05 7.537427e-07
-7.394336e-06 -1.639137e-05 -1.872909e-06
-1.705364e-05 -9.164192e-06 8.628639e-07
-1.003052e-05 1.659594e-05 7.977099e-07
1.446208e-05 7.165198e-06 -1.126767e-06
1.338748e-05 -1.427082e-05 -4.651196e-22
1.353759e-07 1.727138e-05 1.857154e-06
-1.791094e-05 -4.684724e-06 -1.700574e-06
-1.272781e-05 -1.348731e-05 1.684706e-06
-6.831150e-06 1.562499e-05 -1.796536e-06
-1.156558e-05 -1.553330e-05 -8.507469e-07
1.563152e-05 4.855382e-06 1.384167e-06
-1.781400e-05 7.714211e-06 -7.509027e-07
-1.574150e-05 2.513425e-06 -7.887462e-07
1.926505e-05 -2.039735e-06 8.374084e-07
1.926505e-05 2.039735e-06 8.374084e-07
1.409869e-05 -1.356863e-05 -4.651196e-22
1.292872e-05 -1.070159e-05 -1.680091e-06
1.693465e-07 -1.606955e-05 -1.026114e-06
3.725750e-06 -1.708119e-05 1.889909e-06
-9.960583e-06 -1.284156e-05 1.264681e-06
1.534006e-05 -8.009141e-06 -1.863916e-06
-7.031308e-06 1.717618e-05 1.676828e-06
-1.268072e-05 1.050347e-05 -1.469747e-06
-3.998112e-06 1.585453e-05 -1.367643e-06
-9.696547e-06 1.320647e-05 1.398755e-06
-1.518545e-05 -6.557930e-06 -1.528153e-06
1.706937e-05 9.566467e-06 -4.651196e-22
1.477312e-05 -1.283104e-05 -4.651196e-22
-1.649898e-05 3.832055e-06 1.752998e-06
1.841767e-05 1.871900e-06 -1.701027e-06
1.841767e-05 -1.871900e-06 -1.701027e-06
6.807011e-06 1.465140e-05 1.147770e-06
-1.226323e-05 -9.996654e-06 4.420141e-07
1.733077e-05 8.617432e-06 8.725784e-07
-1.324501e-05 9.033946e-06 -9.645425e-07
1.405127e-05 -1.039958e-05 -1.889743e-06
1.656097e-05 1.011895e-05 7.621122e-07
1.436005e-05 9.610376e-06 -1.858693e-06
1.540901e-05 -1.205998e-05 -4.651196e-22
1.927103e-05 1.877997e-06 -8.582551e-07
1.927103e-05 -1.877997e-06 -8.582551e-07
1.216301e-05 1.513829e-05 -7.352194e-07
9.846531e-07 -1.623150e-05 1.275354e-06
1.308590e-05 9.341750e-06 -1.038112e-06
-4.589716e-06 -1.885287e-05 -7.715966e-07
-1.596761e-05 6.471443e-06 -1.847513e-06
-1.523087e-05 -5.326230e-06 -1.120707e-06
1.466461e-05 -9.098613e-06 1.854111e-06
1.529752e-05 1.028840e-05 1.737168e-06
1.600470e-05 -1.125745e-05 -4.651196e-22
1.717168e-06 1.663945e-05 1.649728e-06
5.489193e-06 1.573028e-05 -1.609496e-06
-1.284893e-05 1.324250e-05 1.729973e-06
1.503534e-05 -4.765948e-06 -1.114859e-07
9.492470e-06 1.406516e-05 1.765401e-06
5.876196e-06 -1.465670e-05 2.844500e-07
-2.930843e-08 -1.857831e-05 1.666761e-06
4.472832e-06 1.811427e-05 -1.620534e-06
8.790842e-06 -1.729734e-05 -7.727297e-07
-1.867251e-05 -8.331384e-08 -1.611662e-06
1.655863e-05 -1.042556e-05 -4.651196e-22
-1.700362e-05 -9.374079e-06 -7.419518e-07
1.072927e-05 1.504417e-05 -1.717642e-06
-1.477644e-05 6.041686e-06 -8.372315e-07
-3.814169e-06 -1.711977e-05 -1.894620e-06
-1.940807e-05 -2.477998e-09 7.612666e-07
-1.653551e-05 -5.741849e-06 -1.891875e-06
-5.616745e-06 1.527243e-05 -1.287586e-06
-1.081123e-05 -1.607609e-05 8.363158e-07
-1.126936e-05 1.141245e-05 9.750498e-07
-1.541944e-05 1.180153e-05 7.395824e-07
1.706937e-05 -9.566467e-06 -4.651196e-22
9.669532e-06 -1.682967e-05 7.574617e-07
5.924962e-06 -1.471308e-05 -5.836676e-07
1.275291e-05 1.046707e-05 -1.495778e-06
-4.501881e-07 -1.581601e-05 4.457878e-07
1.295006e-05 1.077891e-05 1.713147e-06
-8.353781e-06 -1.382493e-05 -1.144315e-06
1.412499e-05 1.077695e-05 1.896443e-06
5.332731e-06 1.866841e-05 7.448972e-07
-1.006495e-05 -1.214013e-05 -4.062407e-08
-1.193827e-05 -1.419119e-05 -1.684603e-06
1.753557e-05 -8.682415e-06 -4.651196e-22
5.659814e-06 1.739033e-05 -1.794994e-06
1.764066e-06 1.571401e-05 -4.035261e-07
2.809429e-06 1.860672e-05 -1.511736e-06
-1.202061e-05 1.213604e-05 -1.806055e-06
1.465166e-05 9.078660e-06 1.849217e-06
1.267650e-05 1.323662e-05 -1.780878e-06
-1.133378e-05 1.458409e-05 -1.721370e-06
-1.513140e-05 9.301285e-06 -1.896705e-06
5.226913e-06 -1.869609e-05 7.499100e-07
5.148509e-06 -1.873515e-05 -7.098118e-07
1.795603e-05 -7.775713e-06 -4.651196e-22
-1.125194e-06 -1.579156e-05 -4.822191e-07
-1.387831e-05 -1.216145e-05 -1.729363e-06
-1.648857e-05 -2.641786e-06 1.632880e-06
-6.404420e-06 -1.830645e-05 7.917841e-07
-1.687174e-05 9.577109e-06 -7.784929e-07
-3.842163e-07 -1.842722e-05 -1.739020e-06
1.582572e-05 -4.903678e-06 1.547734e-06
1.347495e-05 1.299929e-05 1.579112e-06
1.239844e-06 1.939061e-05 -7.085321e-07
-1.539376e-05 6.367921e-06 1.608467e-06
1.832964e-05 -6.848725e-06 -4.651196e-22
-1.639501e-05 3.600510e-07 -1.412395e-06
4.153984e-06 1.641706e-05 -1.751449e-06
1.764749e-05 8.093037e-06 -7.458960e-07
1.764749e-05 -8.093037e-06 -7.458960e-07
-1.456642e-05 -6.066153e-06 -1.918897e-07
-1.009481e-05 -1.245155e-05 -9.594327e-07
-9.246875e-06 1.462997e-05 -1.864347e-06
-1.864987e-05 5.256176e-06 8.298746e-07
-1.122510e-05 1.260035e-05 1.725421e-06
-7.621107e-06 -1.381947e-05 2.154387e-07
1.865543e-05 -5.903869e-06 -4.651196e-22
-1.510063e-05 5.236350e-06 -8.746268e-07
1.267038e-05 1.182748e-05 1.869125e-06
1.088835e-05 -1.209728e-05 -1.291084e-06
1.416502e-05 -1.180193e-05 -1.736349e-06
-1.347098e-05 -9.462016e-06 1.466595e-06
1.430826e-05 1.167238e-05 1.723627e-06
4.153546e-06 -1.630897e-05 -1.703716e-06
-1.200444e-05 1.108959e-05 1.359776e-06
-4.651203e-06 -1.883693e-05 7.734894e-07
1.578324e-05 1.925785e-06 6.929501e-07
1.893255e-05 -4.943610e-06 -4.651196e-22
1.578327e-05 -1.925519e-06 6.929528e-07
-1.484976e-05 1.082706e-05 1.761521e-06
1.556973e-05 -9.639237e-06 -1.786565e-06
1.394496e-05 -1.059826e-05 1.892816e-06
8.517222e-06 1.676102e-05 -1.524281e-06
-8.351272e-06 1.645017e-05 -1.731280e-06
-1.859322e-06 1.826951e-05 1.767035e-06
1.500433e-05 4.853957e-06 -4.733045e-08
1.198730e-05 -1.526385e-05 -7.608342e-07
-5.357137e-06 -1.636242e-05 -1.844597e-06
1.655863e-05 1.042556e-05 -4.651196e-22
1.916028e-05 -3.970454e-06 -4.651196e-22
5.803569e-07 -1.938855e-05 7.855724e-07
1.764535e-05 3.848174e-06 -1.858149e-06
1.764535e-05 -3.848174e-06 -1.858149e-06
-1.360074e-05 1.275018e-05 -1.630023e-06
-8.901638e-06 -1.301687e-05 2.628205e-08
1.601105e-06 -1.876359e-05 1.500864e-06
-9.562826e-06 -1.378968e-05 -1.678944e-06
-1.323751e-05 1.418808e-05 -7.694544e-07
1.603459e-05 -8.901004e-06 -1.776449e-06
3.659707e-06 -1.693248e-05 -1.867416e-06
1.933802e-05 -2.986940e-06 -4.651196e-22
1.400604e-05 7.988275e-06 -1.105000e-06
-1.416300e-05 1.215541e-05 1.617055e-06
-6.313961e-06 1.571077e-05 1.750448e-06
-1.546860e-05 -6.774372e-06 1.730792e-06
-1.122853e-05 1.107219e-05 9.633599e-09
1.437873e-05 -1.306508e-05 7.141837e-07
-3.074454e-06 1.546700e-05 3.136434e-08
[...]
POINT_DATA 1725
VECTORS 10.000GHz_fone_imag double
-6.604419e-04 -5.526429e-04 1.953064e-02
5.580645e-04 1.258252e-03 1.955994e-02
-3.733470e-04 -2.574490e-04 1.976200e-02
2.231341e-02 8.231164e-03 1.133133e-02
2.177217e-03 -2.750310e-02 5.459604e-03
4.327209e-03 1.013272e-02 1.930942e-02
1.436670e-02 1.454636e-02 -3.535848e-02
6.785449e-03 1.063843e-02 -4.052250e-02
8.656263e-03 -3.410489e-03 -4.269779e-02
-8.154095e-03 -1.136592e-02 -3.619488e-02
7.509195e-03 2.244927e-02 1.005329e-02
-5.748599e-03 -2.273013e-02 -2.539024e-02
2.691557e-03 2.948601e-02 -2.483928e-02
-5.513170e-04 -1.989198e-04 1.904727e-02
-6.645714e-03 2.875428e-04 -4.261020e-02
-1.143128e-02 2.035120e-02 1.146393e-02
1.224947e-02 -9.748538e-03 -3.743381e-02
7.453746e-03 5.559843e-03 1.808112e-02
-2.393842e-02 -1.788082e-02 -6.211490e-03
6.438684e-04 7.980396e-03 1.787960e-02
1.677084e-02 -1.049420e-02 -3.726130e-02
-2.882743e-04 -4.602881e-05 -4.487884e-02
-1.821828e-02 -2.231892e-02 -2.753021e-02
1.499238e-03 3.192334e-02 -1.217404e-02
8.746689e-04 4.845893e-04 2.021652e-02
1.304109e-02 -2.827542e-02 -1.432273e-02
-2.241791e-03 -9.884493e-03 1.929249e-02
-1.416449e-02 2.017460e-02 6.103656e-03
5.527929e-03 1.082014e-02 1.926722e-02
2.319417e-02 -1.391337e-02 7.610372e-03
-5.057193e-04 -2.162026e-02 1.305915e-02
3.682026e-03 -2.041086e-02 -3.600339e-02
9.727945e-03 2.883426e-03 1.912305e-02
-2.740356e-02 9.019885e-03 -9.858410e-03
-4.279894e-03 -2.546048e-02 4.974949e-03
-1.908560e-04 7.463904e-04 2.109732e-02
-6.317758e-04 9.452651e-03 1.984916e-02
2.207218e-02 -1.478115e-02 -3.009485e-02
5.297599e-03 -8.688912e-03 -3.836773e-02
-2.783558e-02 7.060259e-03 -1.246347e-02
-2.740386e-02 -8.133577e-03 -1.236306e-02
-5.723528e-03 7.671782e-03 1.975440e-02
-1.683814e-02 -1.721354e-02 9.297182e-03
-2.324351e-02 2.187845e-02 -5.289924e-03
7.866711e-03 -6.996205e-03 1.937344e-02
-2.048113e-02 -2.550714e-02 -1.150911e-02
5.768145e-05 8.250626e-04 2.143400e-02
-9.640047e-03 1.936655e-03 1.977960e-02
-7.814596e-03 -2.316752e-03 1.868757e-02
1.092780e-02 -1.418962e-03 1.810935e-02
1.082134e-02 1.308111e-03 1.864799e-02
2.829242e-02 5.106073e-03 -2.682000e-02
2.452185e-02 -5.879017e-03 -2.440840e-02
2.044672e-02 1.266734e-02 8.734565e-03
-4.847777e-03 6.961603e-03 2.018296e-02
3.046238e-02 6.550827e-03 -1.922073e-02
-5.086521e-03 -1.687187e-02 -3.905262e-02
-1.677578e-03 -2.270179e-05 2.050091e-02
-8.205854e-03 -7.456779e-03 1.952374e-02
-2.273335e-02 -8.256550e-04 1.012347e-02
-2.517599e-02 2.694922e-03 1.004519e-02
-2.384703e-02 8.896479e-03 -2.780734e-02
-9.229953e-03 -1.964797e-03 1.698344e-02
-3.388561e-03 3.503695e-03 -3.911147e-02
1.075293e-02 -2.388469e-02 7.801456e-03
8.699490e-03 2.140290e-02 1.236273e-02
-1.450223e-02 2.458873e-02 5.863152e-03
-1.152051e-02 -1.725005e-02 1.201124e-02
3.233587e-04 -8.484423e-04 1.986769e-02
-9.507504e-03 2.857477e-02 -1.690215e-03
4.189303e-03 7.931106e-03 1.951762e-02
2.134553e-02 7.290012e-03 1.034262e-02
2.530350e-02 1.196511e-02 -8.095216e-03
-6.076836e-04 2.253218e-02 1.066259e-02
-1.872233e-03 -2.388034e-02 5.548023e-03
-2.159671e-02 -2.033628e-02 -2.141376e-02
-8.926927e-03 3.618033e-03 1.913878e-02
-2.810628e-02 -1.288512e-02 -1.111948e-03
6.589265e-03 -4.324393e-03 1.886441e-02
1.386598e-03 -5.813641e-04 1.955925e-02
-4.092744e-03 -9.281938e-03 2.027689e-02
-5.056653e-04 -9.653244e-03 1.996875e-02
2.485066e-02 7.655299e-03 -3.034233e-02
-7.707290e-03 2.904925e-03 1.839804e-02
-4.031792e-03 2.821388e-02 -2.823811e-02
7.568790e-03 -4.253963e-03 2.003585e-02
-1.136140e-02 -2.372736e-02 4.587748e-03
8.041590e-03 4.411322e-03 1.785224e-02
4.655154e-03 -7.991031e-03 2.034978e-02
2.138614e-02 1.120812e-02 -3.402816e-02
2.498569e-04 6.908308e-04 2.122422e-02
-1.149903e-03 -3.028261e-02 -7.245916e-03
-2.345018e-02 -5.961367e-03 1.090970e-02
1.583694e-02 1.638975e-02 1.015261e-02
-1.174393e-02 2.712466e-02 -1.073463e-02
-7.514921e-03 -7.972584e-03 1.861556e-02
-2.703753e-02 -7.279067e-03 -2.702418e-02
-8.465491e-03 3.274664e-03 1.983244e-02
-1.678051e-02 2.255806e-03 -3.980064e-02
-1.012347e-02 8.112835e-04 1.928419e-02
-8.858818e-03 -4.313483e-04 1.933436e-02
-7.323114e-04 3.543874e-06 2.136392e-02
2.390378e-02 -1.933396e-02 -1.918175e-02
1.137784e-03 -2.122449e-02 -3.402997e-02
-5.909237e-03 2.821291e-02 -2.478378e-03
1.670134e-02 1.864276e-02 -2.968843e-02
2.577013e-02 -1.424108e-02 -6.700961e-03
9.144998e-03 -2.082392e-02 9.793919e-03
-2.289433e-02 1.928390e-02 -2.516548e-02
-7.008652e-03 2.800947e-02 -2.886290e-02
1.688458e-02 -2.281283e-02 -2.836375e-02
-2.629101e-02 -1.073561e-02 -2.011609e-02
-1.217549e-03 -4.594064e-04 2.052695e-02
1.604673e-04 -1.409618e-03 2.102683e-02
2.846643e-02 -6.205034e-03 -1.313324e-02
2.406158e-02 2.034971e-03 1.060633e-02
2.404475e-02 -2.370024e-03 1.129476e-02
-8.505400e-03 -2.088544e-02 -3.069403e-02
8.563206e-03 5.391814e-03 -4.186277e-02
-9.239008e-03 -4.385437e-03 1.931394e-02
-1.627519e-02 1.119490e-02 -3.788407e-02
2.451082e-02 -1.866758e-02 -5.914524e-03
-6.598006e-03 -5.094705e-03 1.872167e-02
2.501554e-02 1.668168e-02 -6.809071e-03
6.735092e-04 4.790033e-04 2.110891e-02
9.579861e-03 3.768108e-04 1.870326e-02
9.211025e-03 -7.798101e-04 1.804252e-02
5.225279e-03 6.451376e-03 1.979839e-02
-2.619683e-03 2.647050e-02 -3.062524e-02
1.649811e-02 1.105057e-02 -3.166198e-02
-2.372086e-03 -7.304373e-03 1.780868e-02
-2.693273e-02 1.106241e-02 -8.063649e-03
-2.058340e-02 -7.594517e-03 -3.379209e-02
-2.781000e-02 1.707696e-02 -8.003979e-03
-2.039506e-02 -1.322616e-02 9.086003e-03
6.492609e-04 -8.567994e-04 1.967234e-02
-3.606871e-03 -3.145944e-02 -1.820993e-02
1.013536e-02 2.874493e-02 -2.122598e-02
1.712646e-02 -1.713768e-02 9.554513e-03
3.688982e-03 -1.492830e-03 -4.427150e-02
-1.831760e-02 -2.646654e-02 -1.502549e-02
-1.938479e-04 8.308561e-03 -3.955231e-02
-3.759207e-04 2.309078e-02 1.101016e-02
5.890074e-03 1.984223e-02 1.300672e-02
4.535885e-03 -8.578212e-03 1.978987e-02
-2.191791e-02 -5.420041e-04 1.128408e-02
1.235933e-03 5.509091e-04 1.983740e-02
-7.807549e-03 -4.632175e-03 1.977043e-02
1.425200e-02 1.931012e-02 1.018112e-02
-1.513768e-02 6.589384e-03 -3.841202e-02
-5.140244e-03 -2.761477e-02 -5.327222e-03
8.729574e-03 -3.560857e-05 1.973943e-02
-3.040625e-02 -1.063955e-02 -3.420074e-03
-1.066472e-02 2.369870e-02 -3.061864e-02
6.425908e-03 9.060728e-03 1.937218e-02
1.230502e-02 -1.382344e-02 -3.627895e-02
6.379980e-03 -5.720496e-03 1.983730e-02
-1.506067e-03 1.106138e-03 2.097235e-02
-4.389472e-03 8.943998e-03 1.765545e-02
4.472347e-03 -1.082215e-02 -4.183626e-02
2.163667e-02 1.841390e-02 -2.574489e-02
8.616840e-04 8.411486e-03 -4.298791e-02
-2.178878e-02 -1.798587e-02 -1.877619e-02
-1.227036e-02 -2.104509e-02 -2.981864e-02
-2.510254e-02 -1.872247e-02 -3.494022e-04
-1.988250e-03 -9.204078e-03 1.956664e-02
-9.125478e-04 -6.344470e-04 -4.365175e-02
-1.328249e-02 -1.811493e-02 9.551320e-03
4.821360e-04 -1.091325e-03 2.023668e-02
7.247029e-03 2.373687e-02 6.398948e-03
1.118602e-03 6.428705e-03 -4.211902e-02
2.659487e-03 2.062211e-02 1.410707e-02
-2.119439e-02 2.043059e-02 -1.125831e-02
-2.759763e-02 -1.666332e-02 -8.963796e-03
1.623519e-02 1.705077e-02 9.073446e-03
-1.580077e-02 1.843689e-02 9.561130e-03
-2.580993e-02 1.551241e-02 7.920335e-04
-1.607463e-03 9.347416e-03 1.922937e-02
1.525013e-03 -8.692497e-03 1.949036e-02
4.927747e-04 1.313612e-03 2.006765e-02
1.240975e-03 -1.139650e-02 -3.923243e-02
-1.808009e-02 -1.452913e-02 9.558803e-03
3.113184e-02 5.258331e-03 -2.054995e-02
2.293081e-03 8.375838e-03 1.762185e-02
-8.504068e-03 4.915263e-03 1.986686e-02
1.518574e-04 -2.306343e-02 1.040031e-02
-2.953524e-02 8.773326e-03 -2.233647e-02
-1.586455e-02 -1.423405e-02 1.193926e-02
8.610386e-04 6.951189e-03 1.905770e-02
2.732650e-02 -1.097812e-02 -2.043295e-02
-1.081097e-03 -5.695556e-04 1.995850e-02
-2.987657e-02 1.164223e-03 -2.670086e-02
7.457963e-03 3.048743e-02 -1.576998e-02
6.676771e-03 3.582992e-03 1.877368e-02
6.649412e-03 -3.180201e-03 1.880767e-02
-2.937094e-03 -1.452390e-03 -4.327522e-02
-1.333837e-02 -1.293992e-02 -3.550611e-02
-1.861164e-02 2.505511e-02 -8.631940e-03
9.786485e-03 -2.627588e-03 1.950019e-02
2.151360e-02 -2.357247e-02 -1.497116e-02
3.568180e-03 5.073438e-03 -4.333970e-02
-3.078263e-04 9.184722e-04 2.082711e-02
-1.750541e-02 5.957409e-03 -3.745509e-02
-2.198318e-02 -2.220772e-02 -7.557819e-03
1.809078e-02 -1.989451e-02 -3.033611e-02
1.855758e-02 -1.572250e-02 1.032731e-02
2.367195e-02 1.627246e-02 -2.537103e-02
-1.955516e-02 -1.516118e-02 9.891899e-03
6.906022e-03 -3.005521e-02 -1.688106e-02
2.039130e-02 -1.703853e-02 -2.922313e-02
3.035601e-03 8.517295e-03 1.966743e-02
-1.252539e-02 -1.059306e-03 -3.676865e-02
-6.207490e-04 -5.651241e-04 2.153219e-02
-1.515518e-02 1.915889e-04 -3.760056e-02
1.990659e-02 -1.404808e-02 9.786407e-03
2.156112e-02 -1.413792e-02 7.064156e-03
-2.613014e-02 1.960017e-02 -4.522153e-03
9.568274e-03 1.681474e-02 1.102702e-02
-1.044007e-02 1.978530e-02 1.002444e-02
1.073490e-03 -2.278871e-02 9.399106e-03
2.068959e-03 -1.070010e-03 -4.122724e-02
5.401996e-03 -5.880061e-03 1.861505e-02
-1.067839e-02 -2.899631e-02 -7.369752e-03
4.774613e-04 -8.331921e-04 2.046052e-02
1.817446e-03 -8.570305e-04 2.018388e-02
-6.176333e-04 8.430847e-03 1.945893e-02
2.770632e-02 6.145583e-03 3.824259e-03
2.750235e-02 -6.237054e-03 4.626867e-03
-1.609622e-02 1.557827e-02 1.212088e-02
5.681195e-04 3.030976e-04 -4.474525e-02
-1.802346e-03 2.072894e-02 1.406146e-02
-1.776439e-02 -2.585113e-02 -1.876914e-02
-6.204860e-03 6.569047e-03 1.826721e-02
2.305387e-02 -1.218801e-02 7.728236e-03
6.443145e-03 -3.148990e-02 -5.687521e-03
-4.186324e-04 4.930106e-04 2.094817e-02
2.107089e-02 1.211846e-02 -3.408906e-02
1.706543e-02 -1.445699e-02 1.152040e-02
1.174292e-02 -3.005744e-02 -1.501626e-02
3.002736e-02 1.158971e-02 -1.681581e-02
4.092513e-03 -2.561743e-03 -3.956104e-02
-7.176260e-03 5.314795e-03 1.849772e-02
-4.808736e-04 2.563544e-04 -4.193919e-02
-4.452070e-03 3.716951e-03 -4.346872e-02
-1.091261e-02 -1.913986e-02 1.222145e-02
-5.296775e-03 -7.837439e-03 1.949449e-02
3.015925e-04 -6.938189e-04 2.078251e-02
-2.781983e-02 1.009931e-03 -2.722565e-02
-2.924454e-02 -1.686229e-03 -2.742455e-02
2.096271e-02 5.457637e-03 1.270336e-02
2.114107e-02 -5.229871e-03 1.342839e-02
6.680842e-03 3.831182e-03 1.998970e-02
7.175576e-03 -3.888312e-03 2.026290e-02
6.487902e-03 8.464045e-03 -4.031247e-02
2.970793e-03 -7.780383e-03 1.976876e-02
-1.372100e-02 -2.495666e-02 -1.545321e-02
-5.229782e-03 -1.955712e-02 1.401107e-02
1.166020e-03 1.014925e-03 1.983755e-02
-1.530162e-02 1.756042e-02 -3.317706e-02
3.222220e-02 3.809227e-03 -1.381691e-02
2.840914e-02 -3.923606e-03 -1.335901e-02
2.018305e-02 -1.650632e-02 7.213569e-03
5.540234e-03 2.115599e-03 -4.355259e-02
-1.955295e-02 -1.020536e-02 -3.103130e-02
-5.447740e-03 2.608059e-02 -2.992924e-02
6.051616e-04 -1.917769e-02 1.468653e-02
-2.045420e-02 -1.150475e-02 -3.309019e-02
-5.024860e-04 -2.468750e-03 -3.972286e-02
-1.151322e-02 -1.003097e-04 1.945225e-02
1.065524e-02 -1.956752e-02 9.271077e-03
-1.243413e-02 1.993295e-02 -3.410315e-02
2.396684e-03 -2.209598e-02 9.233444e-03
9.022460e-03 -1.625579e-03 1.943384e-02
9.303286e-03 -3.063746e-02 -1.587150e-02
2.280061e-03 1.036060e-02 -4.163741e-02
2.329545e-02 -9.160131e-03 3.900111e-03
-4.286693e-03 8.532611e-03 1.929095e-02
2.151064e-02 1.388093e-02 8.923345e-03
-2.802297e-03 -1.137487e-02 -3.727520e-02
-2.279549e-02 5.408440e-04 9.791064e-03
2.210151e-02 1.160378e-02 9.671281e-03
2.839345e-02 -1.521283e-02 -5.925001e-03
-1.217024e-02 -2.095144e-02 -2.500197e-02
7.082815e-03 7.339317e-03 1.916620e-02
7.068164e-03 -3.134485e-03 1.874237e-02
1.297893e-02 -2.051469e-02 6.860428e-03
1.110981e-03 -2.931793e-02 -3.935406e-03
1.845277e-03 -9.650552e-03 1.962640e-02
-2.481505e-02 -4.023623e-03 -3.034879e-02
4.391571e-03 1.676781e-02 -3.916521e-02
-2.847086e-02 5.233477e-04 -1.288291e-03
1.033333e-02 2.398925e-02 -3.012968e-02
-2.800791e-04 7.036384e-03 -4.323904e-02
-1.627960e-02 -1.783737e-02 -3.303349e-02
2.956289e-02 -9.088363e-03 -1.715972e-02
-2.049526e-02 -2.509989e-02 -1.088101e-02
2.183347e-02 1.508459e-03 1.294558e-02
-2.679846e-02 -1.541255e-02 -3.665945e-03
-1.438579e-03 2.746242e-02 -2.832145e-02
-1.738853e-02 9.763608e-03 1.322335e-02
9.946399e-03 -1.995862e-02 9.560138e-03
-3.143791e-02 -6.322831e-04 -1.975960e-02
2.651884e-02 1.058751e-02 -4.311855e-03
2.858345e-02 -9.952414e-03 -2.336552e-03
-1.259077e-02 1.422567e-02 -3.864725e-02
2.108873e-02 2.508959e-02 -7.242016e-03
5.304879e-03 -7.251155e-03 -4.272971e-02
-2.072439e-02 7.619245e-03 1.091524e-02
-1.182758e-02 2.694680e-02 -2.408739e-02
1.835668e-03 8.809566e-03 1.958597e-02
-2.238234e-02 -1.219506e-02 -2.479676e-02
-6.543838e-03 5.612844e-03 1.851184e-02
-1.928573e-02 -6.652371e-05 -3.764521e-02
2.200304e-02 1.994222e-02 -1.668921e-02
-5.226374e-03 7.214119e-03 1.972423e-02
-8.296137e-03 -6.344594e-04 1.848663e-02
-9.322931e-03 1.597328e-03 1.788022e-02
-2.393550e-02 -1.716237e-02 -1.723724e-02
-2.147445e-02 5.123755e-03 1.233878e-02
-2.138252e-03 3.228078e-04 -4.113553e-02
8.950783e-03 -7.991521e-04 1.920735e-02
8.570499e-03 7.439266e-04 1.944889e-02
-4.171858e-03 -7.348660e-03 1.812223e-02
-6.756671e-04 2.778543e-04 -3.843802e-02
1.514286e-02 -2.687661e-02 -1.988627e-02
8.573685e-03 -2.053330e-02 -3.442591e-02
-8.919784e-03 4.597911e-03 -4.200492e-02
-3.399377e-03 -1.500667e-03 -4.396810e-02
2.182890e-02 2.291516e-02 -4.532414e-03
2.274540e-03 -6.690330e-03 2.094095e-02
-2.232737e-02 -3.303113e-03 1.258593e-02
-1.697309e-02 -2.593269e-02 -7.106105e-04
-5.964216e-03 1.351521e-02 -3.977685e-02
2.370151e-03 1.984147e-02 1.196140e-02
-5.752352e-04 2.484354e-04 2.167929e-02
1.975564e-02 -1.050083e-04 -3.838768e-02
-6.596075e-04 -3.092909e-02 -1.851428e-02
2.342772e-02 1.847698e-02 9.828501e-04
7.602112e-03 2.409708e-03 1.928565e-02
7.262467e-03 -2.754770e-03 2.004137e-02
-2.838601e-02 1.600503e-02 -5.646641e-03
-1.955728e-02 1.415709e-02 1.061525e-02
-1.351459e-02 -1.795960e-02 1.128410e-02
1.622100e-02 1.511850e-02 1.164538e-02
7.335826e-03 8.990155e-04 2.011009e-02
-4.716077e-03 -1.532198e-02 -3.903451e-02
3.197246e-02 -1.232998e-04 -1.919144e-02
1.845581e-02 2.616595e-02 -1.346934e-02
-1.324662e-02 1.563035e-02 1.345641e-02
2.857027e-02 1.350109e-03 -4.014301e-03
2.918130e-02 6.212549e-05 -4.568445e-03
-8.117100e-03 -2.991262e-02 -2.243555e-02
2.627379e-02 1.454835e-02 1.445655e-03
2.261208e-02 -5.530174e-03 1.196708e-02
-9.936645e-03 1.484667e-02 1.459430e-02
-4.222909e-03 -8.208353e-03 1.873006e-02
1.588479e-02 1.302484e-02 1.017356e-02
2.737032e-02 1.786125e-04 -1.640305e-03
6.840260e-03 2.921159e-02 -2.000935e-02
3.034636e-03 7.015724e-03 2.038549e-02
-2.311113e-02 -1.105879e-02 4.403616e-03
2.809724e-04 8.193331e-03 1.968022e-02
1.516313e-02 2.837651e-02 -1.728378e-02
2.968529e-02 3.953232e-03 -2.009531e-03
1.762312e-02 2.078063e-02 -2.506365e-02
-2.098701e-02 -1.315827e-02 1.058761e-02
1.311619e-02 -1.642476e-02 1.091762e-02
-1.706117e-02 9.947770e-03 1.207004e-02
2.353011e-02 3.794693e-04 1.074513e-02
1.406216e-02 2.903012e-04 -4.025086e-02
1.425949e-02 1.864736e-02 9.581449e-03
-2.344581e-02 1.699633e-02 -6.024536e-03
2.253042e-02 2.149040e-02 -1.564453e-02
1.206571e-02 -2.903838e-02 -1.963066e-02
-1.001527e-02 2.821910e-02 1.469962e-03
-1.571728e-03 7.701194e-03 2.011049e-02
1.374243e-02 -1.657055e-02 1.227060e-02
-1.804454e-02 1.635718e-02 1.022773e-02
-6.822881e-03 4.654846e-03 2.034999e-02
1.132065e-02 5.189936e-05 1.947618e-02
9.386785e-03 -1.825414e-02 1.200304e-02
7.087643e-03 -2.429077e-02 -3.012504e-02
5.669419e-03 -5.863591e-03 1.970639e-02
-6.725061e-03 -1.157477e-02 -4.148218e-02
2.070900e-02 -2.143536e-03 1.196362e-02
-1.492290e-02 -2.715523e-02 -1.004661e-02
2.576376e-02 1.089225e-02 -2.867750e-02
-3.180223e-03 7.808574e-03 2.016284e-02
-1.833911e-02 1.418251e-03 -3.812988e-02
-1.771353e-02 2.605135e-03 1.333268e-02
9.655134e-03 -2.509459e-02 -2.888610e-02
-2.055973e-02 -3.319272e-03 1.226035e-02
-4.019867e-03 2.402788e-02 1.026135e-02
-3.715424e-03 3.091971e-02 -2.061835e-02
-1.932873e-02 -1.771625e-02 7.938607e-03
1.809233e-02 -2.668131e-02 -1.234320e-02
1.485969e-02 2.521629e-02 2.418103e-03
-1.548652e-03 -6.739985e-03 1.928355e-02
-8.060464e-03 4.228734e-04 1.983664e-02
-8.541062e-03 -6.999044e-04 2.008338e-02
-1.199711e-03 3.088266e-03 -4.378047e-02
1.186159e-02 2.498898e-02 -2.695396e-02
7.746618e-04 -3.046191e-02 -2.280273e-02
-2.758574e-02 2.516688e-03 -3.410975e-03
3.082867e-02 -4.771613e-03 -7.378486e-03
-4.177604e-03 -1.840081e-02 1.587412e-02
1.172485e-02 2.573124e-02 -2.712488e-02
2.270398e-03 -6.485372e-03 1.906947e-02
-1.592799e-02 -1.217524e-02 1.415403e-02
1.355017e-02 -6.916457e-03 -4.139717e-02
4.973269e-03 -1.776462e-02 -3.785225e-02
-5.840302e-03 -5.544896e-03 1.992090e-02
2.189803e-02 -1.543487e-02 6.777001e-03
6.319496e-03 2.638518e-02 6.561574e-03
-7.151328e-03 5.069054e-04 2.005406e-02
6.630485e-03 -4.903834e-03 1.732048e-02
-1.554381e-03 -7.216697e-03 1.995688e-02
5.240384e-03 -1.631205e-02 1.265581e-02
2.340443e-02 6.363546e-03 -3.285123e-02
-1.644863e-02 7.338104e-03 -3.336389e-02
-1.418632e-02 2.424428e-02 -1.357190e-02
1.942803e-03 2.021447e-02 1.247621e-02
-1.222598e-03 5.590439e-03 1.885646e-02
2.131231e-02 1.634412e-02 6.083252e-03
2.922209e-02 8.428883e-03 -1.806748e-03
2.938341e-02 -9.660105e-03 -1.768225e-03
-7.371566e-03 -5.110446e-03 1.898006e-02
4.710754e-03 2.469774e-02 -3.228516e-02
-9.077670e-03 1.605216e-02 1.390155e-02
-2.655776e-02 -1.170441e-02 -2.040646e-02
-6.294637e-03 2.165552e-02 1.077831e-02
8.888611e-03 -1.647401e-02 -3.104713e-02
-2.797250e-03 -7.073611e-03 1.835986e-02
1.582834e-02 -1.031199e-02 1.258762e-02
-2.836596e-02 1.253416e-02 -5.540322e-03
-6.864453e-03 2.724147e-02 -2.613134e-02
6.348818e-03 -2.139459e-02 9.791169e-03
-1.654978e-02 -8.846273e-03 1.279887e-02
-2.892263e-02 3.397827e-03 -9.898690e-03
6.064932e-03 -1.238119e-02 -3.631463e-02
-2.463214e-03 7.428986e-03 1.943778e-02
2.643746e-02 -1.769004e-02 -5.581361e-03
-1.714783e-02 -2.487419e-02 -6.249722e-04
7.133475e-03 -2.245054e-02 8.691376e-03
-9.414880e-03 -2.155397e-02 1.225637e-02
-2.068161e-06 -9.483235e-04 2.105367e-02
-2.993455e-02 -1.296760e-02 -9.046009e-03
-2.964445e-02 -6.258956e-03 3.084999e-04
-1.582586e-02 1.541421e-02 -3.659549e-02
-1.602098e-02 -1.349304e-02 -3.166681e-02
1.181715e-02 -9.054728e-03 -4.047947e-02
4.092836e-03 3.715245e-03 -4.246894e-02
1.107075e-02 -4.544806e-03 -3.737914e-02
-3.733761e-03 8.771681e-03 -3.956094e-02
5.479017e-03 1.306678e-02 -4.179143e-02
1.545877e-02 1.101359e-02 1.167099e-02
2.544902e-02 -1.129196e-02 -1.777453e-02
-3.865708e-03 -3.194247e-02 -6.849952e-03
-7.014522e-03 3.600041e-03 1.978062e-02
-3.447376e-03 2.976110e-02 -4.024338e-03
-2.349399e-03 -7.141919e-03 1.865793e-02
-1.800512e-02 2.545465e-02 -3.696199e-03
-8.968422e-03 -6.722987e-04 1.996978e-02
-4.881638e-03 -3.014894e-02 -5.565136e-03
-6.976594e-03 6.070869e-03 1.959516e-02
-2.020359e-02 3.750514e-03 1.323008e-02
-1.993818e-02 -3.333369e-03 1.479898e-02
-1.591192e-02 -2.786921e-02 -8.107830e-03
-1.071573e-02 -1.475144e-02 1.276120e-02
1.249018e-02 2.402911e-02 -2.187038e-02
3.508717e-04 -9.932263e-04 -4.462554e-02
-2.595364e-02 -6.883806e-03 -2.094820e-02
7.551462e-03 1.961936e-02 1.311367e-02
-4.684812e-03 -3.081574e-02 -1.518438e-02
6.442515e-03 5.924124e-03 1.835844e-02
-7.712721e-03 -3.836207e-03 1.996492e-02
1.994498e-02 -2.572130e-02 -1.267745e-02
-4.409900e-03 1.723913e-02 -3.488302e-02
-1.319624e-02 -1.554546e-02 1.296225e-02
-1.495009e-02 -3.430679e-03 1.625585e-02
1.080705e-02 2.955604e-02 -5.177218e-03
5.727846e-03 -7.377984e-03 1.903434e-02
1.325303e-03 1.269265e-03 -4.456655e-02
-1.604042e-03 2.236206e-02 1.274139e-02
-5.284440e-03 -1.888415e-03 -4.390089e-02
2.624301e-03 8.800022e-03 1.940349e-02
1.867572e-02 -2.084305e-02 -6.722140e-03
-1.496164e-02 1.213154e-02 1.364466e-02
-2.034665e-02 -1.003882e-02 1.164621e-02
-1.489814e-02 2.464941e-02 4.376860e-03
-6.179061e-03 1.865100e-03 1.863085e-02
2.729528e-05 -7.016368e-03 1.886494e-02