# vtk DataFile Version 2.0
Electric current density generated by TTH
ASCII
DATASET UNSTRUCTURED_GRID
POINTS 17544 double
4.035044e-05 1.565776e-05 -8.012513e-23
-3.078383e-06 -4.317230e-05 -8.012513e-23
1.239647e-05 -4.085978e-05 -2.038001e-07
-3.111934e-05 2.923664e-05 -2.038001e-07
-2.385752e-05 3.541204e-05 -2.038001e-07
-1.225108e-05 4.146825e-05 1.600593e-07
3.099703e-05 -2.950529e-05 2.852383e-07
-1.340249e-06 4.321931e-05 1.600409e-07
3.448636e-05 -2.579182e-05 -3.082840e-07
-2.877395e-05 3.227246e-05 -1.651573e-07
-2.390376e-05 3.602863e-05 -1.651573e-07
-1.067373e-05 -4.189896e-05 -1.651573e-07
-2.873471e-06 -4.318642e-05 -8.012513e-23
-3.599532e-06 4.308707e-05 -1.651573e-07
-1.440314e-05 4.076765e-05 -1.651573e-07
-3.172048e-05 2.938134e-05 -1.651573e-07
1.320571e-06 4.321699e-05 -1.651573e-07
-8.472992e-06 4.239882e-05 -1.651573e-07
-1.044967e-05 4.195541e-05 -1.651573e-07
-4.824753e-06 4.296712e-05 -1.651573e-07
-6.046063e-06 4.281235e-05 -1.651573e-07
-2.286835e-05 3.669456e-05 -1.651573e-07
-1.836435e-05 -3.914336e-05 -1.651573e-07
-2.668493e-06 -4.319957e-05 -8.012513e-23
-1.379678e-05 -4.097683e-05 -1.651573e-07
1.284540e-05 -4.128496e-05 -1.651573e-07
-1.186226e-05 -4.157810e-05 -1.651573e-07
-5.410289e-06 -4.289733e-05 -1.651573e-07
-2.918745e-05 -3.146211e-05 3.248138e-07
-3.320178e-05 2.719216e-05 3.248138e-07
9.810567e-06 -4.177947e-05 3.248138e-07
-4.276965e-05 -3.539572e-06 3.248138e-07
7.416721e-06 -4.227013e-05 3.248138e-07
-2.043900e-05 3.773618e-05 3.248138e-07
-2.463456e-06 -4.321175e-05 -8.012513e-23
-3.528515e-05 -2.442806e-05 3.248138e-07
-4.092724e-05 1.291249e-05 3.248138e-07
3.783313e-06 -4.274878e-05 3.248138e-07
-2.827990e-05 -3.228032e-05 3.248138e-07
-3.661831e-05 -2.238015e-05 3.248138e-07
-1.673304e-05 3.951933e-05 3.248138e-07
-4.282921e-05 -2.732349e-06 3.248627e-07
-4.288795e-05 -1.547615e-06 3.248138e-07
2.117104e-06 -4.286362e-05 3.248138e-07
8.617137e-06 -4.204184e-05 3.248138e-07
-2.258363e-06 -4.322295e-05 -8.012513e-23
-2.989631e-05 3.078932e-05 3.248138e-07
-2.558651e-05 3.445435e-05 3.248138e-07
-3.396247e-05 2.623589e-05 3.248138e-07
-4.291463e-05 -3.259757e-07 3.248138e-07
-2.405815e-05 -3.553839e-05 3.248138e-07
-3.007134e-05 -3.061840e-05 3.248138e-07
-3.064373e-05 -3.004611e-05 3.248627e-07
-4.154524e-05 -1.075940e-05 3.248138e-07
-3.259757e-07 -4.291463e-05 3.248138e-07
-4.234530e-05 6.974774e-06 3.248138e-07
-2.053219e-06 -4.323318e-05 -8.012513e-23
-4.278597e-05 3.336565e-06 3.248138e-07
8.959274e-07 -4.290651e-05 3.248138e-07
-3.746138e-05 -2.093840e-05 3.248138e-07
-3.146211e-05 -2.918745e-05 3.248138e-07
-4.212956e-05 8.177509e-06 3.248138e-07
-3.596631e-05 -2.341360e-05 3.248138e-07
-2.025969e-05 -3.783275e-05 3.248138e-07
4.082771e-05 1.311802e-05 -3.192500e-07
4.082771e-05 -1.311802e-05 -3.192500e-07
4.314424e-05 2.785803e-06 -1.702959e-07
-1.848029e-06 -4.324244e-05 -8.012513e-23
3.691233e-05 2.250740e-05 -1.718705e-07
5.380252e-06 4.265047e-05 3.253939e-07
-3.163158e-06 -4.309849e-05 1.990148e-07
4.222820e-05 -5.921496e-06 9.371950e-08
7.452285e-06 4.259225e-05 1.614481e-07
3.057480e-05 3.057480e-05 -1.614374e-07
4.227810e-05 5.510542e-06 7.224333e-08
4.316066e-05 2.405822e-06 -1.804228e-07
-1.628827e-05 -4.002734e-05 1.988544e-07
3.413079e-05 2.553843e-05 6.898423e-09
-1.642797e-06 -4.325072e-05 -8.012513e-23
2.879982e-05 -3.194220e-05 3.226884e-07
2.879982e-05 3.194220e-05 3.226884e-07
9.591358e-06 4.192541e-05 -3.226885e-07
3.856906e-05 -1.952797e-05 -1.753559e-07
4.248834e-05 -5.113920e-06 -2.854594e-07
4.268690e-05 5.388998e-06 3.193494e-07
3.754192e-05 -2.144838e-05 -1.656171e-07
1.700025e-05 3.974623e-05 1.779361e-07
3.334470e-05 2.751944e-05 -1.702523e-07
3.427089e-05 2.588541e-05 -3.270697e-07
-1.437528e-06 -4.325803e-05 -8.012513e-23
-2.285454e-05 -3.667416e-05 2.014193e-07
-1.968465e-05 -3.848555e-05 1.805468e-07
-4.197426e-05 1.027064e-05 2.014193e-07
-4.300541e-05 -4.376967e-06 1.805468e-07
-1.760216e-05 3.948148e-05 1.805468e-07
-4.046355e-05 -1.516660e-05 2.014193e-07
-2.687443e-05 -3.383917e-05 2.014193e-07
-2.166183e-06 4.315822e-05 2.014193e-07
-3.470137e-05 2.577670e-05 1.805468e-07
-4.097193e-05 1.378129e-05 1.805468e-07
-1.232227e-06 -4.326437e-05 -8.012513e-23
-1.303464e-05 4.119979e-05 2.014193e-07
-4.163520e-05 -1.162469e-05 1.805468e-07
-4.302570e-05 4.172832e-06 1.805468e-07
6.666429e-06 -4.271044e-05 1.805468e-07
-1.186654e-05 4.157030e-05 1.755322e-07
-3.849033e-05 -1.964228e-05 2.014193e-07
-3.678221e-05 2.268025e-05 2.014193e-07
-4.221206e-05 -9.244804e-06 2.014193e-07
-4.322483e-05 4.867893e-07 1.805468e-07
4.223156e-05 6.542025e-06 2.425557e-07
4.027568e-05 1.584907e-05 -8.012513e-23
-1.026899e-06 -4.326973e-05 -8.012513e-23
3.587491e-06 4.309362e-05 1.553169e-07
4.211153e-05 -7.269039e-06 -2.416769e-07
3.763254e-05 2.129277e-05 1.623941e-07
-8.157853e-06 4.184054e-05 2.250692e-08
4.584108e-06 4.271754e-05 3.270371e-07
3.847556e-05 -1.921595e-05 -3.229031e-07
1.146158e-05 -4.166493e-05 2.012758e-07
-2.705647e-05 3.369394e-05 2.012758e-07
-3.069292e-05 3.043980e-05 1.803095e-07
-2.511356e-05 3.518446e-05 1.803095e-07
-8.215466e-07 -4.327411e-05 -8.012513e-23
-9.423910e-07 4.322071e-05 1.752902e-07
3.232568e-05 -2.840456e-05 -3.178446e-07
1.750462e-05 3.905208e-05 2.858892e-07
-1.694404e-05 -3.911874e-05 4.461482e-08
-2.145511e-05 3.683822e-05 4.461482e-08
-1.539729e-05 3.975298e-05 4.461482e-08
-4.066668e-06 -4.243629e-05 4.461482e-08
4.288563e-05 -3.543671e-06 -3.179412e-07
1.713311e-05 -3.940327e-05 3.269080e-07
-3.546633e-06 -4.256085e-05 2.151757e-07
-6.161761e-07 -4.327752e-05 -8.012513e-23
-1.648769e-05 -3.939747e-05 2.151761e-07
3.526871e-05 2.394233e-05 -2.804469e-09
3.526871e-05 -2.394233e-05 -2.804469e-09
4.257285e-05 3.535897e-06 2.272262e-07
-4.785166e-06 -4.250718e-05 -2.737518e-07
-1.312414e-05 -4.071135e-05 -2.729787e-07
-2.213732e-05 3.660187e-05 -2.737518e-07
-1.478690e-05 4.013858e-05 -2.737518e-07
-9.782834e-06 4.164196e-05 -2.737388e-07
-4.130322e-06 4.257583e-05 -2.737729e-07
-4.107918e-07 -4.327996e-05 -8.012513e-23
-1.764943e-05 -3.896480e-05 -2.737518e-07
3.151804e-05 2.891897e-05 -2.732604e-07
3.600474e-05 -2.346392e-05 3.264760e-07
3.600474e-05 2.346392e-05 3.264760e-07
1.755235e-05 -3.921868e-05 3.268953e-07
4.276819e-05 4.261215e-06 3.261654e-07
4.217496e-05 -6.908629e-06 -2.441667e-07
3.377752e-05 2.673149e-05 -3.040673e-07
3.256027e-05 -2.770048e-05 2.544162e-07
4.025697e-05 -1.466352e-05 3.079516e-07
-2.053982e-07 -4.328142e-05 -8.012513e-23
4.025697e-05 1.466352e-05 3.079516e-07
-1.641627e-05 -3.979450e-05 3.136877e-07
-3.586834e-06 -4.309047e-05 1.610916e-07
2.409677e-05 -3.588880e-05 -1.799023e-07
2.409677e-05 3.588880e-05 -1.799023e-07
-1.668912e-05 -3.988894e-05 1.610893e-07
-3.356196e-06 -4.291637e-05 3.137482e-07
4.187684e-05 -8.987502e-06 3.025798e-07
4.187684e-05 8.987502e-06 3.025798e-07
3.591521e-05 2.407658e-05 1.625153e-07
2.227016e-19 -4.328191e-05 -8.012513e-23
3.591521e-05 -2.407658e-05 1.625153e-07
4.251518e-05 4.838472e-06 2.823826e-07
4.287181e-05 5.626933e-06 1.610919e-07
3.448051e-05 2.609141e-05 -1.608173e-07
4.301629e-05 4.399882e-06 -1.589115e-07
7.494359e-07 4.276842e-05 -2.732990e-07
-2.804459e-05 3.229976e-05 -2.738687e-07
-1.458800e-05 -4.021148e-05 -2.738687e-07
3.585074e-05 -2.306300e-05 2.180767e-08
3.585074e-05 2.306300e-05 2.180767e-08
2.053982e-07 -4.328142e-05 -8.012513e-23
2.131471e-05 -3.732848e-05 3.257125e-07
4.267168e-05 -2.160870e-06 -2.341901e-07
4.160712e-05 1.106653e-05 -3.118211e-07
4.160712e-05 -1.106653e-05 -3.118211e-07
3.886975e-05 1.894163e-05 1.613302e-07
-7.558777e-06 4.195216e-05 -4.743533e-09
3.268462e-05 2.737741e-05 -7.238156e-08
3.170262e-05 -2.850967e-05 7.494351e-08
2.997668e-06 4.313407e-05 -1.635204e-07
3.240242e-05 2.863480e-05 1.566281e-07
4.107918e-07 -4.327996e-05 -8.012513e-23
3.277371e-05 -2.726858e-05 -6.613476e-08
3.398209e-05 -2.674108e-05 1.566454e-07
1.887729e-05 3.889220e-05 1.746035e-07
3.137472e-05 -2.915149e-05 -3.013017e-07
-3.563186e-05 2.417181e-05 3.107509e-07
-4.240904e-05 -7.441717e-06 3.107509e-07
-3.816771e-05 1.992817e-05 3.107509e-07
-4.093723e-05 -1.334351e-05 3.107509e-07
-3.913790e-05 -1.794800e-05 3.107509e-07
-1.920011e-05 3.853909e-05 3.107509e-07
6.161761e-07 -4.327752e-05 -8.012513e-23
-3.254809e-05 -2.818736e-05 3.107509e-07
-2.534192e-05 -3.480938e-05 3.107509e-07
1.431102e-05 -4.060912e-05 3.107509e-07
3.837502e-06 4.248844e-05 -1.447226e-07
-2.122170e-05 -3.746383e-05 3.107780e-07
-3.480929e-05 -2.534191e-05 3.107780e-07
-1.349149e-06 -4.303578e-05 3.107780e-07
4.812923e-06 -4.278708e-05 3.107780e-07
-3.265382e-05 2.806469e-05 3.107780e-07
-4.299397e-05 2.327458e-06 3.107780e-07
8.215466e-07 -4.327411e-05 -8.012513e-23
-2.925275e-05 3.159392e-05 3.107780e-07
-4.263864e-05 5.987093e-06 3.107780e-07
-4.135776e-05 1.197642e-05 3.107780e-07
-4.150139e-05 9.994533e-06 -1.891803e-07
-3.795179e-05 -1.954255e-05 -1.890840e-07
-4.216681e-05 6.667459e-06 -1.930769e-07
4.036539e-06 -4.249943e-05 -1.930769e-07
-2.666977e-05 -3.333132e-05 -1.891525e-07
-2.039471e-05 -3.750401e-05 -1.930769e-07
-2.057246e-05 3.740680e-05 -1.930769e-07
4.020002e-05 1.604002e-05 -8.012513e-23
1.026899e-06 -4.326973e-05 -8.012513e-23
-4.002658e-05 -1.483668e-05 -1.891525e-07
-3.494320e-05 -2.452485e-05 -1.930769e-07
-2.660618e-05 3.338214e-05 -1.891793e-07
-1.984259e-06 4.264175e-05 -1.891803e-07
-2.954210e-05 3.081817e-05 -1.930769e-07
-4.166593e-05 -9.284696e-06 -1.891803e-07
-3.625371e-05 2.253713e-05 -1.891525e-07
-1.639238e-05 3.941808e-05 -1.930769e-07
-3.285314e-05 2.726108e-05 -1.930769e-07
-1.272775e-05 4.074629e-05 -1.891803e-07
1.232227e-06 -4.326437e-05 -8.012513e-23
-5.984721e-07 -4.268650e-05 -1.930769e-07
-4.258192e-05 3.045598e-06 -1.930769e-07
1.117203e-05 -4.120002e-05 -1.891793e-07
-2.270914e-05 -3.614624e-05 -1.891803e-07
-4.079417e-05 1.258296e-05 -1.930769e-07
4.132672e-06 4.301579e-05 1.997352e-07
3.244145e-05 -2.818156e-05 3.266473e-07
4.193857e-05 -1.049812e-05 1.727893e-07
[...]
POINT_DATA 17544
VECTORS 10.000GHz_fone_imag double
4.960014e+10 -1.307959e+11 -1.237276e+09
-1.435215e+11 9.589447e+09 7.095499e+08
-1.396720e+11 -4.298927e+10 9.319920e+08
9.969041e+10 1.071052e+11 7.821639e+08
1.216684e+11 8.113829e+10 -7.594820e+08
1.386213e+11 4.086119e+10 -1.202947e+08
-9.895479e+10 -1.058448e+11 -1.357556e+09
1.431068e+11 4.661691e+09 -8.781854e+08
-8.698486e+10 -1.154067e+11 3.791737e+09
1.066548e+11 9.378890e+10 -2.877893e+08
1.182176e+11 7.816690e+10 -4.301160e+08
-1.401161e+11 3.623581e+10 1.497808e+09
-1.455902e+11 8.640589e+09 -7.484308e+08
1.418492e+11 1.259288e+10 -9.016979e+08
1.338555e+11 4.814085e+10 -8.194740e+08
9.622558e+10 1.041316e+11 5.391533e+08
1.414389e+11 -3.723337e+09 -6.592026e+08
1.403181e+11 2.865525e+10 -7.128963e+08
1.383405e+11 3.415122e+10 1.480345e+09
1.411467e+11 1.593614e+10 -6.261859e+08
1.423202e+11 2.099955e+10 1.261053e+08
1.215071e+11 7.499279e+10 1.670298e+09
-1.291398e+11 5.970390e+10 -8.240021e+08
-1.420890e+11 1.309308e+10 -7.321061e+07
-1.349873e+11 4.512112e+10 -8.478920e+08
-1.353158e+11 -4.229872e+10 5.911217e+08
-1.367994e+11 4.093480e+10 -7.080465e+08
-1.414748e+11 1.690492e+10 -6.612986e+08
-1.049086e+11 9.605901e+10 -3.555608e+09
8.990012e+10 1.114983e+11 -2.905992e+09
-1.385245e+11 -3.149574e+10 3.579990e+09
-1.321262e+10 1.459856e+11 5.044454e+09
-1.411792e+11 -2.394020e+10 3.226363e+09
1.275580e+11 6.769157e+10 1.998316e+09
-1.424149e+11 5.562275e+09 1.730441e+07
-8.074076e+10 1.184383e+11 2.870040e+09
4.313696e+10 1.352508e+11 3.014727e+09
-1.420243e+11 -1.203963e+10 2.959754e+09
-1.077568e+11 9.252780e+10 -3.564331e+09
-7.286232e+10 1.219036e+11 3.565203e+09
1.316736e+11 5.683780e+10 -1.745461e+09
-7.985258e+09 1.453371e+11 -8.769746e+08
-3.650553e+09 1.426156e+11 2.719599e+09
-1.446216e+11 -8.413041e+09 -3.189964e+09
-1.399569e+11 -2.757268e+10 2.823604e+09
-1.409445e+11 7.622451e+09 -3.134312e+08
1.036254e+11 1.012495e+11 -2.337986e+09
1.160362e+11 8.484640e+10 3.107918e+09
8.501169e+10 1.137350e+11 -3.302552e+09
-3.107839e+08 1.432283e+11 3.239969e+09
-1.178954e+11 8.124079e+10 3.081224e+09
-1.048632e+11 1.018513e+11 3.596641e+09
-9.965998e+10 1.039186e+11 -1.668781e+09
-3.730975e+10 1.378253e+11 -3.291108e+09
-1.433443e+11 7.093629e+07 -2.866643e+09
2.316175e+10 1.400051e+11 3.089866e+09
-1.415198e+11 4.697770e+09 -1.906207e+08
1.210068e+10 1.457808e+11 2.822056e+09
-1.421219e+11 -4.052783e+09 -3.550065e+09
-6.986342e+10 1.243703e+11 -3.187325e+09
-9.603559e+10 1.055257e+11 2.730510e+09
2.790812e+10 1.401644e+11 3.097012e+09
-7.663183e+10 1.197148e+11 3.545028e+09
-1.293140e+11 6.841421e+10 -2.822779e+09
4.471296e+10 -1.384396e+11 1.211633e+09
-4.471276e+10 -1.384394e+11 -1.211812e+09
8.826690e+09 -1.424721e+11 -1.168339e+09
-1.406688e+11 8.024985e+09 8.353667e+07
7.576493e+10 -1.228019e+11 -2.233998e+09
1.451007e+11 -1.936716e+10 3.350614e+09
-1.423903e+11 9.604154e+09 2.660792e+08
-1.934288e+10 -1.459809e+11 -1.982808e+09
1.408672e+11 -2.341417e+10 9.077455e+08
1.001051e+11 -1.016400e+11 1.426633e+09
1.899426e+10 -1.464701e+11 9.438239e+08
8.350222e+09 -1.404841e+11 7.292959e+08
-1.328385e+11 5.300711e+10 1.895487e+08
9.009096e+10 -1.170465e+11 4.578952e+08
-1.430651e+11 3.250023e+09 1.009368e+09
-1.061509e+11 -9.646905e+10 1.092868e+09
1.064545e+11 -9.698791e+10 -9.041309e+08
1.405648e+11 -3.134881e+10 -8.969141e+08
-6.247965e+10 -1.293846e+11 -2.200975e+09
-1.681202e+10 -1.456739e+11 1.363931e+08
1.756556e+10 -1.421444e+11 4.110151e+09
-7.105346e+10 -1.234330e+11 -2.808758e+08
1.297825e+11 -5.844065e+10 3.025192e+08
9.318074e+10 -1.099658e+11 1.838505e+08
8.646442e+10 -1.143566e+11 1.858238e+08
-1.456553e+11 6.261839e+09 7.836721e+08
-1.214095e+11 7.467437e+10 7.256948e+08
-1.309390e+11 6.360321e+10 2.364193e+08
3.478197e+10 1.382412e+11 -5.097386e+08
-1.758651e+10 1.435897e+11 1.920390e+08
1.316021e+11 6.194246e+10 2.410559e+08
-5.107138e+10 1.338013e+11 4.796465e+08
-1.123882e+11 8.807915e+10 4.778646e+08
1.428673e+11 8.040612e+09 3.697049e+08
8.397758e+10 1.178828e+11 3.006350e+08
4.825713e+10 1.370459e+11 -1.134051e+09
-1.428670e+11 3.331596e+09 -3.534355e+09
1.361523e+11 4.378689e+10 4.977500e+08
-4.201275e+10 1.393153e+11 2.346592e+08
1.703174e+10 1.444877e+11 -2.316049e+08
-1.441598e+11 -1.946208e+10 -2.231918e+08
1.398752e+11 3.684927e+10 4.617120e+08
-6.420218e+10 1.271172e+11 -1.077813e+09
7.444914e+10 1.223745e+11 4.706067e+08
-2.969420e+10 1.393182e+11 -7.790674e+08
4.325484e+09 1.439273e+11 -3.513359e+08
2.155453e+10 -1.440872e+11 4.415258e+08
5.436600e+10 -1.291581e+11 4.779601e+08
-1.466550e+11 3.842006e+09 1.663706e+09
1.427564e+11 -1.346520e+10 -9.615474e+07
-2.546749e+10 -1.452292e+11 -1.166256e+08
6.948831e+10 -1.235455e+11 9.258475e+08
1.432739e+11 2.934775e+10 -2.212901e+09
1.432240e+11 -1.532299e+10 -4.855512e+08
-6.392433e+10 -1.284793e+11 3.114504e+09
-1.372949e+11 -3.863179e+10 7.388960e+08
1.106682e+11 8.992815e+10 7.347316e+08
1.004252e+11 1.051247e+11 4.650464e+08
1.188946e+11 8.154477e+10 -3.660179e+08
-1.468605e+11 3.642559e+09 1.810953e+09
1.433433e+11 1.459288e+09 -8.285210e+08
-9.398063e+10 -1.064000e+11 -9.441340e+08
1.334254e+11 -5.657788e+10 1.150579e+09
-1.375024e+11 5.830070e+10 -1.480487e+08
1.287477e+11 7.419912e+10 9.732324e+08
1.366244e+11 5.345688e+10 -2.479347e+08
-1.488496e+11 1.310347e+10 -1.513472e+08
-1.193182e+10 -1.411791e+11 -2.067683e+09
-1.322537e+11 -5.742161e+10 5.469498e+08
-1.449191e+11 1.236665e+10 4.343937e+08
-1.440737e+11 3.745932e+09 -1.435255e+07
-1.339069e+11 5.635449e+10 4.739239e+08
8.186081e+10 -1.235315e+11 -6.217540e+08
-8.195185e+10 -1.238934e+11 -4.068918e+08
1.405189e+10 -1.485666e+11 -2.684974e+09
-1.427570e+11 1.416217e+10 1.667896e+09
-1.370910e+11 4.155780e+10 1.929476e+09
1.234087e+11 7.251743e+10 -1.695948e+09
1.339557e+11 5.121932e+10 1.752115e+09
1.395807e+11 2.984278e+10 -1.632549e+09
1.416703e+11 1.619963e+10 1.811790e+09
-1.475537e+11 -1.530794e+09 -3.177011e+09
-1.313675e+11 5.744745e+10 1.680975e+09
9.834386e+10 -1.073539e+11 4.473654e+08
-7.842860e+10 -1.196934e+11 2.780924e+09
7.867696e+10 -1.195612e+11 -2.599120e+09
-1.344728e+11 -5.881065e+10 -2.791881e+09
1.498952e+10 -1.448688e+11 -1.426066e+09
-2.286532e+10 -1.445167e+11 -3.036571e+09
8.768696e+10 -1.113609e+11 -1.728611e+09
-9.449467e+10 -1.089776e+11 3.930850e+09
-4.854108e+10 -1.375155e+11 -1.240486e+09
-1.437693e+11 1.716093e+09 1.371929e+08
4.854061e+10 -1.375151e+11 1.240383e+09
-1.345116e+11 5.523441e+10 8.789760e+08
-1.425845e+11 1.232017e+10 -1.215493e+08
-1.199742e+11 -7.771843e+10 -6.338933e+08
1.199742e+11 -7.771844e+10 6.339071e+08
-1.319540e+11 5.574493e+10 -7.516613e+07
-1.451286e+11 1.088426e+10 8.484719e+08
-3.211685e+10 -1.425881e+11 1.376672e+09
3.205144e+10 -1.424573e+11 -1.436969e+09
8.301487e+10 -1.178505e+11 1.029658e+09
-1.430683e+11 -6.173947e+08 -1.208034e+09
-8.284818e+10 -1.180451e+11 -8.408865e+08
1.587907e+10 -1.441233e+11 2.134937e+09
2.050532e+10 -1.413922e+11 2.668509e+08
8.670991e+10 -1.128293e+11 -1.726184e+09
1.401770e+10 -1.404014e+11 2.085438e+08
1.436600e+11 -5.407400e+08 2.338211e+09
1.096207e+11 9.360187e+10 -1.895359e+09
-1.350041e+11 5.063333e+10 -1.717114e+09
-7.969495e+10 -1.243779e+11 -3.246942e+08
7.910468e+10 -1.235552e+11 -3.706494e+08
-1.445420e+11 4.985699e+08 2.801967e+09
-1.235860e+11 -7.211035e+10 7.092641e+08
-6.655403e+09 -1.460149e+11 1.464405e+09
3.449811e+10 -1.393999e+11 -8.811885e+08
-3.467243e+10 -1.398596e+11 8.798494e+08
6.284758e+10 -1.261824e+11 -4.297001e+08
1.444165e+11 2.368794e+10 -1.787324e+08
9.309596e+10 -1.136232e+11 -8.652128e+08
-9.948104e+10 -1.087218e+11 -2.479345e+08
1.447789e+11 -1.089009e+10 -1.850363e+09
9.439358e+10 -1.062456e+11 -5.550574e+07
-1.443972e+11 -7.164644e+08 2.269091e+08
-9.654414e+10 -1.127956e+11 2.287452e+08
-8.694219e+10 -1.119766e+11 -5.026587e+08
1.297528e+11 -6.149311e+10 7.017740e+08
-9.889503e+10 -1.049502e+11 -4.074032e+08
8.114559e+10 1.205597e+11 -3.665113e+09
-2.422360e+10 1.451455e+11 3.544608e+09
6.661202e+10 1.279639e+11 2.814383e+09
-4.552357e+10 1.377737e+11 -3.323171e+09
-6.024882e+10 1.320064e+11 3.514588e+09
1.302566e+11 6.485749e+10 -3.224163e+09
-1.455560e+11 -1.645408e+09 -9.165416e+08
-9.530452e+10 1.100505e+11 -3.219905e+09
-1.178904e+11 8.521214e+10 -3.703533e+09
-1.362880e+11 -4.844830e+10 -3.592140e+09
1.447703e+11 -1.231880e+10 1.167858e+09
-1.257929e+11 7.010497e+10 -3.876414e+09
-8.368361e+10 1.177552e+11 4.148704e+09
-1.443359e+11 2.853850e+09 -4.154558e+09
-1.442996e+11 -1.586426e+10 2.973237e+09
9.425843e+10 1.103384e+11 -3.162912e+09
8.806727e+09 1.437064e+11 3.882450e+09
-1.459850e+11 -5.869477e+09 -2.582296e+08
1.049351e+11 9.867540e+10 -3.898018e+09
2.051211e+10 1.440962e+11 3.058577e+09
4.173019e+10 1.382613e+11 4.147139e+09
3.225691e+10 1.437094e+11 -8.144634e+07
-6.993518e+10 1.298594e+11 -3.878126e+08
2.557838e+10 1.456242e+11 -4.322362e+08
-1.477571e+11 -1.180602e+10 -8.344397e+08
-1.136360e+11 9.407322e+10 1.854543e+08
-1.293179e+11 6.899032e+10 7.602302e+08
1.294165e+11 6.870366e+10 -6.482473e+08
5.316854e+10 -1.341274e+11 -6.477900e+08
-1.453894e+11 -1.950481e+08 1.378286e+09
-4.866434e+10 1.387364e+11 4.393680e+08
-8.283855e+10 1.220109e+11 -5.726073e+08
1.170572e+11 9.001953e+10 3.264360e+08
1.469281e+11 4.454348e+09 1.313262e+08
1.049019e+11 1.025963e+11 4.584599e+08
-3.465701e+10 1.436665e+11 -3.697752e+08
7.981270e+10 1.234613e+11 4.475846e+08
1.342631e+11 5.856122e+10 1.085611e+09
9.231822e+10 1.150699e+11 4.406039e+08
1.412873e+11 4.140320e+10 3.779625e+08
-1.470952e+11 -5.483728e+09 -1.369913e+09
-1.475637e+11 -2.229079e+08 5.739146e+08
1.163286e+10 1.461285e+11 -7.538955e+08
-1.430857e+11 -3.617146e+10 3.008573e+08
-1.236762e+11 8.071799e+10 3.398752e+08
4.584129e+10 1.406507e+11 -6.848762e+08
1.429060e+11 -1.698163e+10 -2.262821e+09
-9.443940e+10 -1.105674e+11 9.880611e+08
-3.342854e+10 -1.368750e+11 6.076147e+08
3.339102e+10 -1.368040e+11 -5.581999e+08
2.234409e+10 -1.442668e+11 -1.095426e+09
-1.444156e+11 -4.528113e+09 1.763104e+09
1.423854e+11 -2.247113e+10 8.432000e+08
9.557358e+10 1.075860e+11 1.703650e+09
-1.364533e+11 -4.561146e+10 1.694372e+09
1.431010e+11 2.529217e+10 -2.176988e+08
1.227336e+11 7.919833e+10 -1.360370e+09
8.854569e+10 -1.130418e+11 -8.659661e+08
-6.510012e+10 -1.280988e+11 -2.806359e+09
1.247690e+10 -1.423690e+11 -8.929598e+08
1.266814e+11 -7.129463e+10 6.959882e+08
9.815205e+10 -1.037063e+11 -3.699117e+08
-1.434533e+11 -4.702455e+09 1.670709e+08
-1.222263e+11 7.740860e+10 2.572319e+08
-4.975843e+10 1.357421e+11 2.325996e+08
-1.126785e+11 9.093548e+10 2.705833e+08
-3.206323e+10 1.410847e+11 -2.774161e+08
3.331329e+10 1.402618e+11 -2.007081e+08
1.440400e+11 6.134356e+09 2.259304e+08
7.677971e+10 1.225340e+11 2.296809e+08
1.384903e+11 4.232855e+10 2.958521e+08
-6.691516e+10 1.285215e+11 -2.871936e+08
-1.022999e+11 1.059864e+11 -3.337934e+08
-1.430272e+11 -5.819317e+09 -1.594471e+08
-8.529711e+09 1.471382e+11 -4.473749e+08
7.331442e+10 -1.262380e+11 2.663173e+08
-9.516920e+10 -1.095938e+11 -1.597518e+09
2.893002e+10 -1.386864e+11 1.803034e+08
-2.900433e+10 -1.384412e+11 -4.253201e+08
8.698293e+10 -1.154234e+11 5.137847e+08
-1.398104e+11 -3.734838e+10 2.470483e+08
1.134778e+11 8.973896e+10 2.470692e+08
1.257289e+11 -7.429405e+10 8.502849e+08
1.330853e+11 -5.236878e+10 -1.094047e+09
-1.454564e+11 -1.022698e+10 5.611526e+08
4.214493e+10 -1.380920e+11 6.137986e+08
-4.214536e+10 -1.380917e+11 -6.136509e+08
-1.262007e+11 -7.442259e+10 -9.818285e+08
-2.419490e+10 -1.447905e+11 1.388705e+09
1.296611e+11 -6.906797e+10 -1.734577e+09
1.445614e+11 -1.514262e+10 5.790186e+08
8.758883e+10 -1.118773e+11 3.673926e+06
-7.413869e+10 -1.269232e+11 4.032526e+08
-1.364194e+11 4.378129e+10 2.659455e+08
1.392687e+11 3.028975e+10 -2.125340e+08
-1.456439e+11 -3.280001e+09 2.017590e+09
1.419288e+11 2.264810e+10 8.335033e+07
6.144506e+10 -1.324428e+11 -2.215483e+09
-6.191009e+10 -1.323288e+11 2.389788e+09
1.361657e+11 -4.552918e+10 1.928243e+09
1.169940e+11 -8.669116e+10 2.394497e+09
-1.169942e+11 -8.669107e+10 -2.394574e+09
-1.212887e+11 -7.910720e+10 2.143662e+09
1.212890e+11 -7.910725e+10 -2.143589e+09
1.166429e+10 -1.400093e+11 1.959691e+08
-6.624191e+10 -1.279582e+11 3.136066e+08
-1.457440e+11 -8.570593e+09 -8.357514e+07
1.391227e+11 -4.503537e+10 -6.492955e+08
1.450294e+11 2.033103e+10 -4.332443e+08
-9.728330e+10 -1.093548e+11 -6.365629e+07
8.035649e+10 -1.168804e+11 -3.247088e+08
-8.103315e+10 -1.179726e+11 -2.389852e+08
-1.312269e+11 5.628114e+10 9.815001e+08
-1.323713e+11 5.086286e+10 -3.548313e+08
1.239233e+11 7.197298e+10 -1.174793e+09
9.457320e+10 1.077583e+11 -8.199097e+08
1.334484e+11 5.200170e+10 6.730627e+08
-1.417472e+11 -9.219356e+09 2.226320e+08
1.427981e+11 1.239902e+08 2.434496e+08
1.087235e+11 9.081835e+10 -4.673676e+08
-1.421485e+11 1.309924e+10 9.879947e+08
-1.357180e+11 -4.625370e+10 -8.247642e+08
-2.491309e+10 -1.441242e+11 1.930793e+09
6.156112e+09 -1.470068e+11 2.036622e+09
9.593011e+10 -1.109859e+11 -2.319458e+09
-9.894744e+09 -1.413874e+11 9.141411e+08
2.695784e+10 -1.404617e+11 -1.484290e+09
-1.270838e+11 -7.198662e+10 -4.641301e+08
-1.412679e+11 -1.002445e+10 7.849002e+08
-4.049260e+10 -1.395701e+11 -3.006465e+09
4.049274e+10 -1.395698e+11 3.006845e+09
-1.017529e+11 -1.038291e+11 3.352981e+08
7.105104e+10 -1.237344e+11 -4.136434e+08
-9.669265e+10 -1.118448e+11 -7.459322e+08
-1.284112e+11 -6.902316e+10 1.843727e+08
-1.067837e+10 -1.461880e+11 -1.843287e+08
-1.415588e+11 7.674789e+09 -5.416726e+08
-1.140072e+11 8.468556e+10 -3.486314e+08
7.076624e+10 1.234174e+11 -3.927238e+08
4.860963e+10 -1.317617e+11 -9.209793e+08
-1.416130e+11 -7.711858e+09 -7.764040e+08
1.828307e+10 1.410573e+11 6.952137e+08
-6.040612e+10 1.284693e+11 3.178478e+08
4.475198e+09 1.416986e+11 4.940481e+08
-1.898084e+10 1.409303e+11 -4.518862e+08
8.092246e+10 1.168294e+11 -3.402542e+08
3.624157e+10 1.369624e+11 5.805057e+08
-5.428649e+10 1.314078e+11 -3.759872e+08
6.267151e+10 1.278246e+11 7.288394e+08
-8.591302e+10 1.130198e+11 1.109924e+08
1.277213e+11 6.226436e+10 -3.888367e+08
-1.434759e+11 -1.432183e+10 6.778629e+07
5.533366e+10 1.308266e+11 5.276505e+08
-9.227039e+10 1.081622e+11 -2.960296e+07
-4.273590e+10 1.355012e+11 -3.125945e+08
-2.786760e+10 1.389402e+11 4.925193e+08
-1.217111e+11 7.264121e+10 -5.554317e+08
4.983148e+10 1.334354e+11 2.332905e+08
-1.411753e+11 -1.738662e+10 6.736520e+08
-1.410067e+11 2.524825e+10 8.050712e+08
-1.403404e+11 -3.633564e+10 -2.419899e+09
-1.355759e+10 1.446637e+11 -4.326173e+09
-1.457559e+11 -6.830030e+09 -3.159625e+08
-1.226444e+11 7.898292e+10 -2.515614e+09
-6.745356e+10 1.276381e+11 3.734408e+09
4.426945e+10 1.375155e+11 3.659421e+09
-8.994194e+10 1.121591e+11 4.584676e+09
1.454895e+11 4.370727e+09 3.069667e+09
-1.432150e+11 -2.350125e+10 4.336064e+09
-1.419543e+11 2.178760e+10 4.332243e+09
-4.876475e+10 1.368602e+11 -3.605027e+09
-3.797509e+10 1.400028e+11 -4.376611e+09
-1.424918e+11 2.467865e+10 -3.823112e+09
-1.436182e+11 -1.573249e+10 2.376375e+08
8.752067e+10 1.158665e+11 -4.318568e+09
1.329698e+11 5.800821e+10 -4.313203e+09
1.288353e+10 1.445951e+11 4.336760e+09
1.391684e+11 4.090698e+10 4.345051e+09
-8.908951e+10 1.141600e+11 -4.248573e+09
1.391416e+11 4.143345e+10 -3.507529e+09
7.820082e+10 1.224042e+11 -3.640784e+09
1.452143e+11 4.842972e+09 -3.529461e+09
1.028550e+11 1.004336e+11 -2.682748e+09
5.951437e+10 1.313088e+11 3.087817e+09
-1.460284e+11 -8.234084e+09 4.011333e+08
-1.934565e+08 1.442031e+11 3.168722e+09
5.191166e+10 1.344926e+11 3.051812e+09
1.144454e+11 8.903334e+10 -2.465378e+09
1.157346e+11 8.548141e+10 2.659507e+09
-3.338151e+10 1.422193e+11 2.463433e+09
3.251199e+10 1.421721e+11 2.498081e+09
-1.335019e+11 5.723938e+10 -2.144553e+09
-1.421395e+11 2.891756e+10 1.892992e+09
-1.284809e+11 6.719723e+10 -4.172609e+09
-1.132860e+11 9.265609e+10 -3.920117e+09
-1.448275e+11 -1.505320e+10 -9.414636e+08
-1.433634e+11 1.292222e+10 -2.710740e+09
4.761587e+10 -1.390862e+11 -1.314717e+09
-4.761598e+10 -1.390870e+11 1.314764e+09
1.265173e+11 -7.567060e+10 -1.100641e+09
2.083492e+10 -1.413926e+11 -1.292578e+09
1.421928e+11 -4.279206e+09 5.634811e+08
1.456787e+11 -9.412963e+09 -1.366607e+09
1.221350e+11 -7.580808e+10 1.078264e+09
-1.220437e+11 -7.578695e+10 -1.079829e+09
1.440214e+11 -1.939227e+10 2.854446e+09
-1.447363e+11 -1.618983e+10 -1.896103e+09
-1.363153e+10 -1.461269e+11 6.300237e+08
-1.376245e+11 4.008880e+10 -3.229585e+08
1.423134e+11 2.109959e+10 1.189464e+09
1.416407e+11 1.572692e+10 1.672022e+06
1.224779e+11 7.595041e+10 1.228611e+08
9.082943e+10 -1.133696e+11 -1.493410e+09
1.243290e+11 -7.543398e+10 1.408798e+09
-1.242710e+11 -7.541927e+10 -1.316260e+09
3.348180e+09 -1.488867e+11 8.856451e+08
-2.333482e+10 -1.455908e+11 -7.320985e+08
-1.442418e+11 -1.509579e+10 -1.939889e+09
-3.673414e+10 -1.422520e+11 -1.522234e+09
3.701179e+10 -1.425744e+11 1.333436e+09
-3.903974e+10 -1.406609e+11 6.966229e+08
3.910198e+10 -1.409174e+11 -6.154232e+08
-6.875041e+10 -1.226900e+11 1.403465e+09
6.717453e+10 -1.272874e+11 -8.983901e+08
-6.773389e+09 -1.429011e+11 -2.676602e+08
-2.005637e+10 -1.426320e+11 -6.600473e+07
-7.058903e+10 -1.289402e+11 -1.687037e+09
-1.422823e+11 1.719468e+10 5.221328e+08
-1.434637e+11 -1.608211e+10 3.597530e+09
-1.356948e+11 -4.144152e+10 8.757379e+08
-1.296146e+11 6.050896e+10 -5.004319e+08
1.347590e+11 4.790637e+10 -4.886567e+08
1.425894e+11 1.217808e+10 -5.131506e+08
1.397651e+11 3.465722e+10 9.025410e+08
9.714731e+10 1.038149e+11 7.564077e+08
1.180682e+11 7.920703e+10 -7.214327e+08
1.067301e+11 9.433485e+10 -3.557643e+08
-1.408275e+11 3.675142e+10 -7.360998e+08
1.392239e+11 -2.910466e+10 1.565967e+09
-1.422519e+11 -1.743947e+10 9.631479e+07
-1.031219e+11 -1.014356e+11 -7.873373e+08
1.038419e+11 -9.723442e+10 1.519177e+09
-1.036832e+11 -9.690318e+10 -9.921899e+08
-4.783385e+09 -1.404313e+11 1.405879e+09
-1.595874e+10 -1.419808e+11 4.486922e+08
1.252601e+11 -6.971670e+10 -1.589543e+08
-1.447197e+11 5.324038e+09 3.293399e+09
-1.394899e+11 3.517382e+10 -1.779636e+09
6.640227e+10 1.289229e+11 -3.318799e+09
-1.154316e+11 8.598994e+10 1.832065e+09
5.783205e+10 -1.319856e+11 -5.928613e+08
-1.422462e+11 -1.540271e+10 -5.942639e+08
-1.411038e+11 2.698091e+10 -2.280516e+09
-2.606021e+10 1.448783e+11 -3.706097e+09
7.352509e+09 1.446688e+11 -3.005859e+09
-1.429814e+11 -1.783559e+10 -2.037291e+09
1.830610e+10 1.429547e+11 -2.040924e+09
5.891369e+10 1.324557e+11 -3.333160e+09
4.012484e+10 1.408844e+11 -3.621734e+09
-8.576285e+10 1.151316e+11 -2.531064e+09
7.189153e+10 1.245292e+11 2.005163e+09
-1.272403e+11 7.279823e+10 3.607827e+09
-1.416073e+11 -1.967241e+10 1.404292e+09
1.396944e+11 3.527764e+10 -1.870864e+09
-5.432256e+10 1.334831e+11 2.177404e+09
8.220277e+10 1.181438e+11 1.969854e+09
1.367840e+11 4.762231e+10 1.818528e+09
-1.900956e+10 1.427272e+11 1.966564e+09
1.297568e+11 6.256408e+10 2.093165e+09
-9.263855e+10 1.098884e+11 2.103537e+09
1.444466e+11 1.136730e+10 1.827125e+09
4.998493e+10 1.350931e+11 -2.170193e+09
-6.146318e+10 1.300206e+11 -1.999117e+09
-1.400527e+11 -1.605659e+10 9.807159e+08
-1.309274e+11 6.202736e+10 1.760407e+09
-1.451071e+11 1.852545e+10 2.047142e+09
-4.301644e+10 1.372796e+11 1.938869e+09
6.956870e+10 -1.247921e+11 1.352442e+08
-1.375227e+11 3.991231e+10 1.249647e+09
-1.348146e+11 4.599983e+10 -1.099734e+09
1.403146e+11 2.855932e+10 -3.877689e+08
1.247540e+11 -7.691417e+10 8.879378e+08
-1.247438e+11 -7.690501e+10 -8.865131e+08
-4.875005e+10 -1.318176e+11 4.611863e+08
-1.415679e+11 -2.166967e+10 -9.325797e+08
4.874963e+10 -1.318181e+11 -4.608909e+08
-4.125932e+10 -1.338748e+11 2.493490e+09
4.114611e+10 -1.336106e+11 -2.450265e+09
-7.614735e+10 -1.217881e+11 9.556642e+08
-5.540011e+10 -1.297414e+11 -2.669557e+08
5.539953e+10 -1.297401e+11 2.667176e+08
-8.735450e+10 -1.162960e+11 1.467282e+09
-1.292697e+11 -6.320644e+10 7.717885e+08
1.364653e+11 -3.367084e+10 6.702918e+08
1.059654e+11 -9.260036e+10 6.647190e+08
-1.394465e+11 -1.671710e+10 -5.549043e+08
-1.059658e+11 -9.260068e+10 -6.649920e+08
7.049851e+10 -1.234159e+11 7.010990e+08