# vtk DataFile Version 2.0
Electric current density generated by TTH
ASCII
DATASET UNSTRUCTURED_GRID
POINTS 20325 double
1.361588e-05 6.756311e-06 -4.898587e-23
1.328163e-05 -7.391775e-06 -4.898587e-23
1.465872e-05 3.629586e-06 1.723955e-07
1.465872e-05 -3.629586e-06 1.723955e-07
-7.391684e-06 1.283982e-05 7.711233e-08
-1.329915e-05 -7.321413e-06 8.454353e-08
-1.329915e-05 7.321413e-06 -8.454353e-08
-5.351651e-06 -1.408637e-05 -1.878277e-07
-3.137311e-06 1.473850e-05 -1.878275e-07
8.065745e-06 1.275812e-05 -1.765871e-07
-1.481494e-05 -9.711620e-07 1.284986e-07
6.079132e-06 1.368776e-05 1.986739e-07
1.332505e-05 -7.313215e-06 -4.898587e-23
6.888345e-06 -1.352840e-05 8.479391e-08
6.097480e-06 -1.361825e-05 1.837342e-07
-1.205906e-05 -9.084392e-06 -1.743927e-07
1.122568e-05 -9.673907e-06 8.491268e-08
1.122568e-05 9.673907e-06 8.491268e-08
7.987891e-06 1.277515e-05 1.884861e-07
7.122531e-06 -1.340751e-05 8.302089e-08
-1.123961e-05 -9.646170e-06 6.655241e-08
-1.401967e-05 5.825852e-06 -8.301839e-08
-1.401967e-05 -5.825852e-06 8.301839e-08
1.336800e-05 -7.234400e-06 -4.898587e-23
1.471915e-05 1.642396e-06 6.393740e-08
1.471915e-05 -1.642396e-06 6.393740e-08
6.176238e-06 1.353617e-05 -1.589690e-07
1.302679e-05 7.059705e-06 -8.017680e-08
1.302679e-05 -7.059705e-06 -8.017680e-08
-3.894291e-06 1.448408e-05 -1.999941e-07
-8.892964e-06 -1.207763e-05 1.999941e-07
-9.765425e-06 -1.149129e-05 1.832027e-07
-1.109828e-05 1.020983e-05 -1.832142e-07
-4.901307e-06 1.426148e-05 -1.832142e-07
1.341049e-05 -7.155333e-06 -4.898587e-23
-8.462717e-06 1.238292e-05 1.999942e-07
-1.890125e-06 -1.496132e-05 1.831994e-07
-8.169156e-06 1.267586e-05 -1.832131e-07
1.471595e-05 -2.339152e-06 -1.736078e-07
1.471595e-05 2.339152e-06 -1.736078e-07
7.655055e-06 -1.301978e-05 1.711583e-07
7.731169e-06 -1.297308e-05 1.720056e-07
-1.399724e-05 -5.618975e-06 -1.819822e-07
-1.399724e-05 5.618975e-06 1.819822e-07
-1.166105e-05 -9.141742e-06 -8.130157e-08
1.345251e-05 -7.076017e-06 -4.898587e-23
1.101408e-05 -1.045169e-05 7.884149e-08
1.101408e-05 1.045169e-05 7.884149e-08
-1.379336e-05 5.568059e-06 -1.559757e-07
-1.379336e-05 -5.568059e-06 1.559757e-07
1.403027e-05 -5.804102e-06 7.973350e-08
1.403027e-05 5.804102e-06 7.973350e-08
1.422395e-05 4.163279e-06 -8.864839e-08
1.422395e-05 -4.163279e-06 -8.864839e-08
-1.305107e-05 -7.308334e-06 -1.955427e-07
-1.305107e-05 7.308334e-06 1.955427e-07
1.349406e-05 -6.996453e-06 -4.898587e-23
1.082432e-05 1.010009e-05 4.288268e-08
1.082432e-05 -1.010009e-05 4.288268e-08
-1.239813e-05 8.759357e-06 -8.665693e-08
-1.239814e-05 -8.759353e-06 8.665661e-08
-1.017644e-05 -1.111277e-05 -1.879781e-07
2.638495e-06 1.472404e-05 -1.956624e-07
2.638495e-06 -1.472404e-05 -1.956624e-07
-1.479551e-05 2.202662e-06 1.956624e-07
-1.479552e-05 -2.202512e-06 -1.956603e-07
-1.474232e-05 -2.142759e-06 1.715721e-07
1.353514e-05 -6.916646e-06 -4.898587e-23
-1.445526e-05 -3.619543e-06 -1.740798e-07
-1.445526e-05 3.619543e-06 1.740798e-07
4.045016e-06 1.434062e-05 -1.733095e-07
4.044713e-06 -1.434211e-05 -1.740821e-07
8.108728e-06 1.249016e-05 -1.679834e-07
6.917502e-06 1.342638e-05 -1.710588e-07
1.481699e-05 8.418386e-07 1.211687e-07
1.481699e-05 -8.418386e-07 1.211687e-07
-7.677690e-06 1.297034e-05 -1.864422e-07
-1.075974e-05 -1.044893e-05 -1.999936e-07
1.357575e-05 -6.836598e-06 -4.898587e-23
-1.075974e-05 1.044893e-05 1.999936e-07
1.394488e-05 -4.974395e-06 -4.676889e-08
1.394488e-05 4.974395e-06 -4.676889e-08
7.955876e-06 -1.267340e-05 -1.966699e-07
8.257911e-07 1.487293e-05 1.707324e-07
8.257911e-07 -1.487293e-05 1.707324e-07
-7.861169e-06 -1.277071e-05 -1.999658e-07
-6.779722e-06 -1.337626e-05 1.999658e-07
-1.057148e-05 1.073975e-05 1.874315e-07
-1.057181e-05 -1.073945e-05 -1.874245e-07
1.361588e-05 -6.756311e-06 -4.898587e-23
-3.645393e-06 -1.461962e-05 1.883537e-07
-2.279171e-06 -1.467597e-05 1.343992e-07
-8.207865e-06 -1.263672e-05 1.879508e-07
-7.136298e-06 -1.327136e-05 -1.879508e-07
-6.015984e-06 -1.381534e-05 1.879508e-07
-9.216707e-06 1.192092e-05 1.879479e-07
-6.008258e-06 1.381872e-05 -1.879463e-07
1.323634e-05 6.633169e-06 -4.612027e-08
1.323634e-05 -6.633169e-06 -4.612027e-08
1.452847e-05 3.494110e-06 1.916261e-07
1.365554e-05 -6.675788e-06 -4.898587e-23
1.452847e-05 -3.494110e-06 1.916261e-07
-7.610401e-06 1.300629e-05 -1.876345e-07
-6.511501e-06 -1.359041e-05 1.874235e-07
-7.611548e-06 -1.300628e-05 -1.874235e-07
-8.659601e-06 -1.233330e-05 1.874235e-07
-3.583474e-06 1.463753e-05 -1.874267e-07
-8.781110e-06 1.224709e-05 1.874229e-07
-1.007897e-05 -1.096515e-05 -1.693651e-07
-1.399938e-05 4.862518e-06 -8.679096e-08
-1.399938e-05 -4.862518e-06 8.679096e-08
1.357575e-05 6.836598e-06 -4.898587e-23
1.369473e-05 -6.595033e-06 -4.898587e-23
4.629999e-06 1.405714e-05 -9.084517e-11
-1.201503e-05 -8.675296e-06 8.643554e-08
-1.201503e-05 8.675300e-06 -8.643703e-08
-1.155357e-05 9.274669e-06 7.763381e-08
8.136970e-06 1.246699e-05 1.653224e-07
1.417681e-05 -5.107476e-06 -1.877984e-07
1.417681e-05 5.107476e-06 -1.877984e-07
-6.316505e-07 1.516773e-05 -8.534669e-08
5.544176e-06 1.400353e-05 -1.904384e-07
1.338759e-05 6.434540e-06 -1.363088e-07
1.373343e-05 -6.514048e-06 -4.898587e-23
1.338759e-05 -6.434540e-06 -1.363088e-07
7.575146e-06 -1.315878e-05 -7.972785e-08
2.745084e-06 1.473602e-05 1.997256e-07
2.745084e-06 -1.473602e-05 1.997256e-07
-1.481064e-05 2.308852e-06 -1.997256e-07
1.265094e-05 8.077741e-06 1.997564e-07
1.265094e-05 -8.077741e-06 1.997564e-07
5.678286e-06 1.370087e-05 -1.068562e-07
1.454477e-05 4.365145e-06 -7.431311e-08
1.454477e-05 -4.365145e-06 -7.431311e-08
1.377166e-05 -6.432835e-06 -4.898587e-23
3.837130e-06 1.459923e-05 1.759597e-07
3.837130e-06 -1.459923e-05 1.759597e-07
-1.470615e-05 3.404459e-06 -1.759597e-07
-1.470615e-05 -3.404459e-06 1.759597e-07
4.469336e-06 1.423090e-05 1.816028e-07
-1.278718e-05 -8.187603e-06 7.877340e-08
-1.278718e-05 8.187603e-06 -7.877341e-08
-1.420022e-05 -4.676972e-06 1.938031e-07
-1.420022e-05 4.676972e-06 -1.938031e-07
5.094076e-06 -1.405598e-05 1.938008e-07
1.380941e-05 -6.351398e-06 -4.898587e-23
-1.287752e-05 -8.044865e-06 7.865809e-08
-1.287752e-05 8.044866e-06 -7.865817e-08
-1.506501e-05 -1.337125e-07 1.889360e-07
-5.884122e-07 1.517255e-05 7.849190e-08
-5.884122e-07 -1.517255e-05 -7.849190e-08
1.507031e-05 1.219409e-06 1.603266e-07
1.507031e-05 -1.219409e-06 1.603266e-07
1.054888e-05 -1.076209e-05 -1.873913e-07
1.054888e-05 1.076209e-05 -1.873913e-07
1.416742e-05 -5.257150e-06 -1.661214e-07
1.384667e-05 -6.269740e-06 -4.898587e-23
1.416742e-05 5.257150e-06 -1.661214e-07
-1.502580e-05 5.793874e-07 1.965546e-07
-1.336596e-05 -6.381649e-06 6.625545e-08
-1.336596e-05 6.381649e-06 -6.625544e-08
7.880962e-06 -1.262795e-05 -1.638989e-07
1.049464e-05 1.081412e-05 -1.876229e-07
1.049464e-05 -1.081412e-05 -1.876229e-07
8.587935e-06 -1.242303e-05 -1.717627e-07
8.118312e-06 1.257287e-05 -1.971059e-07
1.417460e-05 4.265373e-06 3.123312e-08
1.388346e-05 -6.187863e-06 -4.898587e-23
1.417460e-05 -4.265373e-06 3.123312e-08
1.301773e-05 7.658388e-06 -1.712066e-07
1.301773e-05 -7.658388e-06 -1.712066e-07
-6.004735e-06 -1.365697e-05 -1.827600e-07
-7.112009e-06 -1.311446e-05 1.827600e-07
-8.170701e-06 -1.248236e-05 -1.827600e-07
-1.298287e-05 7.116314e-06 -4.573841e-08
-1.298287e-05 -7.116314e-06 4.573835e-08
-9.083253e-06 1.183487e-05 -1.827607e-07
4.383540e-06 1.453658e-05 -8.037359e-08
1.391975e-05 -6.105770e-06 -4.898587e-23
-3.581309e-06 -1.445568e-05 1.687773e-07
1.392193e-05 -5.533642e-06 1.991298e-07
1.392193e-05 5.533642e-06 1.991298e-07
-1.481705e-05 -1.385979e-06 -1.612852e-07
1.739781e-06 -1.508392e-05 7.856377e-08
1.739781e-06 1.508392e-05 7.856377e-08
-1.512985e-05 1.288994e-06 -7.681363e-08
-1.135567e-05 -9.793918e-06 1.999546e-07
-5.912974e-06 1.358948e-05 8.750468e-08
5.381493e-06 1.386806e-05 -1.566032e-07
1.395557e-05 -6.023465e-06 -4.898587e-23
-1.206318e-05 9.223732e-06 -7.492099e-08
5.644837e-06 1.409647e-05 7.676410e-08
-1.479579e-05 1.010940e-06 1.058202e-07
-1.478750e-05 7.087226e-07 4.207608e-08
-7.464967e-06 1.278246e-05 -3.213399e-08
1.139867e-05 -9.645475e-06 1.880877e-07
1.139867e-05 9.645475e-06 1.880877e-07
-1.466879e-05 -3.077416e-06 -1.996473e-07
-1.466879e-05 3.077416e-06 1.996473e-07
3.509126e-06 1.457155e-05 -1.996473e-07
1.399089e-05 -5.940949e-06 -4.898587e-23
3.509126e-06 -1.457155e-05 -1.996473e-07
-3.387783e-06 -1.461179e-05 1.999991e-07
-1.138208e-06 1.488088e-05 -1.851379e-07
2.579441e-06 -1.467051e-05 1.705579e-07
2.579441e-06 1.467051e-05 1.705579e-07
-1.474027e-05 2.145214e-06 -1.705579e-07
1.485696e-05 -8.678842e-08 -1.400477e-07
1.485647e-05 8.706897e-08 -1.395386e-07
1.500610e-05 1.723086e-06 -1.704005e-07
1.500610e-05 -1.723086e-06 -1.704005e-07
1.402573e-05 -5.858226e-06 -4.898587e-23
-1.486081e-05 -1.408608e-06 1.863635e-07
-1.488224e-05 -8.255904e-07 1.760608e-07
1.098349e-05 9.937956e-06 6.867631e-08
1.098349e-05 -9.937956e-06 6.867631e-08
7.955021e-06 -1.257428e-05 1.595082e-07
-3.283295e-06 -1.467947e-05 -1.955028e-07
-9.972732e-06 1.126107e-05 -1.955020e-07
1.478643e-05 7.872657e-07 -5.380901e-08
1.478643e-05 -7.872657e-07 -5.380901e-08
9.931056e-06 1.148324e-05 -8.310299e-08
1.353514e-05 6.916646e-06 -4.898587e-23
1.406008e-05 -5.775299e-06 -4.898587e-23
9.931056e-06 -1.148324e-05 -8.310299e-08
-9.189197e-06 -1.177659e-05 1.899895e-07
-1.057531e-05 1.054952e-05 -1.899895e-07
-4.279689e-06 1.431131e-05 -1.899895e-07
-1.057531e-05 -1.054952e-05 1.899895e-07
-2.353584e-06 1.475095e-05 -1.899940e-07
-1.031274e-05 -1.089519e-05 -1.999907e-07
-1.741970e-06 1.483566e-05 1.900086e-07
-1.413894e-05 -5.331792e-06 1.664723e-07
-1.413894e-05 5.331792e-06 -1.664723e-07
1.409394e-05 -5.692171e-06 -4.898587e-23
-1.517901e-05 1.869488e-07 -8.684006e-08
-9.668085e-06 -1.138683e-05 -1.900138e-07
-1.101332e-05 -1.045296e-05 7.808677e-08
8.047611e-06 -1.256638e-05 -1.843309e-07
5.746075e-06 -1.397570e-05 1.664777e-07
6.152222e-06 1.380890e-05 1.619204e-07
7.887187e-06 -1.289596e-05 1.624506e-07
7.888097e-06 1.289947e-05 1.599019e-07
[...]
POINT_DATA 20325
VECTORS 10.000GHz_fone_imag double
4.036963e+11 -8.012345e+11 5.437706e+09
-4.443195e+11 -7.851096e+11 3.168766e+09
2.165094e+11 -8.613741e+11 1.027287e+10
-2.165098e+11 -8.613755e+11 -1.027007e+10
8.109737e+11 4.613088e+11 3.254568e+09
-4.435398e+11 7.743586e+11 2.535665e+09
4.432888e+11 7.752000e+11 3.563348e+09
-8.429759e+11 3.190075e+11 6.758138e+08
8.977828e+11 1.902012e+11 7.336065e+08
7.720886e+11 -4.873278e+11 7.468537e+09
-6.070239e+10 9.411063e+11 -2.374055e+09
8.359629e+11 -3.669209e+11 -8.194322e+09
-4.144997e+11 -7.861467e+11 5.249205e+09
-7.965768e+11 -4.059600e+11 2.449759e+09
-8.458936e+11 -3.837684e+11 -4.838521e+09
-5.431563e+11 7.131627e+11 -1.119133e+10
-6.090460e+11 -7.105608e+11 5.398646e+09
6.087785e+11 -7.105083e+11 -5.750687e+09
7.682538e+11 -4.831749e+11 -1.031406e+10
-8.003236e+11 -4.118161e+11 1.901706e+09
-6.094440e+11 7.054068e+11 1.186492e+09
3.353039e+11 8.274219e+11 -2.722860e+09
-3.348786e+11 8.294638e+11 -2.730170e+09
-4.275465e+11 -7.858609e+11 -5.545717e+08
1.040291e+11 -9.145120e+11 1.654887e+09
-1.040274e+11 -9.145110e+11 -1.654896e+09
8.288661e+11 -3.762273e+11 3.835990e+09
4.372455e+11 -8.097834e+11 -3.675423e+09
-4.372609e+11 -8.093978e+11 4.904788e+09
8.737745e+11 2.374183e+11 2.377241e+09
-7.257085e+11 5.356180e+11 1.825613e+09
-6.823450e+11 5.810604e+11 1.529530e+09
6.128346e+11 6.677538e+11 -5.725333e+09
8.570400e+11 2.967200e+11 -6.840263e+09
-4.224752e+11 -7.899512e+11 2.597452e+09
7.504475e+11 5.096613e+11 5.512174e+09
-8.926525e+11 1.179792e+11 -3.275138e+09
7.607887e+11 4.853101e+11 2.175718e+09
-1.525505e+11 -9.274558e+11 -8.535320e+08
1.525925e+11 -9.274503e+11 8.316882e+08
-7.733052e+11 -4.523374e+11 3.191027e+09
-7.739748e+11 -4.706348e+11 1.096595e+09
-3.350938e+11 8.353583e+11 -2.558376e+09
3.337285e+11 8.390130e+11 -1.332057e+09
-5.713961e+11 7.145220e+11 8.936769e+09
-4.204953e+11 -7.866740e+11 6.265179e+08
-6.223959e+11 -6.631123e+11 9.095413e+07
6.223240e+11 -6.633043e+11 5.779645e+08
3.424104e+11 8.446591e+11 -2.485213e+09
-3.422351e+11 8.472869e+11 -4.593300e+08
-3.388557e+11 -8.419570e+11 8.662936e+09
3.389659e+11 -8.420761e+11 -8.797346e+09
2.488848e+11 -9.091047e+11 -1.117152e+10
-2.489403e+11 -9.092292e+11 1.120985e+10
-4.416238e+11 7.816068e+11 3.278318e+09
4.421406e+11 7.808007e+11 2.949226e+09
-4.018698e+11 -7.931167e+11 -2.314597e+09
6.248701e+11 -6.847552e+11 3.951581e+09
-6.249706e+11 -6.846513e+11 -4.886099e+09
5.188281e+11 7.335573e+11 -5.132387e+08
-5.188675e+11 7.340017e+11 -8.711940e+08
-6.623646e+11 6.164390e+11 7.879604e+09
8.994383e+11 -1.567816e+11 -6.507850e+08
-8.994457e+11 -1.567779e+11 6.520280e+08
1.299994e+11 9.032509e+11 6.716171e+08
-1.308163e+11 8.969276e+11 -9.494241e+08
-1.319378e+11 9.216601e+11 -8.187083e+08
-4.175761e+11 -8.023551e+11 1.064730e+09
-2.247895e+11 8.983142e+11 -1.938867e+10
2.184483e+11 8.956800e+11 -1.762428e+10
8.931720e+11 -2.444112e+11 1.435236e+10
-8.937956e+11 -2.498461e+11 -1.905176e+10
7.620326e+11 -5.008183e+11 -6.417939e+09
7.999651e+11 -4.108244e+11 -1.446480e+09
5.369894e+10 -9.065711e+11 -3.791621e+09
-5.370452e+10 -9.065779e+11 3.800913e+09
8.037347e+11 4.721209e+11 -1.213052e+09
-6.329202e+11 6.484880e+11 -8.489592e+09
-4.042706e+11 -7.920288e+11 -3.539713e+09
6.325341e+11 6.531100e+11 -8.706126e+09
-3.159146e+11 -8.670938e+11 -1.637343e+09
3.159154e+11 -8.670861e+11 1.616707e+09
-7.665540e+11 -4.786576e+11 3.579028e+09
9.147913e+11 -5.258438e+10 9.230278e+09
-9.155375e+11 -5.363120e+10 -8.628061e+09
-7.694305e+11 4.787070e+11 4.498450e+09
-8.066180e+11 4.135433e+11 -4.629240e+09
6.371774e+11 6.277485e+11 4.288909e+09
-6.565338e+11 6.480064e+11 1.756517e+09
-4.036992e+11 -8.012513e+11 -5.693709e+09
-8.799102e+11 2.165525e+11 4.467677e+09
-9.160040e+11 1.477573e+11 -4.963912e+09
-7.536042e+11 4.916961e+11 -5.521268e+08
-7.913559e+11 4.278228e+11 5.934835e+08
-8.215689e+11 3.594516e+11 -3.815645e+09
7.109175e+11 5.469046e+11 -3.261951e+09
8.419958e+11 3.612774e+11 7.706199e+09
4.120289e+11 -8.253027e+11 4.466511e+09
-4.121581e+11 -8.256219e+11 -4.639334e+09
2.172296e+11 -9.026986e+11 2.191624e+10
-3.954791e+11 -8.257635e+11 1.521654e+08
-2.172289e+11 -9.026928e+11 -2.191538e+10
7.994846e+11 4.702205e+11 7.447844e+08
-8.277848e+11 3.988783e+11 -2.068628e+09
-7.892808e+11 4.655796e+11 1.823820e+09
-7.488803e+11 5.289947e+11 -1.814236e+09
8.921570e+11 2.178301e+11 -2.442874e+09
7.475629e+11 5.326111e+11 -1.855411e+09
-6.773584e+11 6.291456e+11 -4.711156e+09
3.080964e+11 8.662521e+11 -2.872923e+09
-3.091102e+11 8.693554e+11 -2.042706e+09
4.042028e+11 -7.922737e+11 3.535044e+09
-3.945945e+11 -8.119313e+11 4.918297e+09
8.753781e+11 -2.897806e+11 1.432786e+09
-5.436699e+11 7.354992e+11 -1.344879e+10
5.522035e+11 7.488130e+11 -1.190164e+10
5.822092e+11 7.193055e+11 6.506031e+09
7.640513e+11 -5.001018e+11 -1.252510e+10
-3.004053e+11 -8.437214e+11 -9.142500e+09
3.004200e+11 -8.437272e+11 9.144193e+09
8.966987e+11 3.450156e+10 6.614054e+08
8.401558e+11 -3.349710e+11 -4.970014e+09
3.964714e+11 -8.431546e+11 -6.792343e+09
-3.707099e+11 -8.169968e+11 7.315676e+09
-3.965599e+11 -8.429942e+11 6.899290e+09
-7.708496e+11 -4.495268e+11 6.665252e+09
9.009627e+11 -1.712643e+11 -1.159454e+09
-9.009299e+11 -1.712599e+11 1.159926e+09
1.443913e+11 9.060056e+11 1.129810e+09
4.984498e+11 -7.640150e+11 2.752519e+09
-4.984384e+11 -7.640112e+11 -2.751463e+09
8.419052e+11 -3.577999e+11 5.243122e+09
2.543819e+11 -8.724239e+11 3.548063e+09
-2.543446e+11 -8.720671e+11 -3.709002e+09
-3.844940e+11 -8.087263e+11 1.030027e+09
8.807309e+11 -2.272705e+11 1.623118e+09
-8.791007e+11 -2.283979e+11 -3.526397e+09
2.015029e+11 8.864586e+11 -1.077190e+09
-2.080940e+11 8.833213e+11 -4.760712e+09
8.758496e+11 -2.729370e+11 5.894493e+09
-4.862560e+11 7.492113e+11 2.258699e+09
5.042495e+11 7.686843e+11 -1.487049e+09
-2.939151e+11 8.715768e+11 -5.469565e+09
2.874650e+11 8.619011e+11 -1.338233e+09
-8.636173e+11 -3.175667e+11 -4.271739e+09
-3.740728e+11 -8.114916e+11 9.709913e+09
-4.773349e+11 7.743495e+11 -5.173251e+09
4.777487e+11 7.737236e+11 -6.720766e+09
-3.606905e+09 9.040597e+11 -1.238910e+09
8.983378e+11 3.845628e+10 1.555789e+09
-8.927757e+11 4.282801e+10 4.478034e+09
7.440194e+10 -8.918615e+11 -4.754158e+09
-7.439225e+10 -8.918714e+11 4.745744e+09
-6.413319e+11 -6.267614e+11 -1.313144e+09
6.413142e+11 -6.267586e+11 1.313044e+09
-3.263586e+11 -8.511877e+11 7.807350e+09
-3.744026e+11 -8.200432e+11 5.038183e+08
3.263610e+11 -8.511787e+11 -7.803168e+09
3.443493e+10 9.056301e+11 4.907033e+09
-3.984032e+11 8.417464e+11 -4.426129e+08
4.033259e+11 8.489888e+11 3.220491e+09
-7.884838e+11 -4.898660e+11 -6.444110e+09
6.362302e+11 -6.188958e+11 5.375732e+09
-6.362389e+11 -6.189026e+11 -5.373675e+09
-7.385888e+11 -5.116707e+11 -4.754327e+09
7.633796e+11 -4.987015e+11 4.161604e+09
2.824846e+11 -8.862096e+11 7.390721e+09
-3.643320e+11 -8.233316e+11 -2.030218e+09
-2.826395e+11 -8.865209e+11 -7.417387e+09
4.640284e+11 -7.879629e+11 9.976112e+09
-4.641434e+11 -7.880119e+11 -1.001817e+10
-8.536510e+11 3.697950e+11 -3.425716e+09
-8.193487e+11 4.397271e+11 1.419516e+09
-7.792532e+11 5.043307e+11 -1.515142e+09
4.516617e+11 8.056487e+11 -4.495580e+09
-4.517291e+11 8.057793e+11 -4.419913e+09
7.358360e+11 5.695820e+11 -2.951056e+09
8.684864e+11 -2.489195e+11 -6.004110e+09
-3.607349e+11 -8.208212e+11 1.158500e+09
-9.136011e+11 2.210967e+11 -6.865794e+08
-3.389471e+11 -8.475348e+11 7.143274e+09
3.390430e+11 -8.476316e+11 -7.151445e+09
-8.519291e+10 9.109583e+11 -2.841048e+09
-9.076841e+11 -1.091514e+11 2.984272e+09
9.034159e+11 -1.093160e+11 -2.465237e+09
8.360312e+10 8.978577e+11 1.164933e+09
-5.924108e+11 6.957936e+11 -1.178328e+09
8.368994e+11 3.705182e+11 -2.181342e+09
8.748114e+11 -3.345328e+11 -3.839019e+09
-3.517269e+11 -8.299311e+11 -9.155386e+09
5.425407e+11 7.215434e+11 -6.109530e+08
8.292613e+11 -3.375170e+11 3.332064e+09
6.651751e+10 9.172523e+11 -1.332148e+09
4.262399e+10 9.390979e+11 7.483792e+08
8.060758e+11 4.569905e+11 -1.730147e+09
-5.893276e+11 -7.016457e+11 -4.801431e+09
5.893437e+11 -7.017914e+11 4.767486e+09
-1.866230e+11 8.939012e+11 3.593114e+09
1.876014e+11 8.948815e+11 4.027330e+09
8.897152e+11 -2.141362e+11 -3.711789e+09
-3.686533e+11 -8.100049e+11 -3.138736e+09
-8.901024e+11 -2.139203e+11 4.085847e+09
-8.831672e+11 2.036830e+11 -9.487736e+09
9.282112e+11 7.423033e+10 3.673455e+08
-8.995487e+11 -1.538622e+11 -1.001603e+10
8.995602e+11 -1.538605e+11 1.001860e+10
1.269911e+11 9.042044e+11 -1.022661e+10
2.467360e+09 -9.122961e+11 1.004538e+10
-2.634424e+09 -9.124866e+11 -9.912342e+09
9.591980e+10 -8.967307e+11 8.089240e+09
-9.591797e+10 -8.967174e+11 -8.087846e+09
-3.377507e+11 -8.482225e+11 -1.021479e+08
-8.480836e+10 9.089248e+11 9.591171e+09
-5.215539e+10 9.181768e+11 3.683136e+09
6.211844e+11 -6.979975e+11 3.878108e+08
-6.204945e+11 -6.984454e+11 1.577776e+08
-7.925245e+11 -5.028510e+11 7.928706e+09
-8.982976e+11 2.025630e+11 -5.464478e+08
6.907485e+11 6.095677e+11 9.317830e+08
3.840856e+10 -9.189141e+11 -1.266284e+09
-3.841286e+10 -9.189241e+11 1.292539e+09
6.948481e+11 -5.841747e+11 -5.563176e+09
4.176195e+11 -8.025774e+11 -1.153419e+09
-3.610960e+11 -8.376313e+11 9.755007e+09
-6.959387e+11 -5.850393e+11 5.724530e+09
-7.178453e+11 5.613713e+11 -2.475832e+09
6.433158e+11 6.506184e+11 -3.700708e+09
8.712791e+11 2.573909e+11 -4.260575e+09
-6.455586e+11 6.533824e+11 -4.336178e+09
8.981919e+11 1.464142e+11 4.010786e+09
-6.694300e+11 6.269571e+11 -2.707199e+09
8.982211e+11 1.050509e+11 -4.052042e+07
-3.227078e+11 8.343559e+11 1.371570e+10
3.227273e+11 8.334830e+11 1.207284e+10
-3.264493e+11 -8.223394e+11 -1.872713e+09
1.149378e+10 8.936097e+11 -9.702137e+09
-6.947345e+11 5.875047e+11 2.234819e+09
-6.196357e+11 6.396565e+11 5.398085e+09
-7.646707e+11 -4.885024e+11 2.950398e+09
-8.365791e+11 -3.457537e+11 1.174598e+10
8.239077e+11 -3.548521e+11 -5.735270e+08
-7.849719e+11 -4.646463e+11 9.159687e+08
7.925969e+11 -4.691471e+11 -1.474785e+09
9.221537e+11 1.909781e+10 4.041746e+08
-5.079005e+11 -7.514816e+11 -4.564250e+09
-3.201085e+11 -8.412789e+11 -1.089895e+10
5.079008e+11 -7.514819e+11 4.564831e+09
-8.276369e+11 -4.032216e+11 -3.143023e+09
-5.573141e+11 -7.435801e+11 2.608631e+09
5.574850e+11 -7.436921e+11 -2.719162e+09
8.166082e+11 4.053636e+11 -7.706030e+09
8.684168e+11 2.347198e+11 -5.590140e+09
-7.213849e+11 5.338438e+11 -7.609634e+09
9.005524e+11 1.687530e+11 6.891854e+09
8.379460e+11 -3.247542e+11 2.530285e+09
-1.557953e+11 9.160829e+11 7.805035e+09
-3.217037e+11 -8.377123e+11 8.724760e+09
-3.870627e+10 -9.312472e+11 1.915290e+10
3.869561e+10 -9.313147e+11 -1.915950e+10
9.072340e+11 -6.764583e+09 -6.604257e+08
8.338492e+11 3.517207e+11 -2.798578e+09
-8.244221e+11 3.722597e+11 -4.935860e+08
-7.975604e+11 4.438182e+11 7.722234e+08
-7.614927e+11 5.083738e+11 4.103795e+08
7.234496e+11 5.434570e+11 -4.652581e+08
-8.388560e+11 3.047694e+11 -5.469043e+09
8.885442e+11 2.096245e+11 -2.922904e+09
-3.273460e+11 -8.298113e+11 -1.332913e+09
7.847503e+11 4.431356e+11 8.392560e+08
-3.118245e+11 8.442435e+11 3.019193e+09
3.106916e+11 8.422441e+11 2.969262e+09
-2.365609e+11 8.784391e+11 2.549519e+10
2.375839e+11 8.705368e+11 2.307038e+10
-8.706842e+11 -2.630381e+11 2.526502e+10
8.732562e+11 -2.726156e+11 -1.771660e+10
3.190786e+11 -8.621259e+11 -7.385881e+09
-3.190610e+11 -8.621186e+11 7.382832e+09
-4.025192e+10 9.095133e+11 -1.139616e+09
-3.111234e+11 -8.437953e+11 6.708130e+09
-3.032158e+11 -8.673144e+11 -2.258900e+09
3.032078e+11 -8.672878e+11 2.258276e+09
-4.044495e+11 -8.439353e+11 -4.253268e+09
4.044324e+11 -8.439561e+11 4.291426e+09
-6.396194e+11 6.484151e+11 -3.138462e+09
6.380812e+11 6.543027e+11 -1.298760e+09
5.730562e+11 7.011430e+11 2.105439e+09
5.212384e+11 7.657802e+11 2.045715e+09
-5.233151e+11 7.623619e+11 2.032622e+09
9.161717e+11 -9.727655e+10 -1.514530e+09
-3.146805e+11 -8.460244e+11 1.377979e+10
-9.131082e+11 -1.040821e+11 1.889604e+09
-8.792897e+11 -2.701225e+11 1.515995e+09
2.429295e+11 8.831847e+11 3.761210e+09
-2.439309e+11 8.864135e+11 1.502051e+09
1.213835e+11 -9.061663e+11 -1.082375e+09
-1.213897e+11 -9.061753e+11 1.095273e+09
-8.657167e+11 -3.465942e+11 -2.070725e+09
-5.817814e+11 7.033202e+11 1.333578e+09
-3.269165e+11 -8.462506e+11 1.857978e+09
3.269037e+11 -8.462465e+11 -1.859621e+09
-3.060665e+11 -8.339663e+11 -4.936019e+09
-4.703649e+11 8.186703e+11 5.170424e+09
4.709920e+11 8.201240e+11 5.006023e+09
8.137916e+11 -3.864361e+11 2.967735e+09
7.605747e+11 -4.909198e+11 1.388372e+09
-7.486632e+11 -4.887835e+11 -6.498230e+08
-3.572030e+11 -8.686880e+11 -3.198630e+09
3.571490e+11 -8.687152e+11 3.446651e+09
9.173328e+11 4.411225e+09 9.899478e+08
6.535967e+11 6.328180e+11 1.142959e+09
-5.924508e+11 7.150616e+11 -9.929746e+09
-2.964704e+11 -8.362123e+11 -2.928937e+09
6.871588e+11 5.942805e+11 6.270808e+09
8.641527e+11 -3.833541e+11 -8.063075e+08
5.745053e+11 7.184928e+11 4.639895e+09
-8.576042e+11 3.170298e+11 4.146003e+09
9.202128e+11 2.032688e+11 9.386008e+09
6.624901e+11 6.484512e+11 1.927241e+09
3.788996e+11 8.304600e+11 3.255086e+09
-3.831981e+11 8.374117e+11 3.280582e+09
-6.645805e+11 6.503702e+11 1.610831e+09
5.892482e+11 6.898540e+11 4.706168e+09
-2.960667e+11 -8.350433e+11 7.770736e+08
8.454213e+11 3.242626e+11 9.705012e+09
-5.260286e+11 -7.474098e+11 -1.344136e+09
5.260383e+11 -7.474228e+11 1.342285e+09
3.275708e+11 -8.532647e+11 4.829161e+07
-3.275415e+11 -8.532278e+11 -4.594606e+07
-9.033156e+11 1.649987e+11 7.365966e+08
9.070360e+11 1.747237e+11 -8.224216e+09
2.985241e+10 8.828082e+11 -8.963183e+09
-7.309185e+11 -5.145151e+11 -3.710074e+08
-4.754666e+11 8.232484e+11 -2.105451e+09
4.020803e+11 -7.941170e+11 2.898690e+09
-2.848240e+11 -8.483703e+11 -8.125191e+09
4.737994e+11 8.195273e+11 -2.827610e+09
8.812297e+11 1.275066e+11 -4.979286e+09
9.026645e+11 -2.689310e+11 5.490443e+09
-2.219604e+11 8.831764e+11 -5.042471e+09
2.217503e+11 8.826190e+11 -3.499417e+09
8.278677e+11 -3.682423e+11 9.361713e+09
-8.704005e+11 -2.466652e+11 -4.851109e+09
8.539010e+11 -2.383287e+11 2.115425e+09
-8.986084e+11 4.055943e+10 -2.116937e+09
9.248226e+11 3.751865e+10 1.068530e+08
-2.965642e+11 -8.534152e+11 -7.700160e+09
8.523704e+11 -3.692498e+11 -1.166164e+10
5.878216e+11 7.130932e+11 3.634623e+09
8.572848e+11 3.460693e+11 4.452803e+09
-3.613211e+11 8.408880e+11 -2.143318e+09
3.578773e+11 8.332291e+11 8.334698e+08
6.172686e+11 6.698667e+11 3.028298e+09
8.478362e+11 2.929903e+11 1.495380e+09
8.542455e+11 -2.885151e+11 -2.344082e+09
1.318467e+11 8.831079e+11 4.945107e+08
-1.370812e+11 8.928155e+11 -4.082193e+09
-2.783114e+11 -8.464741e+11 5.306397e+09
8.788339e+11 -1.584589e+11 -2.051636e+08
-8.788582e+11 -1.584596e+11 2.040817e+08
-9.190460e+11 1.709609e+11 1.217530e+10
8.625532e+11 -2.316726e+11 -2.523328e+09
-8.695869e+11 -2.280136e+11 7.719092e+08
1.995901e+11 8.773017e+11 1.327397e+08
-2.076131e+11 8.885256e+11 8.394165e+08
4.656839e+11 7.631839e+11 -5.255750e+09
-4.657924e+11 7.630405e+11 -5.207056e+09
2.714801e+11 -8.628700e+11 -1.979682e+09
-2.705354e+11 -8.515356e+11 -7.417808e+08
-2.712935e+11 -8.630942e+11 2.072675e+09
-2.518964e+11 -8.636257e+11 -1.099397e+09
2.516950e+11 -8.638024e+11 1.012117e+09
8.494959e+11 2.687011e+11 8.897400e+09
6.127445e+11 6.416487e+11 8.468817e+09
-6.933521e+11 5.575411e+11 6.047044e+09
6.553756e+11 -6.712330e+11 -4.407225e+09
-6.554704e+11 -6.713040e+11 4.360589e+09
-1.654073e+11 8.933766e+11 9.247710e+09
1.662761e+11 8.951609e+11 9.068836e+09
-2.755500e+11 -8.493651e+11 5.172327e+09
-8.908523e+11 -1.930275e+11 9.501865e+09
8.908582e+11 -1.930312e+11 -9.499905e+09
-8.721891e+11 2.308803e+11 1.847396e+09
8.133107e+11 4.706167e+11 2.690694e+09
-8.658907e+11 -2.767891e+11 1.041550e+10
-8.960423e+11 9.035768e+10 1.199880e+09
-8.406365e+11 3.472376e+11 5.116552e+09
2.500118e+11 8.746491e+11 9.904647e+09
-2.510373e+11 8.733901e+11 1.056819e+10
9.225245e+11 1.997576e+11 -2.015004e+08
-2.640054e+11 -8.485583e+11 5.267374e+09
-8.899625e+11 3.328557e+11 -7.204890e+09
7.361227e+11 4.949646e+11 -8.186373e+09
8.525203e+11 3.533498e+11 1.073488e+10
-7.913691e+11 -4.768383e+11 1.361298e+10
1.099736e+10 9.016345e+11 -1.039890e+10
8.065957e+10 8.989434e+11 1.103632e+10
-8.396197e+11 3.899227e+11 -2.780297e+09
-7.956075e+11 4.534703e+11 2.869261e+09
-7.668024e+11 5.254077e+11 -7.307236e+08
9.068514e+11 2.178008e+11 -1.033060e+10
-2.649087e+11 -8.702273e+11 -5.244832e+09
7.495706e+11 5.502336e+11 -1.449486e+09
-7.168413e+10 9.177663e+11 -1.070440e+09
-8.598837e+11 2.371116e+11 -1.663114e+09
-7.712378e+11 -4.718666e+11 -7.362304e+09
-3.723390e+11 -8.154889e+11 3.946366e+09
3.721295e+11 -8.151276e+11 -4.037411e+09
5.388213e+11 -7.389362e+11 3.222881e+09
-5.388116e+11 -7.389269e+11 -3.221590e+09
-3.976455e+11 -8.308900e+11 1.995980e+09
3.975346e+11 -8.307211e+11 -2.040696e+09
-2.547602e+11 -8.623214e+11 -3.880890e+09
5.091627e+11 7.599701e+11 9.632519e+09
-5.046052e+11 7.570973e+11 9.875801e+09
-2.575783e+10 9.333619e+11 5.946871e+09
2.541326e+11 -8.631054e+11 -2.231746e+08
-2.542329e+11 -8.630220e+11 1.887668e+08
8.263962e+11 4.045527e+11 -2.062839e+09
8.557143e+11 -3.499178e+11 -6.494584e+09
-8.176989e+11 -3.801283e+11 -8.855891e+09
-2.824457e+11 8.657843e+11 1.434744e+08
2.844383e+11 8.677610e+11 -5.619178e+09
-2.514316e+11 -8.635356e+11 -2.292598e+09
-8.673864e+11 -3.106924e+11 -1.226883e+09
7.797048e+11 -4.916586e+11 7.240294e+09
-9.221258e+11 1.668316e+11 -8.584059e+09
3.812618e+11 -8.244681e+11 -2.582711e+09
-3.809917e+11 -8.242151e+11 2.793225e+09
1.398907e+11 -8.950525e+11 3.095462e+09
-1.398939e+11 -8.950490e+11 -3.104656e+09
-6.112480e+11 -6.575833e+11 -1.629549e+10
6.106460e+11 -6.579063e+11 1.561964e+10
-9.022422e+11 2.175646e+11 4.767964e+09
-2.519454e+11 -8.698531e+11 3.305171e+09
1.774222e+11 -9.075122e+11 -1.074478e+10
-1.773740e+11 -9.075096e+11 1.073617e+10
-9.282884e+11 -3.285516e+10 8.363582e+09
8.900611e+11 -4.605169e+10 -9.575606e+09
-8.915223e+11 -4.538960e+10 9.767048e+09
-8.592962e+11 -3.547922e+11 3.804402e+08
-5.568104e+11 6.996197e+11 -2.997721e+09
9.099509e+11 1.463962e+11 5.119371e+09
-6.232932e+11 6.714508e+11 7.573993e+09
8.814537e+11 2.649141e+11 -3.323439e+09
4.209982e+11 -7.866879e+11 -3.018600e+08
-2.371664e+11 -8.853514e+11 2.118354e+09
-7.189514e+11 5.556092e+11 -7.590161e+09
-9.851120e+10 8.912753e+11 -4.740486e+09
-4.249390e+11 -8.095478e+11 1.429073e+10
4.259128e+11 -8.097814e+11 -1.361235e+10
-6.311812e+11 -6.428002e+11 -1.213788e+09
6.311824e+11 -6.427746e+11 1.342663e+09
7.767309e+11 -5.259471e+11 8.173473e+09
8.431928e+11 3.922267e+11 4.012558e+09
-8.745647e+11 2.522977e+11 2.333492e+09
4.076828e+11 8.421744e+11 1.781228e+09
-2.461378e+11 -8.689346e+11 -1.225503e+09
-4.056089e+11 8.386666e+11 1.992128e+09
7.813975e+11 -4.247092e+11 -2.181416e+09
7.222216e+11 -5.270771e+11 -2.501721e+09
-7.340294e+11 -5.274736e+11 4.236940e+09
-9.261696e+11 1.372514e+11 2.086159e+10
-9.179699e+11 4.401676e+10 -4.537449e+09
-7.697639e+11 -4.592431e+11 -3.652632e+09
8.587652e+11 -3.135152e+11 4.881694e+08
-2.987829e+11 -8.647388e+11 -7.088220e+09
2.986320e+11 -8.646006e+11 6.901731e+09
-2.344317e+11 -8.798376e+11 -1.246220e+10
-8.892925e+11 3.210957e+10 2.975608e+09
8.856159e+11 -2.804044e+11 8.528124e+09
-6.486797e+11 -6.083408e+11 -2.104059e+09
6.486863e+11 -6.083524e+11 2.105974e+09
9.053686e+11 -1.987509e+10 -9.307679e+08
-6.740973e+11 6.520072e+11 -9.436277e+09
-3.689789e+11 -8.364345e+11 1.377847e+10
3.704512e+11 -8.431844e+11 -1.364161e+10
6.675633e+11 -6.363209e+11 8.152415e+08
-6.675731e+11 -6.363240e+11 -8.145052e+08
-2.210260e+11 -8.874846e+11 8.630092e+09
-5.925691e+11 -6.917504e+11 -2.120336e+09
5.925874e+11 -6.916533e+11 2.140169e+09
-3.496458e+11 -8.935020e+11 -1.821032e+09
3.498867e+11 -8.947380e+11 2.229128e+09
-2.564708e+11 8.888419e+11 -8.120843e+09
2.628449e+11 8.775435e+11 -1.999914e+09
-8.811050e+11 -2.827091e+11 -8.092098e+09
-7.042216e+11 -5.844876e+11 1.286386e+09
7.035932e+11 -5.839778e+11 -1.271546e+09
-9.162241e+11 7.240613e+10 -3.742547e+09
-2.266846e+11 -8.669886e+11 -2.616212e+08
8.050960e+11 -4.317710e+11 3.111729e+09