# vtk DataFile Version 2.0
Electric current density generated by TTH
ASCII
DATASET UNSTRUCTURED_GRID
POINTS 19169 double
1.520000e-05 -3.722926e-21 -4.898587e-23
1.517854e-05 8.074579e-07 -4.898587e-23
1.267561e-05 8.388610e-06 -4.898587e-23
1.409394e-05 -5.692171e-06 -4.898587e-23
1.471915e-05 -1.642396e-06 6.393740e-08
6.176238e-06 1.353617e-05 -1.589690e-07
1.302679e-05 7.059705e-06 -8.017680e-08
1.302679e-05 -7.059705e-06 -8.017680e-08
-3.894291e-06 1.448408e-05 -1.999941e-07
-8.892964e-06 -1.207763e-05 1.999941e-07
-9.765425e-06 -1.149129e-05 1.832027e-07
-1.109828e-05 1.020983e-05 -1.832142e-07
-4.901307e-06 1.426148e-05 -1.832142e-07
-8.462717e-06 1.238292e-05 1.999942e-07
1.412731e-05 -5.608844e-06 -4.898587e-23
-1.890125e-06 -1.496132e-05 1.831994e-07
-8.169156e-06 1.267586e-05 -1.832131e-07
1.471595e-05 -2.339152e-06 -1.736078e-07
1.471595e-05 2.339152e-06 -1.736078e-07
7.655055e-06 -1.301978e-05 1.711583e-07
7.731169e-06 -1.297308e-05 1.720056e-07
-1.399724e-05 -5.618975e-06 -1.819822e-07
-1.399724e-05 5.618975e-06 1.819822e-07
-1.166105e-05 -9.141742e-06 -8.130157e-08
1.101408e-05 -1.045169e-05 7.884149e-08
1.416018e-05 -5.525321e-06 -4.898587e-23
1.101408e-05 1.045169e-05 7.884149e-08
-1.379336e-05 5.568059e-06 -1.559757e-07
-1.379336e-05 -5.568059e-06 1.559757e-07
1.403027e-05 -5.804102e-06 7.973350e-08
1.403027e-05 5.804102e-06 7.973350e-08
1.422395e-05 4.163279e-06 -8.864839e-08
1.422395e-05 -4.163279e-06 -8.864839e-08
-1.305107e-05 -7.308334e-06 -1.955427e-07
-1.305107e-05 7.308334e-06 1.955427e-07
1.082432e-05 1.010009e-05 4.288268e-08
1.419257e-05 -5.441606e-06 -4.898587e-23
1.082432e-05 -1.010009e-05 4.288268e-08
-1.239813e-05 8.759357e-06 -8.665693e-08
-1.239814e-05 -8.759353e-06 8.665661e-08
-1.017644e-05 -1.111277e-05 -1.879781e-07
2.638495e-06 1.472404e-05 -1.956624e-07
2.638495e-06 -1.472404e-05 -1.956624e-07
-1.479551e-05 2.202662e-06 1.956624e-07
-1.479552e-05 -2.202512e-06 -1.956603e-07
-1.474232e-05 -2.142759e-06 1.715721e-07
-1.445526e-05 -3.619543e-06 -1.740798e-07
1.422445e-05 -5.357701e-06 -4.898587e-23
-1.445526e-05 3.619543e-06 1.740798e-07
4.045016e-06 1.434062e-05 -1.733095e-07
4.044713e-06 -1.434211e-05 -1.740821e-07
8.108728e-06 1.249016e-05 -1.679834e-07
6.917502e-06 1.342638e-05 -1.710588e-07
1.481699e-05 8.418386e-07 1.211687e-07
1.481699e-05 -8.418386e-07 1.211687e-07
-7.677690e-06 1.297034e-05 -1.864422e-07
-1.075974e-05 -1.044893e-05 -1.999936e-07
-1.075974e-05 1.044893e-05 1.999936e-07
1.425584e-05 -5.273609e-06 -4.898587e-23
1.394488e-05 -4.974395e-06 -4.676889e-08
1.394488e-05 4.974395e-06 -4.676889e-08
7.955876e-06 -1.267340e-05 -1.966699e-07
8.257911e-07 1.487293e-05 1.707324e-07
8.257911e-07 -1.487293e-05 1.707324e-07
-7.861169e-06 -1.277071e-05 -1.999658e-07
-6.779722e-06 -1.337626e-05 1.999658e-07
-1.057148e-05 1.073975e-05 1.874315e-07
-1.057181e-05 -1.073945e-05 -1.874245e-07
-3.645393e-06 -1.461962e-05 1.883537e-07
1.428674e-05 -5.189333e-06 -4.898587e-23
-2.279171e-06 -1.467597e-05 1.343992e-07
-8.207865e-06 -1.263672e-05 1.879508e-07
-7.136298e-06 -1.327136e-05 -1.879508e-07
-6.015984e-06 -1.381534e-05 1.879508e-07
-9.216707e-06 1.192092e-05 1.879479e-07
-6.008258e-06 1.381872e-05 -1.879463e-07
1.323634e-05 6.633169e-06 -4.612027e-08
1.323634e-05 -6.633169e-06 -4.612027e-08
1.452847e-05 3.494110e-06 1.916261e-07
1.452847e-05 -3.494110e-06 1.916261e-07
1.431713e-05 -5.104876e-06 -4.898587e-23
-7.610401e-06 1.300629e-05 -1.876345e-07
-6.511501e-06 -1.359041e-05 1.874235e-07
-7.611548e-06 -1.300628e-05 -1.874235e-07
-8.659601e-06 -1.233330e-05 1.874235e-07
-3.583474e-06 1.463753e-05 -1.874267e-07
-8.781110e-06 1.224709e-05 1.874229e-07
-1.007897e-05 -1.096515e-05 -1.693651e-07
-1.399938e-05 4.862518e-06 -8.679096e-08
-1.399938e-05 -4.862518e-06 8.679096e-08
4.629999e-06 1.405714e-05 -9.084517e-11
1.434703e-05 -5.020242e-06 -4.898587e-23
-1.201503e-05 -8.675296e-06 8.643554e-08
-1.201503e-05 8.675300e-06 -8.643703e-08
-1.155357e-05 9.274669e-06 7.763381e-08
8.136970e-06 1.246699e-05 1.653224e-07
1.417681e-05 -5.107476e-06 -1.877984e-07
1.417681e-05 5.107476e-06 -1.877984e-07
-6.316505e-07 1.516773e-05 -8.534669e-08
5.544176e-06 1.400353e-05 -1.904384e-07
1.338759e-05 6.434540e-06 -1.363088e-07
1.338759e-05 -6.434540e-06 -1.363088e-07
1.437642e-05 -4.935432e-06 -4.898587e-23
7.575146e-06 -1.315878e-05 -7.972785e-08
2.745084e-06 1.473602e-05 1.997256e-07
2.745084e-06 -1.473602e-05 1.997256e-07
-1.481064e-05 2.308852e-06 -1.997256e-07
1.265094e-05 8.077741e-06 1.997564e-07
1.265094e-05 -8.077741e-06 1.997564e-07
5.678286e-06 1.370087e-05 -1.068562e-07
1.454477e-05 4.365145e-06 -7.431311e-08
1.454477e-05 -4.365145e-06 -7.431311e-08
3.837130e-06 1.459923e-05 1.759597e-07
1.262586e-05 8.463316e-06 -4.898587e-23
1.440532e-05 -4.850450e-06 -4.898587e-23
3.837130e-06 -1.459923e-05 1.759597e-07
-1.470615e-05 3.404459e-06 -1.759597e-07
-1.470615e-05 -3.404459e-06 1.759597e-07
4.469336e-06 1.423090e-05 1.816028e-07
-1.278718e-05 -8.187603e-06 7.877340e-08
-1.278718e-05 8.187603e-06 -7.877341e-08
-1.420022e-05 -4.676972e-06 1.938031e-07
-1.420022e-05 4.676972e-06 -1.938031e-07
5.094076e-06 -1.405598e-05 1.938008e-07
-1.287752e-05 -8.044865e-06 7.865809e-08
1.443371e-05 -4.765299e-06 -4.898587e-23
-1.287752e-05 8.044866e-06 -7.865817e-08
-1.506501e-05 -1.337125e-07 1.889360e-07
-5.884122e-07 1.517255e-05 7.849190e-08
-5.884122e-07 -1.517255e-05 -7.849190e-08
1.507031e-05 1.219409e-06 1.603266e-07
1.507031e-05 -1.219409e-06 1.603266e-07
1.054888e-05 -1.076209e-05 -1.873913e-07
1.054888e-05 1.076209e-05 -1.873913e-07
1.416742e-05 -5.257150e-06 -1.661214e-07
1.416742e-05 5.257150e-06 -1.661214e-07
1.446160e-05 -4.679982e-06 -4.898587e-23
-1.502580e-05 5.793874e-07 1.965546e-07
-1.336596e-05 -6.381649e-06 6.625545e-08
-1.336596e-05 6.381649e-06 -6.625544e-08
7.880962e-06 -1.262795e-05 -1.638989e-07
1.049464e-05 1.081412e-05 -1.876229e-07
1.049464e-05 -1.081412e-05 -1.876229e-07
8.587935e-06 -1.242303e-05 -1.717627e-07
8.118312e-06 1.257287e-05 -1.971059e-07
1.417460e-05 4.265373e-06 3.123312e-08
1.417460e-05 -4.265373e-06 3.123312e-08
1.448898e-05 -4.594501e-06 -4.898587e-23
1.301773e-05 7.658388e-06 -1.712066e-07
1.301773e-05 -7.658388e-06 -1.712066e-07
-6.004735e-06 -1.365697e-05 -1.827600e-07
-7.112009e-06 -1.311446e-05 1.827600e-07
-8.170701e-06 -1.248236e-05 -1.827600e-07
-1.298287e-05 7.116314e-06 -4.573841e-08
-1.298287e-05 -7.116314e-06 4.573835e-08
-9.083253e-06 1.183487e-05 -1.827607e-07
4.383540e-06 1.453658e-05 -8.037359e-08
-3.581309e-06 -1.445568e-05 1.687773e-07
1.451586e-05 -4.508861e-06 -4.898587e-23
1.392193e-05 -5.533642e-06 1.991298e-07
1.392193e-05 5.533642e-06 1.991298e-07
-1.481705e-05 -1.385979e-06 -1.612852e-07
1.739781e-06 -1.508392e-05 7.856377e-08
1.739781e-06 1.508392e-05 7.856377e-08
-1.512985e-05 1.288994e-06 -7.681363e-08
-1.135567e-05 -9.793918e-06 1.999546e-07
-5.912974e-06 1.358948e-05 8.750468e-08
5.381493e-06 1.386806e-05 -1.566032e-07
-1.206318e-05 9.223732e-06 -7.492099e-08
1.454223e-05 -4.423063e-06 -4.898587e-23
5.644837e-06 1.409647e-05 7.676410e-08
-1.479579e-05 1.010940e-06 1.058202e-07
-1.478750e-05 7.087226e-07 4.207608e-08
-7.464967e-06 1.278246e-05 -3.213399e-08
1.139867e-05 -9.645475e-06 1.880877e-07
1.139867e-05 9.645475e-06 1.880877e-07
-1.466879e-05 -3.077416e-06 -1.996473e-07
-1.466879e-05 3.077416e-06 1.996473e-07
3.509126e-06 1.457155e-05 -1.996473e-07
3.509126e-06 -1.457155e-05 -1.996473e-07
1.456810e-05 -4.337111e-06 -4.898587e-23
-3.387783e-06 -1.461179e-05 1.999991e-07
-1.138208e-06 1.488088e-05 -1.851379e-07
2.579441e-06 -1.467051e-05 1.705579e-07
2.579441e-06 1.467051e-05 1.705579e-07
-1.474027e-05 2.145214e-06 -1.705579e-07
1.485696e-05 -8.678842e-08 -1.400477e-07
1.485647e-05 8.706897e-08 -1.395386e-07
1.500610e-05 1.723086e-06 -1.704005e-07
1.500610e-05 -1.723086e-06 -1.704005e-07
-1.486081e-05 -1.408608e-06 1.863635e-07
1.459346e-05 -4.251007e-06 -4.898587e-23
-1.488224e-05 -8.255904e-07 1.760608e-07
1.098349e-05 9.937956e-06 6.867631e-08
1.098349e-05 -9.937956e-06 6.867631e-08
7.955021e-06 -1.257428e-05 1.595082e-07
-3.283295e-06 -1.467947e-05 -1.955028e-07
-9.972732e-06 1.126107e-05 -1.955020e-07
1.478643e-05 7.872657e-07 -5.380901e-08
1.478643e-05 -7.872657e-07 -5.380901e-08
9.931056e-06 1.148324e-05 -8.310299e-08
9.931056e-06 -1.148324e-05 -8.310299e-08
1.461830e-05 -4.164756e-06 -4.898587e-23
-9.189197e-06 -1.177659e-05 1.899895e-07
-1.057531e-05 1.054952e-05 -1.899895e-07
-4.279689e-06 1.431131e-05 -1.899895e-07
-1.057531e-05 -1.054952e-05 1.899895e-07
-2.353584e-06 1.475095e-05 -1.899940e-07
-1.031274e-05 -1.089519e-05 -1.999907e-07
-1.741970e-06 1.483566e-05 1.900086e-07
-1.413894e-05 -5.331792e-06 1.664723e-07
-1.413894e-05 5.331792e-06 -1.664723e-07
-1.517901e-05 1.869488e-07 -8.684006e-08
1.464264e-05 -4.078359e-06 -4.898587e-23
-9.668085e-06 -1.138683e-05 -1.900138e-07
-1.101332e-05 -1.045296e-05 7.808677e-08
8.047611e-06 -1.256638e-05 -1.843309e-07
5.746075e-06 -1.397570e-05 1.664777e-07
6.152222e-06 1.380890e-05 1.619204e-07
7.887187e-06 -1.289596e-05 1.624506e-07
7.888097e-06 1.289947e-05 1.599019e-07
-2.575277e-07 1.480894e-05 -6.593298e-08
1.250354e-05 -8.488704e-06 -1.651560e-07
1.250354e-05 8.488704e-06 -1.651560e-07
1.257566e-05 8.537727e-06 -4.898587e-23
1.466647e-05 -3.991820e-06 -4.898587e-23
6.422194e-06 -1.341278e-05 -1.528533e-07
1.178510e-05 -8.965205e-06 -5.443537e-08
1.178510e-05 8.965205e-06 -5.443537e-08
-6.796506e-06 1.350101e-05 -1.634762e-07
-4.110336e-06 1.461723e-05 7.804508e-08
-9.142631e-06 -1.212314e-05 -7.804508e-08
-2.638894e-06 1.495308e-05 7.804509e-08
5.583786e-06 1.411665e-05 -8.538115e-08
-1.458958e-05 -2.589639e-06 8.209104e-08
1.489427e-05 -6.052359e-07 1.768298e-07
1.468979e-05 -3.905141e-06 -4.898587e-23
1.489427e-05 6.052359e-07 1.768298e-07
3.300630e-07 1.517848e-05 -8.277970e-08
-5.752248e-06 1.385608e-05 -1.999826e-07
-6.218632e-06 -1.365370e-05 1.999750e-07
-7.324905e-06 -1.309353e-05 -1.999750e-07
-8.381142e-06 -1.244392e-05 1.999750e-07
[...]
POINT_DATA 19169
VECTORS 10.000GHz_fone_imag double
-1.319507e-04 2.102530e-05 1.073768e-01
-2.381472e-04 -3.095321e-04 1.067654e-01
6.073389e-04 5.759643e-04 1.073721e-01
-1.347291e-03 4.630168e-04 1.073060e-01
-3.645467e-02 4.350548e-03 -1.114000e-01
3.737125e-02 8.194942e-02 -7.148306e-02
4.021092e-02 2.216173e-02 -1.075759e-01
4.018709e-02 -2.211386e-02 -1.076384e-01
-2.898364e-02 1.078216e-01 -4.984493e-03
6.608983e-02 8.984888e-02 -4.976993e-03
6.621151e-02 7.791493e-02 4.097594e-02
-7.497502e-02 6.917581e-02 4.116766e-02
-3.319802e-02 9.676537e-02 4.075824e-02
6.310378e-02 -9.201333e-02 -5.445576e-03
-2.851933e-05 -8.578542e-04 1.070350e-01
1.284413e-02 1.012469e-01 4.103931e-02
-5.559860e-02 8.571736e-02 4.099062e-02
9.623150e-02 -1.565173e-02 -5.953784e-02
9.622742e-02 1.565251e-02 -5.954079e-02
-4.798666e-02 8.212555e-02 5.442740e-02
-4.925965e-02 8.141366e-02 5.404218e-02
-9.434773e-02 -3.769962e-02 4.244153e-02
9.436895e-02 -3.752935e-02 4.249903e-02
-3.587034e-02 -2.758641e-02 -1.072225e-01
-3.140365e-02 2.983484e-02 9.858096e-02
3.410833e-04 2.449191e-04 1.071399e-01
-3.138126e-02 -2.980386e-02 9.859400e-02
-8.232965e-02 3.299187e-02 -7.368559e-02
8.233862e-02 3.302828e-02 -7.366134e-02
-4.105784e-02 1.719097e-02 9.792108e-02
-4.104807e-02 -1.719855e-02 9.792692e-02
4.806611e-02 1.433462e-02 -1.054002e-01
4.807102e-02 -1.433937e-02 -1.054028e-01
-9.504398e-02 -5.367824e-02 -2.801506e-02
9.500589e-02 -5.370023e-02 -2.800192e-02
-1.731543e-02 -1.598940e-02 -1.146799e-01
3.169369e-04 -4.232648e-04 1.073188e-01
-1.726763e-02 1.599332e-02 -1.146753e-01
-3.928735e-02 2.785599e-02 9.654152e-02
3.935719e-02 2.784536e-02 9.657679e-02
-7.057236e-02 -7.686648e-02 3.439049e-02
1.926509e-02 1.084435e-01 -2.693852e-02
1.926498e-02 -1.084428e-01 -2.694075e-02
1.089223e-01 -1.605601e-02 -2.692397e-02
-1.083627e-01 -1.604525e-02 -2.690808e-02
9.580192e-02 1.399504e-02 -6.176667e-02
-9.526662e-02 -2.423272e-02 -5.820828e-02
3.813521e-04 4.342979e-05 1.068641e-01
9.534764e-02 -2.404225e-02 -5.840255e-02
2.681888e-02 9.438591e-02 -5.979655e-02
2.702172e-02 -9.472575e-02 -5.828701e-02
5.187252e-02 7.948751e-02 -6.498294e-02
4.354639e-02 8.442065e-02 5.374625e-02
-6.837407e-02 -3.860913e-03 -9.386183e-02
-6.837795e-02 3.860679e-03 -9.386320e-02
-5.295825e-02 9.012166e-02 3.645771e-02
-7.990391e-02 -7.801730e-02 -5.089968e-03
8.005058e-02 -7.810506e-02 -5.110427e-03
-1.666514e-04 9.542500e-04 1.070678e-01
2.499445e-02 -8.892545e-03 -1.142224e-01
2.499204e-02 8.892124e-03 -1.142224e-01
5.834597e-02 -9.352436e-02 -2.345174e-02
-5.202401e-03 -9.585133e-02 -6.233472e-02
-5.192611e-03 9.586181e-02 -6.241512e-02
-5.839325e-02 -9.472313e-02 -5.963316e-03
5.037167e-02 9.918215e-02 -5.963797e-03
7.300910e-02 -7.442208e-02 3.502864e-02
-7.341815e-02 -7.462546e-02 3.519723e-02
2.530846e-02 1.014038e-01 3.419523e-02
-1.034763e-03 -4.383153e-04 1.069883e-01
1.196040e-02 7.524910e-02 -8.677272e-02
5.668922e-02 8.771507e-02 3.442680e-02
-4.925038e-02 -9.212396e-02 3.447264e-02
4.125354e-02 9.571421e-02 3.440610e-02
6.412264e-02 -8.224247e-02 3.437534e-02
-4.205834e-02 9.600285e-02 3.475619e-02
2.384806e-02 1.227909e-02 -1.137556e-01
2.384224e-02 -1.226863e-02 -1.137703e-01
-1.047918e-01 -2.589149e-02 -3.555080e-02
-1.047911e-01 2.589187e-02 -3.555023e-02
4.235679e-04 -2.880880e-04 1.067552e-01
-5.296958e-02 9.054428e-02 3.520945e-02
4.531473e-02 9.452452e-02 3.506264e-02
-5.284612e-02 -9.042423e-02 3.522488e-02
6.019600e-02 8.568197e-02 3.503545e-02
-2.479674e-02 1.017171e-01 3.506405e-02
6.098338e-02 -8.513719e-02 3.508409e-02
-6.487963e-02 -7.081930e-02 -6.353804e-02
-4.749378e-02 1.683461e-02 -1.055617e-01
4.745872e-02 1.685598e-02 -1.056459e-01
2.621381e-04 7.795249e-05 -1.173350e-01
-4.927831e-04 3.077612e-04 1.071522e-01
3.951879e-02 2.870848e-02 -1.051662e-01
-3.986148e-02 2.889918e-02 -1.054228e-01
3.414221e-02 -2.716654e-02 -1.084319e-01
-5.186398e-02 -7.839529e-02 -6.685357e-02
9.892575e-02 -3.550868e-02 3.464844e-02
9.892613e-02 3.551043e-02 3.464885e-02
-1.716401e-03 4.770168e-02 9.675196e-02
3.921265e-02 9.913356e-02 3.002644e-02
6.986121e-02 3.377110e-02 -8.668743e-02
6.985062e-02 -3.377466e-02 -8.668812e-02
-6.424974e-05 -4.587502e-04 1.069476e-01
2.241906e-02 -3.812601e-02 9.769821e-02
-2.072407e-02 -1.098888e-01 -9.874174e-03
-2.072320e-02 1.098866e-01 -9.876458e-03
-1.105094e-01 1.745516e-02 -9.867657e-03
-9.362908e-02 -5.967867e-02 2.536388e-03
-9.362863e-02 5.967824e-02 2.536288e-03
2.332865e-02 5.553828e-02 -9.990101e-02
3.930811e-02 1.172847e-02 9.939632e-02
3.929744e-02 -1.172954e-02 9.938946e-02
-2.474013e-02 -9.430200e-02 4.947117e-02
-8.425110e-04 1.481659e-04 1.074474e-01
7.019526e-04 -5.670167e-04 1.070766e-01
-2.458355e-02 9.413372e-02 4.909245e-02
-9.461602e-02 2.226216e-02 5.004216e-02
9.481462e-02 2.200058e-02 4.944551e-02
-3.042140e-02 -9.766849e-02 -5.138352e-02
3.647326e-02 2.349556e-02 9.839859e-02
-3.640490e-02 2.359038e-02 9.860549e-02
1.037958e-01 3.428669e-02 -3.182823e-02
-1.035655e-01 3.411322e-02 -3.206196e-02
-3.726341e-02 1.027792e-01 -3.208907e-02
3.705148e-02 2.346474e-02 9.828388e-02
8.887713e-04 3.612731e-04 1.067212e-01
-3.704689e-02 2.345359e-02 9.829571e-02
1.051604e-01 7.136103e-04 3.269806e-02
1.545664e-03 -4.298612e-02 9.851859e-02
-1.288582e-03 -4.306465e-02 9.851877e-02
-8.867422e-02 -7.391842e-03 6.258644e-02
-8.866555e-02 7.391175e-03 6.259094e-02
7.276090e-02 -7.431932e-02 3.542503e-02
7.276142e-02 7.431851e-02 3.542679e-02
8.644827e-02 -3.225624e-02 5.886947e-02
8.644837e-02 3.225687e-02 5.886926e-02
1.582543e-04 -2.697384e-04 1.067211e-01
1.097948e-01 -4.335722e-03 1.740211e-02
3.453827e-02 1.659644e-02 -1.104245e-01
-3.464752e-02 1.683106e-02 -1.104954e-01
4.907655e-02 -7.897987e-02 -6.824210e-02
7.251019e-02 7.466718e-02 3.512861e-02
7.250986e-02 -7.466781e-02 3.512815e-02
5.458279e-02 -7.881974e-02 5.299931e-02
6.053176e-02 9.283364e-02 -2.279880e-02
-1.698285e-02 -5.659553e-03 -1.156188e-01
-1.698036e-02 5.663113e-03 -1.156273e-01
8.347781e-04 -6.313687e-05 1.068063e-01
8.216617e-02 4.870840e-02 5.312271e-02
8.216733e-02 -4.871332e-02 5.312281e-02
-4.125750e-02 -9.466711e-02 -4.931559e-02
4.900505e-02 9.078577e-02 -4.893143e-02
-5.627805e-02 -8.643501e-02 -4.894640e-02
-2.289533e-02 1.260823e-02 -1.142383e-01
2.289781e-02 1.260609e-02 -1.142453e-01
-6.312334e-02 8.170168e-02 -4.939045e-02
1.297938e-02 4.306146e-02 9.775057e-02
2.288243e-02 9.288117e-02 -6.415108e-02
3.767629e-05 9.669980e-04 1.069843e-01
-1.035356e-01 4.083056e-02 -1.419206e-02
-1.035392e-01 -4.083250e-02 -1.419126e-02
-9.077086e-02 -8.692482e-03 -7.003812e-02
-4.837561e-03 4.389701e-02 9.813222e-02
-4.907366e-03 -4.421404e-02 9.815102e-02
-4.266616e-02 3.529728e-03 9.878367e-02
8.502640e-02 7.263203e-02 -6.304710e-03
1.966971e-02 -4.547325e-02 -1.058100e-01
3.168690e-02 8.304827e-02 -7.369283e-02
-3.386281e-02 2.570012e-02 9.885531e-02
-6.858720e-04 9.881150e-05 1.071637e-01
-1.589540e-02 -3.869097e-02 9.851033e-02
5.975081e-02 -4.428047e-03 -9.996684e-02
2.354049e-02 -1.073685e-03 -1.150905e-01
-9.326020e-03 1.556867e-02 -1.156773e-01
-8.135922e-02 6.874284e-02 -4.199829e-02
-8.136962e-02 -6.873945e-02 -4.200201e-02
-1.089961e-01 -2.273573e-02 -9.472297e-03
1.090303e-01 -2.277303e-02 -9.495577e-03
2.595602e-02 1.083132e-01 -9.438385e-03
2.597425e-02 -1.083569e-01 -9.487442e-03
-7.470111e-04 -1.273120e-04 1.075052e-01
2.511882e-02 1.085764e-01 -4.459691e-03
-8.091742e-03 1.039177e-01 -4.610731e-02
-1.625196e-02 9.435511e-02 -6.253175e-02
-1.625207e-02 -9.435526e-02 -6.253028e-02
-9.484908e-02 1.343869e-02 -6.251956e-02
7.886149e-02 -7.555867e-04 -8.448544e-02
7.860089e-02 7.422379e-04 -8.475800e-02
9.384108e-02 1.084651e-02 5.523622e-02
9.384088e-02 -1.084649e-02 5.523615e-02
1.044145e-01 1.011826e-02 -4.434476e-02
4.045598e-04 -3.823040e-04 1.069701e-01
9.940327e-02 5.734113e-03 -5.738033e-02
-2.929223e-02 -2.606881e-02 -1.104486e-01
-2.926744e-02 2.599169e-02 -1.104894e-01
-4.829563e-02 7.589134e-02 -7.165804e-02
-2.394839e-02 -1.064230e-01 2.101146e-02
-7.225155e-02 8.182277e-02 2.070492e-02
3.041736e-02 1.313805e-03 -1.131121e-01
3.040898e-02 -1.315477e-03 -1.131140e-01
3.020198e-02 3.516658e-02 9.744256e-02
3.017789e-02 -3.514542e-02 9.743553e-02
5.302903e-04 -1.590975e-05 1.068646e-01
6.570175e-02 8.437500e-02 -3.955292e-02
-7.550202e-02 7.527722e-02 -3.936569e-02
-3.028546e-02 1.023616e-01 -3.941519e-02
7.551158e-02 7.534481e-02 -3.935621e-02
-1.717566e-02 1.054128e-01 -3.935043e-02
-7.654440e-02 -8.088480e-02 -2.427550e-03
1.229195e-02 -1.064300e-01 -3.886879e-02
8.581864e-02 3.228895e-02 5.872924e-02
-8.585833e-02 3.233292e-02 5.856082e-02
-4.784663e-02 1.088953e-03 9.622130e-02
1.587052e-04 1.595587e-04 1.070775e-01
-6.904149e-02 -8.158775e-02 -3.985017e-02
3.145018e-02 2.956806e-02 9.816142e-02
5.576619e-02 -8.717862e-02 -4.669317e-02
-3.488747e-02 8.552930e-02 5.810118e-02
-3.590568e-02 -8.224886e-02 6.184966e-02
-4.605918e-02 7.690044e-02 6.161596e-02
-4.598223e-02 -7.583611e-02 6.336649e-02
-1.211484e-03 3.886248e-02 -1.109443e-01
7.611246e-02 -5.150272e-02 5.874959e-02
7.611186e-02 5.150151e-02 5.875039e-02
-3.698176e-04 -3.717911e-04 1.068735e-01
-3.354191e-04 4.206782e-04 1.069626e-01
3.737031e-02 -7.828776e-02 -7.705180e-02
2.475939e-02 -1.881712e-02 -1.126925e-01
2.476029e-02 1.882257e-02 -1.126966e-01
-4.045817e-02 8.128163e-02 6.041355e-02
1.188178e-02 -4.152839e-02 9.856094e-02
-2.619169e-02 -3.428491e-02 9.844209e-02
7.374168e-03 -4.286181e-02 9.852175e-02
1.724787e-02 4.424218e-02 9.654095e-02
4.514601e-02 8.325501e-03 -1.074422e-01
-9.977210e-02 3.785855e-03 -5.597135e-02
-3.120896e-04 -4.814941e-04 1.069557e-01
-9.976657e-02 -3.785379e-03 -5.595961e-02
7.082806e-04 4.545152e-02 9.735182e-02
-4.262655e-02 1.028219e-01 -2.583017e-03
4.612002e-02 1.013239e-01 -2.463022e-03
-5.434703e-02 -9.732378e-02 -1.998242e-03
6.222451e-02 9.256446e-02 -1.917004e-03
6.661053e-02 -8.917864e-02 -2.494330e-03
-3.748802e-02 -1.042689e-01 -2.398387e-03
-2.516679e-02 1.084721e-01 -2.436349e-03
-5.407481e-02 9.664146e-02 -2.279537e-03
-1.312464e-04 6.445038e-04 1.073214e-01
-1.030471e-01 -3.777888e-02 -2.246219e-02
1.030071e-01 -3.777933e-02 -2.252146e-02
-1.046095e-01 -2.748124e-02 -3.171086e-02
1.045484e-01 -2.747441e-02 -3.203665e-02
3.057256e-02 -1.038077e-01 -3.171442e-02
3.076091e-02 1.040823e-01 -3.182746e-02
1.036416e-01 3.828924e-02 -2.482469e-02
1.036412e-01 -3.828769e-02 -2.482467e-02
-4.414007e-02 -1.897843e-03 9.837698e-02
-8.914504e-02 3.181667e-02 -6.570674e-02
-8.335329e-04 2.346952e-05 1.068950e-01
-8.914426e-02 -3.181656e-02 -6.570739e-02
4.982958e-02 -2.447314e-02 -1.027610e-01
4.983257e-02 2.447334e-02 -1.027606e-01
4.691924e-02 4.621787e-02 -9.584489e-02
-4.692865e-02 4.622300e-02 -9.613578e-02
-8.561420e-02 7.043851e-02 -3.399790e-03
-7.464819e-02 5.114444e-02 6.177314e-02
7.457809e-02 5.120947e-02 6.157225e-02
4.806498e-03 4.464694e-02 -1.080278e-01
4.757838e-03 -4.433846e-02 -1.082505e-01
1.513070e-06 -1.453150e-04 1.069553e-01
2.503436e-02 -8.261907e-02 -7.676930e-02
8.303400e-02 -2.251938e-02 -7.708850e-02
-8.329757e-02 -2.257520e-02 -7.675695e-02
4.041140e-02 5.213706e-03 -1.096522e-01
4.042219e-02 -5.214121e-03 -1.096441e-01
4.106348e-02 -1.025843e-01 -2.056057e-02
-8.620617e-02 -7.090400e-02 -2.784418e-03
1.043451e-01 -4.012890e-02 -1.658106e-05
1.043439e-01 4.012886e-02 -1.389624e-05
4.641840e-02 2.654336e-02 -1.040390e-01
-2.201495e-04 2.029507e-05 1.066623e-01
-4.643977e-02 2.655685e-02 -1.040666e-01
-2.096401e-02 -4.310487e-02 9.650569e-02
-2.618948e-02 -3.988162e-02 9.670816e-02
-2.619664e-02 3.965989e-02 9.664972e-02
2.542715e-02 -1.062898e-02 -1.137094e-01
2.542687e-02 1.059913e-02 -1.137124e-01
-3.687864e-05 2.624888e-02 -1.143096e-01
7.718251e-02 -8.005717e-02 -3.418022e-03
8.543964e-02 6.838443e-02 -2.715521e-02
4.526818e-02 -5.178829e-02 -9.274429e-02
-2.996080e-05 -5.360215e-04 1.069800e-01
-3.140358e-02 -7.092800e-02 -8.679323e-02
-3.383456e-02 2.753838e-02 -1.085632e-01
-6.454601e-03 -1.630377e-02 -1.156812e-01
-3.084981e-03 1.768413e-02 -1.158842e-01
1.246802e-02 -1.204615e-02 -1.159327e-01
-8.445667e-02 3.887246e-02 5.739514e-02
8.448395e-02 3.900860e-02 5.763350e-02
-1.260880e-02 -1.216083e-02 -1.159207e-01
-7.952576e-02 6.719096e-02 3.652496e-02
-3.798238e-02 9.690886e-02 3.659839e-02
6.026977e-04 -2.720692e-04 1.072837e-01
8.379539e-02 -5.930848e-02 -4.901174e-02
8.379526e-02 5.930880e-02 -4.901237e-02
8.448418e-02 3.169135e-02 -7.170446e-02
8.448335e-02 -3.169020e-02 -7.170368e-02
-4.642561e-03 -2.545107e-02 -1.131922e-01
-2.076751e-02 1.098242e-01 -5.080299e-03
4.679293e-02 -6.319638e-04 9.617195e-02
2.296537e-02 -3.292251e-02 9.961025e-02
4.463087e-02 2.643854e-02 -1.046134e-01
-4.464630e-02 2.641498e-02 -1.046103e-01
4.858362e-04 4.771846e-04 1.071078e-01
-5.388540e-03 4.256775e-02 9.842005e-02
2.581909e-02 8.540754e-02 -7.382124e-02
-3.967663e-02 -9.463086e-03 9.925098e-02
4.045975e-02 -9.662595e-03 9.874725e-02
4.498091e-02 1.005440e-01 1.590119e-02
1.075498e-02 -3.967862e-02 9.917080e-02
1.063517e-02 3.899862e-02 9.904765e-02
-4.391236e-03 -9.935304e-02 4.609547e-02
4.275463e-03 -9.962639e-02 4.632820e-02
4.306064e-02 9.881544e-02 -3.661520e-02
-9.196598e-05 -3.446264e-04 1.071249e-01
-1.226324e-02 1.077927e-02 -1.158467e-01
-5.819277e-03 1.559154e-02 -1.159185e-01
-8.290437e-02 -3.494582e-02 -7.151331e-02
8.274136e-02 -3.484076e-02 -7.127313e-02
-8.228527e-02 7.559438e-02 -5.147054e-03
-3.665494e-02 1.055036e-01 -5.152966e-03
3.280995e-02 9.613986e-02 4.281129e-02
4.383719e-02 -6.582034e-03 9.819873e-02
-4.246961e-02 -6.434568e-03 9.895896e-02
7.613940e-03 4.240804e-02 9.873186e-02
-5.073049e-04 -8.689040e-04 1.073970e-01
4.675012e-04 1.944037e-04 1.071774e-01
7.613717e-03 -4.240755e-02 9.873232e-02
2.066007e-02 1.106340e-01 -3.645112e-03
1.118026e-02 4.253135e-02 9.821299e-02
1.123973e-02 -4.305107e-02 9.804517e-02
4.468281e-02 -1.029643e-02 9.764450e-02
-4.305155e-02 -9.862889e-03 9.845188e-02
-7.648906e-02 4.674532e-02 6.251683e-02
7.642714e-02 4.674831e-02 6.247895e-02
1.009062e-01 3.186470e-02 3.185158e-02
1.008796e-01 -3.184899e-02 3.187613e-02
-1.469468e-04 5.092367e-04 1.071208e-01
9.912677e-02 -2.969957e-02 3.642325e-02
9.913817e-02 2.969124e-02 3.641157e-02
-1.368797e-02 4.101643e-02 9.798355e-02
-3.135712e-02 2.927059e-02 9.809669e-02
2.751954e-02 3.275924e-02 9.836442e-02
-1.538208e-02 -1.522140e-02 -1.152088e-01
-1.537687e-02 1.523159e-02 -1.152071e-01
-3.998855e-02 -6.532180e-03 -1.092047e-01
4.073918e-02 -6.807295e-03 -1.087303e-01
7.982164e-03 -4.052184e-02 -1.087987e-01
-9.545649e-05 -4.406473e-04 1.071385e-01
7.983674e-03 4.052318e-02 -1.087952e-01
-2.788279e-02 -1.049168e-01 2.301367e-02
-2.152869e-02 3.818924e-02 -1.086600e-01
-1.928494e-02 5.668685e-02 -9.909529e-02
4.697207e-03 4.278624e-02 9.856666e-02
-4.204570e-02 -1.028366e-01 -6.008475e-03
-5.728344e-02 1.754098e-02 -9.913414e-02
5.723861e-02 1.761614e-02 -9.908501e-02
-9.407385e-03 4.260890e-02 -1.089335e-01
-1.475032e-02 -4.115566e-02 -1.087486e-01
4.181713e-04 6.217508e-04 1.068186e-01
-2.348032e-02 3.588109e-02 9.811022e-02
-1.618554e-02 4.039530e-02 -1.083548e-01
-5.815601e-02 9.505450e-02 -9.273320e-03
-1.034648e-01 1.646956e-03 3.689607e-02
9.243650e-02 -8.763822e-03 5.724848e-02
7.391118e-03 1.471315e-02 -1.159385e-01
-8.599412e-03 -1.418203e-02 -1.157183e-01
9.629136e-03 1.342585e-02 -1.160828e-01
-4.449501e-03 1.599288e-02 -1.156714e-01
9.453083e-03 -1.350987e-02 -1.160775e-01
-1.578881e-03 3.284837e-04 1.070934e-01
-1.042247e-01 -8.128582e-03 -4.605234e-02
-1.153492e-02 -4.204845e-02 9.796687e-02
5.728125e-02 -9.340755e-02 1.789615e-02
3.909635e-02 -1.799838e-02 9.852318e-02
3.909179e-02 1.798384e-02 9.850567e-02
7.423360e-02 5.443822e-02 5.838858e-02
7.423404e-02 -5.443824e-02 5.838841e-02
6.057317e-02 -2.973685e-02 -9.433580e-02
6.057237e-02 2.973604e-02 -9.432827e-02
7.260162e-02 -4.936791e-02 6.481394e-02
-7.572483e-05 -7.784937e-04 1.066538e-01
-7.256274e-02 -4.926608e-02 6.503254e-02
5.638835e-02 2.140902e-03 -1.026104e-01
9.650828e-02 2.839070e-02 4.323331e-02
9.650146e-02 -2.839620e-02 4.323644e-02
2.174177e-02 -4.485380e-02 -1.060302e-01
4.182916e-02 1.024384e-01 -2.197752e-02
3.955124e-02 -8.501321e-02 5.599999e-02
-5.028850e-02 -1.680379e-02 -1.040283e-01
5.000528e-02 -1.660183e-02 -1.041814e-01
1.805585e-02 -4.941139e-02 -1.042725e-01
2.580225e-04 4.128432e-04 1.068234e-01
5.543999e-02 8.764636e-02 -4.670114e-02
1.513736e-02 8.157319e-02 -8.052933e-02
-9.763732e-02 -4.502444e-02 -3.845153e-02
-9.760805e-02 4.500593e-02 -3.848672e-02
4.212580e-02 6.234125e-03 9.878905e-02
4.213355e-02 -6.234443e-03 9.879737e-02
7.529584e-02 -6.992162e-02 3.849538e-02
7.531583e-02 6.989473e-02 3.851362e-02
-2.591475e-02 -1.076112e-01 1.411622e-02
1.061239e-01 2.098413e-02 -3.567452e-02
-8.909602e-05 -4.455763e-04 1.071655e-01
1.061250e-01 -2.098281e-02 -3.567451e-02
-1.933960e-03 5.963978e-02 -9.989071e-02
5.018440e-03 9.254541e-02 5.746328e-02
4.997291e-03 -9.261884e-02 5.739109e-02
-6.427837e-03 1.468179e-02 -1.161726e-01
-3.326615e-02 -2.597317e-02 9.890967e-02
1.612409e-02 -9.852592e-02 -5.670839e-02
7.286552e-02 6.752787e-02 -5.704249e-02
2.826859e-02 -9.564376e-02 -5.666430e-02
-6.069578e-02 -7.851587e-02 -5.696850e-02
4.400901e-04 2.620684e-06 1.072155e-01
1.061810e-01 1.145790e-02 2.702203e-02
-9.951690e-02 5.157510e-02 -1.406421e-02
-9.953571e-02 -5.162505e-02 -1.404132e-02
-3.000135e-02 2.904025e-02 9.922587e-02
-2.999133e-02 -2.902758e-02 9.921698e-02
6.109851e-02 9.073302e-02 -3.104246e-02
1.922372e-02 -4.064330e-02 -1.075677e-01
-2.125486e-02 -7.402508e-02 -8.643695e-02
6.921849e-02 -3.308666e-02 -8.701814e-02
-6.907062e-02 -3.301683e-02 -8.710445e-02
7.463276e-05 3.117316e-04 1.070153e-01
-4.877301e-02 -9.107665e-02 3.611891e-02
-6.016649e-02 -8.395841e-02 3.622030e-02
-6.041099e-02 8.444689e-02 3.635758e-02
-1.295839e-02 -8.250902e-02 -7.999211e-02
2.647480e-03 3.856445e-02 -1.103837e-01
2.392818e-02 -3.986857e-02 9.700899e-02
-3.649408e-02 -1.005293e-01 -3.912399e-02
-1.019899e-01 3.538986e-02 -3.534634e-02
-1.019833e-01 -3.538067e-02 -3.535362e-02
1.801995e-03 4.711629e-02 9.686891e-02
8.335199e-04 1.859780e-05 1.075540e-01
-3.401098e-04 4.291106e-04 1.069645e-01
3.411435e-02 1.066275e-01 -1.358610e-02
-3.229791e-02 3.393734e-02 9.682918e-02
-3.230028e-02 -3.393807e-02 9.683065e-02
-8.808428e-04 -3.413391e-02 -1.115258e-01
-3.579387e-02 -3.755012e-02 -1.045122e-01
9.286418e-02 -4.021668e-02 4.292159e-02
9.299148e-02 4.034181e-02 4.312029e-02
7.701593e-02 8.050153e-02 -1.925943e-02
7.701580e-02 -8.050273e-02 -1.926020e-02
8.312700e-02 -7.129220e-02 1.960816e-02
-5.045818e-04 4.728139e-04 1.071802e-01
8.312448e-02 7.129369e-02 1.960527e-02
4.213499e-02 -1.718195e-02 -1.084343e-01
4.216436e-02 1.720856e-02 -1.083818e-01
6.350771e-02 1.825710e-02 -9.598602e-02
-6.339261e-02 1.823853e-02 -9.585474e-02
-2.013088e-02 6.296533e-02 -9.599238e-02
6.599069e-02 -7.973380e-02 -4.856635e-02
6.597507e-02 7.973683e-02 -4.855316e-02
-8.252594e-03 -1.008084e-01 -5.292058e-02
1.892127e-02 3.589832e-02 9.942573e-02
-1.177879e-03 1.769053e-04 1.069704e-01
2.351036e-02 3.310651e-02 9.936166e-02
1.113907e-01 8.620913e-03 5.482456e-03
4.096465e-02 -6.587848e-03 9.859904e-02
-4.070799e-02 -6.530348e-03 9.860621e-02
7.758979e-03 4.065550e-02 9.855527e-02
7.760335e-03 -4.065651e-02 9.855664e-02
1.069879e-01 -3.769028e-03 -3.917527e-02
-6.031925e-02 9.403241e-02 -4.897530e-03
-7.421874e-03 -2.246414e-03 -1.171270e-01
7.402661e-03 -2.108389e-03 -1.174218e-01
-1.267890e-03 -2.925547e-04 1.068040e-01
2.436589e-03 -7.404500e-03 -1.171013e-01
-7.632797e-04 3.346027e-02 -1.113176e-01
-4.078061e-02 -6.096614e-02 -9.082650e-02
-1.818057e-03 -6.210185e-02 -9.816122e-02
-1.113632e-01 3.808537e-03 -2.104703e-02
4.888599e-02 6.539796e-02 -8.207612e-02
4.887640e-02 -6.536225e-02 -8.203793e-02
2.192775e-02 3.802345e-02 9.794770e-02
-3.138063e-02 -7.538345e-02 -8.149505e-02
1.478869e-02 -4.490629e-02 -1.067820e-01
-4.205563e-05 -9.351422e-05 1.070807e-01