# vtk DataFile Version 2.0
Electric current density generated by TTH
ASCII
DATASET UNSTRUCTURED_GRID
POINTS 2077 double
-1.897051e-05 -1.008680e-05 -4.339804e-22
-2.019906e-05 -2.908640e-06 1.630359e-06
-1.444816e-05 1.152381e-05 1.272901e-06
-6.896777e-06 1.714530e-05 1.272355e-06
-2.045506e-05 -5.865395e-06 8.292702e-07
-1.485908e-05 1.191004e-05 -1.640126e-06
1.277591e-05 -1.342292e-05 -1.319491e-06
-1.822778e-05 3.029949e-06 1.269876e-06
1.227063e-05 1.738790e-05 8.250439e-07
-1.879447e-05 3.070897e-06 -1.640353e-06
-1.226944e-06 -2.119347e-05 9.181935e-07
-1.848067e-05 -1.095848e-05 -4.339804e-22
1.961006e-05 -8.259265e-06 8.311440e-07
1.961006e-05 8.259265e-06 8.311440e-07
-1.562406e-05 1.441902e-05 8.635444e-07
2.112945e-05 2.348515e-06 -8.656632e-07
2.112945e-05 -2.348515e-06 -8.656632e-07
-9.332838e-06 1.910283e-05 8.635256e-07
1.892340e-05 9.663125e-06 -8.862699e-07
1.892365e-05 -9.661889e-06 -8.868618e-07
-2.117023e-05 1.969475e-06 8.619503e-07
-1.640174e-05 -1.231353e-05 1.583021e-06
-1.795081e-05 -1.180644e-05 -4.339804e-22
-1.270913e-05 -1.707133e-05 8.230281e-07
3.051310e-06 -1.994712e-05 1.709597e-06
-9.124381e-07 -1.804942e-05 6.680501e-07
1.078774e-05 1.715587e-05 1.683632e-06
-2.860364e-06 1.806712e-05 -1.057840e-06
-5.090205e-06 1.916772e-05 -1.767891e-06
7.328455e-06 1.692793e-05 -1.238219e-06
-7.243650e-06 -1.725791e-05 -1.464675e-06
2.093773e-05 3.638531e-06 -8.798691e-07
2.093773e-05 -3.638531e-06 -8.798691e-07
-1.738208e-05 -1.262882e-05 -4.339804e-22
1.460947e-05 1.548513e-05 -8.106614e-07
2.002231e-05 -7.197602e-06 -8.343077e-07
2.002231e-05 7.197602e-06 -8.343077e-07
-1.785953e-05 -9.448449e-06 1.702388e-06
4.005671e-07 1.922191e-05 -1.703479e-06
1.831614e-05 5.931268e-06 1.710835e-06
1.831614e-05 -5.931268e-06 1.710835e-06
-1.107161e-05 -1.818576e-05 8.071621e-07
1.804236e-05 -2.548179e-06 -9.554920e-07
1.804286e-05 2.546099e-06 -9.558169e-07
-1.677569e-05 -1.342385e-05 -4.339804e-22
6.182866e-06 1.821131e-05 -1.705233e-06
-2.017744e-05 9.867302e-07 -1.703336e-06
-1.644557e-05 -1.175055e-05 -1.700255e-06
-1.932173e-05 5.935671e-06 1.700045e-06
-1.733696e-05 1.038762e-05 1.700687e-06
-4.955724e-06 1.958687e-05 1.702612e-06
-1.936213e-05 5.608756e-06 -1.715182e-06
-1.789070e-05 1.149930e-05 -8.511450e-07
-1.505839e-05 1.500173e-05 -8.724420e-07
-7.158142e-06 -1.999963e-05 -8.962427e-07
-1.613298e-05 -1.418981e-05 -4.339804e-22
1.178382e-05 1.353303e-05 9.754348e-08
-1.780707e-05 -8.780241e-06 -1.766279e-06
-1.810879e-05 -8.142487e-06 -1.766191e-06
-4.953643e-08 2.041024e-05 1.629127e-06
8.874420e-06 -1.936666e-05 7.828208e-07
-1.501035e-05 -1.134788e-05 1.528368e-06
1.923994e-05 7.609011e-07 1.711485e-06
1.923994e-05 -7.609011e-07 1.711485e-06
-9.773172e-06 -1.778391e-05 -1.674640e-06
1.860792e-05 4.273588e-06 -1.659394e-06
-1.545532e-05 -1.492503e-05 -4.339804e-22
1.860792e-05 -4.273588e-06 -1.659394e-06
3.245816e-06 -1.820150e-05 1.280253e-06
1.589697e-05 -1.158134e-05 1.771280e-06
1.589697e-05 1.158134e-05 1.771280e-06
-4.051286e-06 -1.964535e-05 -1.737914e-06
1.595224e-05 -1.410121e-05 -8.064388e-07
1.041598e-05 1.553149e-05 1.453882e-06
-2.054084e-06 -1.792713e-05 -5.945081e-07
1.782198e-05 -6.827719e-06 -1.656655e-06
1.782198e-05 6.827719e-06 -1.656655e-06
-1.474419e-05 -1.562793e-05 -4.339804e-22
-1.735985e-05 1.228011e-05 -8.573724e-07
-2.093128e-05 -3.942396e-06 7.904914e-07
1.117532e-05 -1.804039e-05 9.307275e-07
1.424034e-05 -1.459816e-05 1.636222e-06
1.424034e-05 1.459816e-05 1.636222e-06
-1.425249e-05 1.582899e-05 7.891015e-07
-1.107636e-05 1.819356e-05 7.890563e-07
-2.130020e-05 0.000000e+00 7.887199e-07
1.285122e-05 1.252208e-05 7.132058e-08
1.281779e-05 -1.255700e-05 8.259941e-08
-1.400113e-05 -1.629699e-05 -4.339804e-22
-1.151296e-05 -1.542235e-05 1.708973e-06
8.863616e-06 -1.938115e-05 -7.649492e-07
6.169958e-06 -2.037528e-05 8.109208e-07
1.345188e-06 -2.130867e-05 -6.767611e-07
-1.154525e-05 1.702328e-05 1.551670e-06
-1.391725e-05 -1.228327e-05 1.347094e-06
2.028995e-06 2.015695e-05 -1.685882e-06
6.392735e-06 1.685497e-05 -5.417660e-07
-1.915741e-05 7.484636e-06 1.552454e-06
-1.963876e-05 4.168699e-06 -1.734327e-06
-1.322775e-05 -1.693075e-05 -4.339804e-22
-7.272627e-06 -1.898440e-05 -1.661267e-06
-2.014415e-05 -1.886173e-06 -1.694237e-06
-1.628386e-05 1.174508e-05 -1.734055e-06
1.206433e-05 1.470385e-05 -1.630374e-06
-1.845918e-05 8.292685e-06 -1.692980e-06
-9.339100e-06 -1.914799e-05 7.808430e-07
-1.208320e-05 1.625893e-05 -1.686384e-06
-7.020129e-06 1.742267e-05 -1.508325e-06
1.647941e-05 1.150689e-05 -1.729377e-06
1.647342e-05 -1.145716e-05 -1.736476e-06
-1.242572e-05 -1.752784e-05 -4.339804e-22
6.648001e-06 -1.774258e-05 1.597531e-06
-4.346228e-06 1.850449e-05 -1.625339e-06
1.667272e-05 8.193501e-06 -1.359483e-06
1.667272e-05 -8.193501e-06 -1.359483e-06
-5.555384e-06 -2.055657e-05 8.010579e-07
1.829534e-06 1.812068e-05 9.419044e-07
1.075208e-05 -1.713642e-05 -1.694843e-06
-1.813755e-05 -8.200638e-07 -8.448209e-07
1.785197e-05 -1.973493e-06 -2.588707e-07
1.785173e-05 1.974586e-06 -2.580867e-07
-1.159677e-05 -1.808697e-05 -4.339804e-22
-1.582537e-05 8.503438e-06 2.879949e-07
1.410558e-05 1.153077e-05 9.514575e-07
1.410558e-05 -1.153077e-05 9.514575e-07
1.294174e-05 1.321578e-05 -1.288360e-06
1.738975e-05 1.037793e-05 1.688372e-06
1.738975e-05 -1.037793e-05 1.688372e-06
1.186950e-05 1.762326e-05 -8.865382e-07
-5.115741e-06 -1.788905e-05 1.383155e-06
6.269249e-06 1.826396e-05 1.725286e-06
3.074455e-06 1.777230e-05 -5.710985e-07
-1.074271e-05 -1.860693e-05 -4.339804e-22
-8.839992e-06 -1.632218e-05 -1.346872e-06
-1.700186e-05 6.322070e-06 -8.129959e-07
-6.930604e-06 1.801584e-05 1.723622e-06
1.766780e-05 4.282046e-06 8.862900e-07
1.766780e-05 -4.282046e-06 8.862900e-07
-1.812476e-05 -4.919612e-06 1.506318e-06
-1.361934e-05 1.293592e-05 1.508208e-06
-1.527384e-05 1.181022e-05 1.724653e-06
1.058053e-05 -1.849507e-05 -7.735795e-07
-6.631536e-06 -1.828232e-05 1.751828e-06
-9.865387e-06 -1.908658e-05 -4.339804e-22
-1.899552e-05 3.441377e-06 1.724049e-06
-3.552581e-06 -1.761387e-05 -3.072872e-07
5.370515e-06 2.053883e-05 -9.175254e-07
1.888109e-05 6.653928e-06 -1.745292e-06
1.888109e-05 -6.653928e-06 -1.745292e-06
1.567992e-05 -1.269831e-05 -1.710209e-06
1.407623e-05 1.361039e-05 1.766830e-06
1.407623e-05 -1.361039e-05 1.766830e-06
-1.153459e-05 1.407822e-05 -9.213248e-07
-1.872843e-05 1.482058e-06 1.510274e-06
-8.966695e-06 -1.952491e-05 -4.339804e-22
-5.395183e-06 -1.942704e-05 1.714098e-06
-2.108718e-05 -2.827369e-06 -8.358605e-07
-2.074098e-05 4.786155e-06 -8.165829e-07
-5.631761e-07 -1.825001e-05 -1.011361e-06
-4.708833e-06 -1.849866e-05 -1.657970e-06
-8.484062e-06 1.676431e-05 1.511428e-06
3.055757e-06 2.106346e-05 -8.205823e-07
7.072083e-06 -1.678766e-05 -9.477336e-07
1.946874e-05 2.618922e-06 -1.770497e-06
1.946911e-05 -2.619710e-06 -1.770515e-06
-8.048583e-06 -1.992094e-05 -4.339804e-22
-1.687772e-05 7.739483e-06 -1.351417e-06
1.921989e-06 1.870158e-05 -1.518230e-06
-1.771824e-05 1.173226e-05 8.817303e-07
-6.158107e-06 2.033879e-05 8.814605e-07
-2.057500e-05 5.316773e-06 8.810520e-07
3.245428e-06 -1.979416e-05 -1.737970e-06
3.176903e-06 1.995386e-05 1.702294e-06
3.831751e-06 -2.090777e-05 8.720130e-07
-1.274197e-05 -1.266659e-05 2.961976e-07
-2.198799e-06 -2.021451e-05 1.659779e-06
-7.113039e-06 -2.027383e-05 -4.339804e-22
1.297218e-05 -1.545625e-05 1.709765e-06
1.297218e-05 1.545625e-05 1.709765e-06
-1.095765e-05 1.500637e-05 -1.362806e-06
-1.424224e-05 1.417200e-05 -1.730983e-06
-1.688042e-05 1.085840e-05 -1.735390e-06
-1.189438e-05 -1.469427e-05 -1.576597e-06
-1.228866e-05 -1.733844e-05 -8.796545e-07
1.573444e-05 1.430113e-05 8.603597e-07
1.573444e-05 -1.430113e-05 8.603597e-07
-5.872754e-06 2.042547e-05 -8.773261e-07
-6.162090e-06 -2.058281e-05 -4.339804e-22
-1.688646e-05 6.891400e-06 9.816993e-07
6.294845e-06 1.717950e-05 1.063613e-06
-5.676592e-06 1.707405e-05 -4.231182e-07
-1.921550e-05 -9.065584e-06 8.883397e-07
1.241852e-05 -1.730454e-05 7.902222e-07
1.713611e-05 5.319755e-06 -6.369276e-08
1.713611e-05 -5.319755e-06 -6.369276e-08
-2.848044e-06 -2.011123e-05 -1.667781e-06
3.718855e-06 2.092937e-05 8.698864e-07
-1.553024e-05 1.336095e-05 -1.594307e-06
-5.197795e-06 -2.084722e-05 -4.339804e-22
-1.217420e-05 1.745825e-05 -8.208155e-07
-2.033516e-05 2.519846e-06 -1.592348e-06
1.123674e-05 1.701942e-05 -1.635900e-06
1.710242e-05 -1.060380e-05 -1.723916e-06
1.710242e-05 1.060380e-05 -1.723916e-06
1.053174e-05 1.562897e-05 -1.545088e-06
1.169993e-05 -1.362102e-05 2.251393e-07
1.829472e-05 9.592211e-06 -1.499876e-06
1.829114e-05 -9.598398e-06 -1.500062e-06
-1.295876e-05 -1.354259e-05 -1.482933e-06
-4.222243e-06 -2.106647e-05 -4.339804e-22
1.317743e-05 -1.340585e-05 1.516924e-06
1.317778e-05 1.340563e-05 1.516977e-06
2.792635e-06 -2.049980e-05 -1.479103e-06
1.781787e-05 1.171900e-05 -7.338508e-07
1.781787e-05 -1.171900e-05 -7.338508e-07
2.029677e-05 -6.521826e-06 -7.500449e-07
2.029677e-05 6.521826e-06 -7.500449e-07
-1.848780e-05 -1.977416e-06 -1.372723e-06
-4.675943e-06 1.733202e-05 1.878215e-07
-4.029726e-07 -1.919653e-05 -1.696030e-06
-3.237547e-06 -2.124010e-05 -4.339804e-22
4.371294e-06 -2.083441e-05 -8.127122e-07
1.457081e-05 1.083660e-05 -8.497398e-07
1.457081e-05 -1.083660e-05 -8.497398e-07
-9.004558e-07 2.128080e-05 7.894493e-07
1.534660e-05 1.298929e-05 -1.727919e-06
-2.736954e-06 1.931917e-05 1.760365e-06
8.820503e-06 1.711849e-05 -1.712108e-06
8.641210e-06 1.941828e-05 -8.752219e-07
-1.731403e-05 -6.093296e-06 1.137376e-06
-6.474464e-07 -1.924325e-05 1.711259e-06
-2.245839e-06 -2.136773e-05 -4.339804e-22
-6.299238e-06 -2.032011e-05 -8.391908e-07
-1.527497e-05 -9.455390e-06 2.842844e-07
-1.758540e-05 -1.038529e-05 -1.623619e-06
6.926127e-06 2.014937e-05 -7.758583e-07
-1.016958e-05 1.505448e-05 -8.655204e-07
9.303930e-06 1.817347e-05 1.626412e-06
2.127159e-05 8.493633e-07 -8.117591e-07
2.127159e-05 -8.493633e-07 -8.117591e-07
1.832053e-05 5.181147e-06 -1.638455e-06
1.832053e-05 -5.181147e-06 -1.638455e-06
-1.249266e-06 -2.144908e-05 -4.339804e-22
[...]
POINT_DATA 2077
VECTORS 10.000GHz_fone_imag double
-1.514425e+10 3.037502e+10 3.071883e+08
-5.125986e+09 2.921137e+10 -5.073755e+08
3.262430e+10 4.107822e+10 -4.691730e+07
3.423222e+10 1.548595e+10 -1.747369e+09
-7.058650e+09 2.680241e+10 2.849685e+08
2.897032e+10 3.049354e+10 -3.532219e+09
-2.739578e+10 -2.681314e+10 -2.165455e+09
9.560228e+09 4.693472e+10 -1.791517e+09
3.071501e+10 -2.111699e+10 -6.054308e+08
1.185387e+09 3.967157e+10 2.046544e+09
-2.153107e+10 1.856699e+09 -6.684813e+08
-1.368027e+10 2.006444e+10 3.312972e+08
-1.184284e+10 -3.027704e+10 -3.909833e+08
8.335423e+09 -2.120323e+10 5.551116e+08
1.701855e+10 1.712760e+10 1.860266e+09
4.641018e+09 -2.833450e+10 -1.670835e+08
-4.858008e+09 -3.637886e+10 -5.839885e+08
1.881209e+10 1.046299e+10 -1.838293e+09
1.325158e+10 -2.397331e+10 -5.404472e+08
-1.228396e+10 -2.367584e+10 2.948156e+09
1.132976e+09 2.223605e+10 -9.195124e+08
-1.850906e+10 2.576604e+10 1.077627e+08
-1.402280e+10 2.256557e+10 6.858361e+08
-1.742068e+10 1.642443e+10 -1.439844e+09
-3.975144e+10 -6.409636e+09 3.522806e+08
-3.326408e+10 1.433247e+09 -1.025199e+09
2.789721e+10 -1.504568e+10 -7.060836e+08
3.686214e+10 4.465001e+09 1.531655e+09
3.288415e+10 4.800264e+09 -3.251995e+08
3.335291e+10 -1.403304e+10 2.734527e+08
-5.284288e+10 2.110492e+10 -8.411055e+08
2.997027e+09 -2.506100e+10 -3.230796e+08
-4.837768e+09 -2.533796e+10 6.077379e+08
-1.583002e+10 2.330584e+10 -1.562091e+09
2.102935e+10 -1.970390e+10 3.473374e+08
-1.252562e+10 -3.584144e+10 -6.481438e+08
1.227401e+10 -3.574041e+10 2.510249e+08
-1.138041e+10 2.441426e+10 3.241848e+09
3.090049e+10 -2.351419e+09 -1.325202e+09
1.254416e+10 -3.681366e+10 4.252673e+08
-1.160243e+10 -3.606107e+10 5.040853e+04
-2.196883e+10 1.093159e+10 2.013777e+09
-7.482771e+09 -5.346099e+10 -1.079732e+09
7.538306e+09 -5.051911e+10 1.292640e+09
-1.755253e+10 2.157492e+10 1.248895e+09
3.421353e+10 -1.246409e+10 -1.598222e+09
2.337360e+09 2.919848e+10 -8.858917e+07
-2.174396e+10 3.480640e+10 -1.160767e+09
9.767368e+09 2.664344e+10 3.342141e+09
1.929152e+10 3.319486e+10 -5.880213e+08
2.486129e+10 5.970240e+09 -8.723641e+08
1.015439e+10 2.565472e+10 -4.069218e+09
1.684587e+10 2.624099e+10 -1.421186e+09
2.253632e+10 2.271559e+10 -5.976433e+08
-2.287517e+10 8.609696e+09 -9.648705e+08
-1.704289e+10 1.851589e+10 5.910443e+07
2.984557e+10 -2.578569e+10 -2.145747e+09
-1.910981e+10 2.778361e+10 -1.869786e+08
-1.243914e+10 3.091570e+10 -2.956061e+08
3.004390e+10 -1.786785e+09 1.346381e+09
-2.955481e+10 -1.340902e+10 6.200468e+08
-2.949756e+10 3.814008e+10 3.022682e+08
1.043615e+09 -3.183447e+10 2.166828e+08
-1.603734e+09 -4.839628e+10 1.347117e+08
-2.219497e+10 1.291777e+10 1.794544e+09
9.109509e+09 -4.689803e+10 1.343418e+09
-1.439291e+10 1.570629e+10 -1.303244e+09
-9.046174e+09 -4.601832e+10 -1.597127e+09
-4.750061e+10 -1.258240e+10 2.822563e+09
-1.749107e+10 -2.892921e+10 7.503732e+08
1.559777e+10 -2.596161e+10 -2.076362e+09
-3.176914e+10 2.135629e+09 1.946211e+09
-1.349645e+10 -1.656067e+10 1.878744e+08
2.821814e+10 -1.659992e+10 -3.386900e+09
-5.422535e+10 6.933979e+09 3.111762e+09
-1.419866e+10 -3.566756e+10 9.726380e+08
1.078725e+10 -3.480421e+10 -3.161234e+09
-1.859614e+10 1.635004e+10 8.650217e+08
2.171476e+10 2.872853e+10 -8.694325e+08
-5.881662e+09 2.528811e+10 -3.547795e+08
-2.133578e+10 -1.588308e+10 -1.373314e+09
-2.543299e+10 -2.524150e+10 -9.663900e+08
1.687787e+10 -1.848632e+10 -3.229866e+08
1.792373e+10 1.734822e+10 -1.380658e+09
2.110652e+10 1.310589e+10 -2.887994e+09
6.984809e+08 2.104611e+10 8.713458e+08
3.498653e+10 -3.662034e+10 3.907091e+09
-3.555473e+10 -3.713448e+10 -1.376015e+09
-1.754420e+10 1.734514e+10 1.209562e+09
-3.267867e+10 1.842124e+10 1.499370e+09
-2.229967e+10 -1.139464e+10 8.048100e+07
-2.953752e+10 -8.620089e+09 1.286187e+09
-2.502387e+10 -9.809256e+08 1.149203e+09
2.871883e+10 1.782936e+10 1.188188e+09
-3.421449e+10 3.545273e+10 -1.983875e+08
3.812740e+10 -6.012336e+09 -7.048448e+08
4.001856e+10 -1.558921e+10 6.011945e+08
9.056774e+09 2.061891e+10 -1.101374e+08
3.427887e+09 3.597163e+10 4.304936e+08
-2.061505e+10 1.332291e+10 -1.518773e+09
-3.005060e+10 7.748251e+09 -1.031173e+08
-2.097013e+09 2.935137e+10 -5.926636e+08
1.567364e+10 2.792362e+10 1.377532e+09
3.221413e+10 -2.903900e+10 -4.314152e+08
1.551656e+10 3.854419e+10 2.334497e+08
-1.772325e+10 6.735062e+09 1.224231e+09
2.394876e+10 1.901473e+10 -2.584058e+07
3.526685e+10 9.578855e+09 -1.699574e+07
2.502011e+10 -3.675805e+10 -3.020652e+08
-1.927626e+10 -3.695519e+10 2.802858e+08
-1.933589e+10 1.673412e+10 4.909268e+08
-3.716946e+10 -1.006419e+10 3.065789e+09
4.281743e+10 1.036011e+10 -6.017601e+08
1.443697e+10 -3.662409e+10 -4.679394e+07
-2.131816e+10 -4.849231e+10 -5.966403e+08
-2.815945e+10 6.044779e+09 2.570018e+08
4.666667e+10 -2.249576e+09 2.259195e+09
-3.322886e+10 -2.174277e+10 -3.941351e+08
-4.822597e+09 5.752254e+10 -6.945381e+08
-5.025037e+09 -5.364747e+10 7.483057e+08
2.711852e+09 -5.163832e+10 4.931900e+09
-2.630505e+10 1.780380e+10 1.037345e+09
2.669382e+10 4.947810e+10 3.517230e+09
3.468274e+10 -4.154958e+10 -1.105814e+09
-3.529319e+10 -3.946929e+10 -1.428131e+09
2.616139e+10 -2.491690e+10 1.376128e+09
2.279037e+10 -3.733048e+10 3.452771e+08
-1.543821e+10 -2.307605e+10 -2.703453e+08
1.949091e+10 -1.462006e+10 2.791067e+09
-4.908493e+10 1.500846e+10 -1.336838e+09
3.050154e+10 -1.446611e+10 -2.388101e+09
5.775363e+10 -8.905552e+09 -6.732031e+08
-2.107851e+10 1.226240e+10 1.760393e+09
-4.636914e+10 2.524876e+10 -5.722037e+08
1.097986e+10 3.395949e+10 2.143406e+09
2.841536e+10 1.422904e+10 1.116225e+09
1.402173e+10 -4.669232e+10 4.018262e+09
-1.458109e+10 -4.718870e+10 -4.110172e+09
-1.276531e+10 4.586511e+10 -4.725057e+07
2.117992e+10 2.506437e+10 4.640873e+08
2.048640e+10 2.369802e+10 -3.734508e+08
-2.669734e+10 -1.528855e+10 -1.130463e+09
-4.403530e+10 1.550755e+10 -1.189245e+09
-2.951267e+10 1.550764e+10 1.065803e+09
3.537249e+09 2.963444e+10 5.730780e+08
-5.414599e+10 8.666384e+09 4.348190e+07
3.143431e+10 -6.835802e+09 2.919010e+08
9.825923e+09 -2.739364e+10 -2.428616e+09
-1.002357e+10 -2.880840e+10 1.811072e+09
-2.807864e+10 -3.509125e+10 5.512493e+08
2.603144e+10 -2.521281e+10 -1.445700e+09
-2.146511e+10 -2.311149e+10 -4.960201e+08
3.262114e+10 2.507820e+10 6.156309e+08
5.225061e+09 4.203221e+10 6.339125e+07
-2.184756e+10 9.924165e+09 -1.796738e+08
-2.826461e+10 9.576841e+09 -8.704017e+07
-4.553321e+09 3.080123e+10 -6.761799e+08
6.801827e+09 3.487036e+10 1.008927e+09
-4.455849e+10 4.120923e+09 2.507982e+09
-4.275138e+10 8.119229e+09 -2.206031e+09
3.332524e+10 1.684889e+10 -8.477407e+08
3.098635e+10 -5.206545e+09 -8.982592e+08
-4.984949e+10 -2.107391e+10 6.494033e+08
4.414733e+09 -3.047904e+10 -5.210128e+08
-3.691190e+09 -2.784825e+10 5.542007e+08
-2.696186e+10 1.128662e+10 -3.139901e+09
2.183250e+10 3.912731e+10 4.152054e+09
3.705547e+10 -2.919543e+09 4.834296e+08
1.438256e+10 2.111541e+10 1.814510e+09
3.004894e+10 9.390997e+09 4.427364e+08
8.211822e+09 2.340657e+10 -3.355680e+09
-3.875367e+10 -7.383358e+09 -1.422787e+08
3.647365e+10 -7.133262e+09 7.620078e+08
-3.100891e+10 -7.699734e+09 -2.354379e+09
-3.705787e+10 3.943994e+10 9.969404e+08
-3.860748e+10 5.090594e+09 3.757094e+08
-2.765537e+10 9.771987e+09 1.965571e+08
-2.528348e+10 -1.841312e+10 7.014481e+08
2.114098e+10 -1.880454e+10 -3.829764e+08
2.934542e+10 1.930685e+10 8.425183e+08
2.787859e+10 2.962799e+10 2.772859e+08
1.931492e+10 2.447211e+10 -1.010228e+09
-2.777690e+10 2.331938e+10 6.467378e+08
-1.733660e+10 1.261533e+10 3.790720e+05
2.083447e+10 -2.474561e+10 2.522988e+09
-2.161017e+10 -2.289906e+10 9.091132e+08
2.691652e+10 6.718551e+09 2.452642e+09
-2.584643e+10 7.170969e+09 5.744674e+08
1.505700e+10 3.523029e+10 8.687669e+08
4.875178e+10 -1.639163e+10 6.895147e+08
5.751763e+10 1.865266e+10 2.919056e+09
-1.119137e+10 2.504865e+10 -2.317941e+08
-2.750798e+10 -2.031199e+10 -1.139747e+08
1.342035e+10 -4.570901e+10 -3.360835e+08
-1.323803e+10 -4.504387e+10 2.314622e+08
-4.258436e+10 3.890877e+09 3.367155e+08
2.300471e+10 -5.075929e+09 -4.531982e+08
1.664166e+10 1.739677e+10 1.402768e+09
-2.636228e+10 7.650370e+09 1.659586e+09
2.554850e+10 1.657345e+10 -2.812466e+08
2.368863e+09 2.625830e+10 1.549557e+08
2.270646e+10 -1.661793e+10 2.278781e+09
-1.571979e+10 -2.685167e+10 3.957257e+08
1.829484e+10 -2.780124e+10 1.497793e+09
3.154781e+10 -1.686296e+10 1.928620e+09
-3.498949e+10 -2.955840e+10 -1.205084e+09
1.372335e+10 -2.568825e+10 -1.101644e+09
-1.613536e+10 -2.567758e+10 -1.193307e+09
-3.237033e+10 2.675218e+10 -1.105647e+09
-3.190739e+10 7.056530e+09 -2.459480e+09
-2.710066e+10 -2.688470e+10 2.371852e+09
2.917715e+10 -2.802254e+10 -8.811314e+08
-3.403283e+10 -5.486233e+09 -4.365108e+08
1.764304e+10 -2.754419e+10 -9.393108e+08
-1.816391e+10 -2.762148e+10 6.706243e+08
-1.059051e+10 -3.317793e+10 -4.666747e+08
1.044235e+10 -3.275439e+10 4.501103e+08
-4.740062e+09 4.804474e+10 -8.170499e+08
4.135765e+10 1.105562e+10 7.471531e+08
-4.492153e+10 3.377832e+09 1.894087e+09
-3.400088e+10 4.765950e+09 -2.237627e+09
-2.869199e+10 -8.014148e+09 2.033963e+09
2.345994e+10 -3.214187e+10 -6.192530e+08
-2.648630e+10 -3.266694e+10 2.997389e+09
2.941389e+10 5.941156e+08 9.510028e+08
2.229058e+10 -2.558833e+10 -2.480909e+08
4.479583e+10 7.112293e+09 -1.179495e+09
3.087728e+10 -1.807531e+10 1.288922e+09
2.765205e+10 -1.137533e+10 1.475353e+09
-1.975727e+10 4.798336e+10 6.532215e+08
-4.673054e+10 7.327883e+08 2.283723e+08
-2.680784e+10 2.352970e+09 8.281434e+08
-3.083029e+10 9.221433e+09 1.676465e+09
-2.874062e+10 4.670011e+10 1.392958e+09
-1.381401e+10 2.541277e+10 -1.618637e+09
1.971312e+10 -5.777029e+09 -4.327484e+08
4.241887e+10 3.164123e+10 -3.867207e+09
3.498874e+10 -1.726666e+10 -9.860297e+08
-1.094988e+09 -2.777275e+10 -5.466709e+08
-5.942137e+08 -2.536680e+10 1.616578e+09
1.637105e+10 -4.351774e+10 -7.433835e+08
-1.656060e+10 -4.382061e+10 7.476908e+08
-3.155372e+10 2.317264e+09 -4.273594e+08
-3.737874e+10 -1.951482e+10 3.331296e+09
-1.758507e+10 -3.870826e+10 -1.974690e+08
1.770749e+10 -4.123722e+10 -8.991866e+07
1.414712e+10 -3.185390e+10 -1.276107e+09
-1.306247e+10 -3.053483e+10 1.891452e+09
3.715555e+10 -4.400112e+10 -2.971300e+09
-3.481746e+10 -4.027168e+10 3.075464e+09
-2.512745e+10 2.238845e+10 -1.500322e+09
6.966962e+09 3.560930e+10 -3.341171e+09
-1.961175e+10 1.179112e+10 -2.546165e+08
-2.368171e+10 -2.383748e+09 -6.653367e+08
-2.204645e+10 -1.345000e+08 -1.291265e+09
4.380531e+10 -1.869766e+10 1.513348e+09
2.739457e+10 -2.219954e+10 -3.539714e+08
-3.799102e+09 3.863763e+10 1.523857e+09
4.254622e+10 -2.800794e+10 -9.540679e+08
-2.344078e+10 3.281883e+10 1.634142e+09
-2.260926e+10 5.017097e+09 -1.727482e+09
3.397165e+10 -7.612622e+09 1.671728e+09
-7.909403e+09 -2.841440e+10 -3.611893e+08
7.740316e+09 -2.822903e+10 2.506463e+08
-2.300812e+10 2.347097e+09 -2.073408e+09
1.485283e+09 -4.489986e+10 9.320301e+08
-2.365944e+09 -3.732555e+10 -8.104276e+07
-2.167961e+10 -2.493556e+10 4.719940e+08
-2.307240e+10 1.175998e+10 -2.934289e+09
9.140073e+09 3.828071e+10 -3.373123e+09
2.531854e+10 3.778696e+10 -4.561511e+08
2.369560e+10 1.029316e+09 -5.547699e+08
3.145296e+10 -2.029278e+10 8.287285e+08
-2.227693e+10 2.902407e+10 2.272250e+09
2.625048e+10 5.499068e+09 9.617536e+06
-2.779126e+10 -1.821028e+09 -1.699975e+08
-3.823889e+10 1.484145e+10 -8.992853e+08
2.505284e+10 1.559552e+10 1.514255e+08
-1.732794e+10 -5.010460e+10 -1.973891e+08
1.658276e+10 -4.965177e+10 -1.125371e+08
1.771106e+09 -2.504285e+10 -1.717638e+09
-2.636046e+09 -2.546187e+10 -2.836624e+08
-2.045279e+10 -1.364665e+10 1.393168e+09
2.200715e+10 -1.927861e+10 -1.514622e+09
-4.267268e+10 2.745602e+10 -1.178548e+09
1.954305e+10 3.892664e+10 9.430882e+08
-2.472771e+10 -2.992589e+09 7.557105e+08
3.191097e+10 2.536832e+10 -1.410555e+08
-3.287404e+10 3.085345e+09 -1.320941e+09
7.783637e+08 -5.272992e+10 -6.771504e+08
-1.347351e+08 -5.341540e+10 2.846108e+09
-2.344267e+10 7.493610e+09 1.257623e+09
3.702079e+10 3.034588e+09 7.685746e+08
-1.077167e+10 -4.291924e+10 -9.381792e+08
1.103999e+10 -4.257479e+10 -9.085611e+07
-8.868759e+09 4.256744e+10 -2.956193e+08
2.654731e+10 6.266136e+09 -3.434075e+08
-3.205274e+10 -6.207282e+09 2.545820e+09
-2.827993e+10 1.354563e+10 -9.354610e+08
4.769711e+10 1.518506e+10 1.316025e+09
4.161935e+10 2.247185e+10 1.171996e+09
-5.810364e+10 -1.183298e+10 -1.315234e+09
-2.221054e+10 -1.906898e+10 -2.267845e+08
2.058759e+09 2.550326e+10 3.847892e+08
3.584369e+10 -6.581710e+09 -5.472519e+07
-1.762379e+10 -5.277548e+10 1.143869e+09
1.300142e+10 -3.513582e+10 1.002928e+09
1.471181e+10 -1.904683e+10 -3.508553e+09
-2.592112e+10 -6.086522e+09 -5.940827e+08
2.869645e+10 -1.579561e+10 2.324804e+08
2.921169e+10 -2.319108e+09 -1.329812e+08
-1.319848e+10 2.214038e+10 9.278701e+08
-2.398490e+10 2.724222e+10 -2.599190e+08
3.677650e+10 -9.092259e+09 1.941873e+09
-2.316913e+10 -1.268613e+10 2.747779e+09
-2.770885e+10 1.913255e+09 -1.417056e+09
-2.355627e+10 3.996177e+10 -4.885113e+08
-2.090228e+10 3.156575e+10 -2.336657e+09
2.776821e+10 4.023699e+10 -8.321090e+08
-2.523947e+10 -6.694881e+09 -4.816359e+08
2.185150e+10 2.184946e+10 -2.157607e+09
4.900007e+10 -3.023465e+10 -1.013011e+08
2.023248e+10 3.506005e+10 1.004876e+09
7.187975e+09 -2.420449e+10 2.610207e+08
-7.217262e+09 -2.427315e+10 -2.107537e+08
5.879106e+09 -2.781978e+10 1.358001e+08
-5.948225e+09 -2.781220e+10 -1.157534e+07
2.360717e+10 -1.159023e+09 1.208802e+09
1.300348e+10 -2.372753e+10 -6.286856e+08
-1.627130e+10 -2.792574e+10 4.325718e+08
-3.006621e+10 -1.023658e+10 2.099106e+09
-4.146158e+10 -1.600920e+10 4.634455e+09
2.825070e+10 -5.141830e+10 1.663682e+09
-2.165727e+10 -4.409119e+10 2.140062e+09
1.011387e+08 2.575105e+10 -7.630932e+08
-6.711775e+09 5.285140e+10 -2.581850e+07
-1.924524e+10 5.236353e+10 -1.195419e+09
-2.868364e+10 2.485250e+10 -4.682962e+09
1.059780e+10 2.802643e+10 -9.643976e+08
-3.564907e+10 -9.995696e+09 2.078547e+09
-2.096115e+10 2.226046e+10 -6.894640e+08
-2.882127e+10 -1.029185e+10 2.305103e+09
-3.221221e+10 6.969022e+09 -1.888646e+09
-1.610467e+10 3.500826e+10 3.743195e+08
1.801817e+10 1.783545e+10 3.370844e+09
2.030330e+10 -3.384571e+10 -3.607509e+08
-2.915203e+10 -4.424943e+10 1.795324e+09
1.311577e+10 2.151539e+10 -5.992068e+08
-3.807934e+10 3.682694e+10 3.075431e+09
-2.059805e+10 -3.892653e+10 -1.861999e+08
1.501163e+10 -3.032762e+10 2.832373e+09
-1.495914e+10 -5.322932e+10 3.024855e+09
-2.408407e+10 -1.090218e+10 -2.253122e+09
1.490678e+10 -5.357478e+10 -3.407290e+09
-3.912995e+10 -3.685932e+10 4.969484e+09
-3.219062e+10 -8.521445e+09 1.247083e+09
-3.234519e+10 -3.003162e+10 8.323507e+08
2.337008e+10 -6.362942e+09 -1.768190e+09
-2.368486e+10 2.371659e+10 -5.650686e+08
-9.822967e+08 -2.909557e+10 3.659226e+08
1.365829e+09 -2.918851e+10 2.578674e+09
-5.456649e+09 2.375091e+10 -2.361700e+08
-6.585704e+08 4.186571e+10 -6.400462e+08
-1.767894e+10 -1.109162e+10 1.223065e+09
3.831362e+10 -2.281506e+10 5.032363e+08
5.317537e+10 -1.538086e+10 -9.626782e+08
-2.293956e+10 1.435504e+10 -2.623324e+08
1.473613e+10 -3.004559e+10 -4.063691e+08
-2.276516e+10 -4.307075e+10 -1.761702e+09
-4.283279e+10 -2.089208e+10 -1.747356e+09
-2.832508e+10 5.556376e+09 -6.050721e+08
2.700292e+10 6.775296e+09 -1.693026e+09
9.742361e+09 1.820844e+10 2.910520e+08
3.100698e+10 -1.773930e+10 1.455844e+08
-2.173432e+10 -1.036627e+10 -8.398169e+07
-1.060420e+10 -2.823780e+10 -2.493078e+09
1.056497e+10 -2.826707e+10 2.514690e+09
9.936695e+09 2.664604e+10 1.711688e+09
3.681759e+10 -6.799405e+09 1.039244e+09
2.811152e+10 1.382688e+10 -9.037226e+06
2.851079e+10 1.140510e+10 -2.509496e+09
-2.642718e+10 9.974243e+09 -2.694451e+09
-1.257577e+10 3.839631e+10 -1.739662e+09
-2.618909e+10 2.118059e+09 1.606294e+09
-4.501855e+10 -2.719816e+10 -3.427132e+09
-2.585074e+10 -1.579198e+10 -4.760056e+08
2.996488e+10 -1.567585e+10 1.330494e+09
-2.875806e+10 1.696166e+10 -3.845044e+09
3.222805e+10 -1.244262e+10 -4.740575e+08
-1.304758e+10 2.233779e+10 1.556178e+09
2.494919e+10 -2.119465e+10 -3.149170e+08
-3.321474e+10 -5.255530e+09 -2.138890e+09
-3.772729e+10 7.930712e+09 -1.344819e+08
-4.397705e+10 -1.015200e+10 -2.426846e+09
1.597449e+10 4.469082e+10 -9.406466e+08
-3.008349e+10 -1.591014e+10 -5.706681e+08
-1.684465e+10 -1.158837e+10 -1.062643e+08
-1.575773e+09 5.247004e+10 4.237597e+08
5.350413e+09 -2.693351e+10 5.759069e+08
-5.694641e+09 -2.661335e+10 -1.063437e+08
-5.224206e+10 1.629011e+10 7.380557e+08
-2.803534e+10 -2.276414e+10 1.740691e+09
3.373534e+10 -2.166392e+10 3.077473e+09
3.656795e+10 -5.211258e+09 -3.916490e+08
1.709046e+10 -2.113960e+10 -2.010594e+09
-2.105210e+10 -2.544739e+10 7.832749e+07
4.491324e+10 -2.748972e+10 2.731931e+08
-1.952491e+10 -1.411868e+10 -1.025602e+08
-3.142618e+10 6.678937e+07 9.954961e+08
2.970619e+10 8.007693e+09 1.029889e+09
5.633119e+10 1.525153e+10 1.280953e+09
6.799739e+09 3.865044e+10 3.167549e+09
-1.601496e+10 3.818931e+10 7.134541e+07
-1.778838e+10 5.043625e+10 1.316200e+09
-3.758535e+10 -4.261467e+08 -1.087710e+08
2.229324e+10 3.380766e+10 -1.756447e+08
-2.614136e+10 -1.359255e+10 1.889257e+09
2.387110e+10 3.085969e+10 -8.452685e+08
-1.950856e+10 -1.616588e+10 1.727336e+09
-2.524825e+10 -1.042093e+09 1.476644e+09
2.266229e+10 -1.530536e+10 -1.191864e+09
-3.551135e+09 2.679091e+10 3.021301e+07
-3.087768e+10 -2.851836e+10 -1.241176e+09
5.244365e+09 2.985538e+10 -3.630439e+09
4.249373e+10 1.166512e+10 4.499715e+09
-2.090927e+10 2.345261e+10 -1.881469e+09
-3.450528e+10 -7.305200e+09 1.780568e+09
-3.650591e+10 3.701882e+09 4.540723e+08
-2.275491e+09 -4.961727e+10 -2.783851e+09
-2.531156e+10 -2.168638e+10 2.219536e+07
2.522800e+09 -4.105732e+10 -1.081859e+09
3.330754e+10 -1.899259e+10 2.714060e+08
-2.545277e+10 -1.063849e+10 -2.628192e+09
2.877828e+10 2.224787e+10 -5.282234e+08
2.014984e+10 -3.349097e+10 7.301326e+08
-2.586648e+10 -4.488822e+10 4.055565e+09
2.437163e+10 2.297342e+10 -2.720384e+09
3.778133e+09 4.058935e+10 4.174022e+08
-3.287721e+10 -1.490185e+10 1.208536e+09
2.879102e+10 1.586328e+10 6.533437e+08
-1.737451e+10 -1.787116e+10 1.227591e+09
3.246053e+10 -3.303418e+10 -1.155666e+09
4.352455e+10 2.906962e+10 8.421483e+08
7.842264e+09 -2.324715e+10 -1.178830e+09
-7.795846e+09 -2.343473e+10 9.544584e+08
-9.258480e+09 4.613851e+10 9.777685e+08
1.661819e+10 1.727036e+10 -1.982897e+09
-4.147134e+10 9.147326e+09 -8.243211e+08
-2.190094e+10 -2.202974e+10 1.476548e+09
1.108110e+10 2.935622e+10 -2.982788e+08
4.445562e+09 2.053106e+10 1.353843e+09
-1.658749e+10 -1.818218e+10 -3.648992e+09
-1.197723e+10 2.094126e+10 3.957400e+08
3.302445e+10 2.315743e+10 -2.183723e+08
-5.370182e+10 5.106483e+09 -6.854546e+08
1.231341e+10 1.664188e+10 -1.200535e+09
-1.827139e+10 3.569692e+10 -2.699456e+09
-9.597294e+08 4.672427e+10 -4.749527e+07
-3.133382e+10 2.205614e+10 -8.063040e+08
2.158043e+10 3.600807e+09 3.092976e+09
-7.301822e+09 4.669715e+10 -4.909758e+07
2.319154e+10 2.345329e+10 9.593282e+08
-1.351118e+10 -1.613216e+10 6.899330e+08
-1.709397e+09 3.746972e+10 -1.298433e+09
-4.265198e+10 2.715840e+10 -1.757741e+09
1.091368e+10 -4.210201e+10 -2.193256e+09
-1.562710e+10 -4.337760e+10 2.602238e+08
-2.354307e+10 -2.756545e+10 -3.834147e+08
2.875650e+10 -3.164401e+10 3.236347e+09
-3.929796e+10 -1.795118e+10 -1.131066e+09
5.592432e+10 -6.184996e+09 4.650124e+08
-2.852080e+10 -6.988281e+09 -9.624250e+08
2.069442e+10 2.034157e+10 -1.975995e+09
-1.350586e+10 -1.716674e+10 1.184175e+07
-4.103149e+10 -4.364848e+09 5.773188e+08
2.434035e+10 3.604465e+10 -3.335573e+09
-2.572668e+10 -1.413684e+10 -1.497100e+09
4.162231e+10 9.997988e+09 5.920212e+08
-4.001084e+10 1.586281e+10 2.968218e+09
-4.453944e+10 -1.422567e+10 7.038921e+08
-9.361168e+09 3.733586e+10 9.866515e+08
1.811932e+10 3.680497e+10 -4.507043e+08
2.352220e+10 -2.253969e+10 2.439714e+09
-2.579795e+10 -2.249492e+10 9.176863e+08
-1.807073e+10 -2.713695e+10 1.063364e+09
-1.690594e+09 4.204063e+10 -1.092624e+09
-5.579098e+10 -1.959676e+09 1.869691e+09
6.022535e+09 3.373478e+10 -5.155357e+08
2.362273e+10 3.031949e+10 5.128026e+08
1.014759e+10 -3.813895e+10 -1.021289e+08
-1.014906e+10 -3.807481e+10 1.032790e+08