# vtk DataFile Version 2.0
Electric current density generated by TTH
ASCII
DATASET UNSTRUCTURED_GRID
POINTS 1779 double
2.148543e-05 -5.262412e-21 -4.339804e-22
1.962791e-05 8.738911e-06 -4.339804e-22
-2.245839e-06 -2.136773e-05 -4.339804e-22
3.051310e-06 -1.994712e-05 1.709597e-06
-9.124381e-07 -1.804942e-05 6.680501e-07
1.078774e-05 1.715587e-05 1.683632e-06
-2.860364e-06 1.806712e-05 -1.057840e-06
-5.090205e-06 1.916772e-05 -1.767891e-06
7.328455e-06 1.692793e-05 -1.238219e-06
-7.243650e-06 -1.725791e-05 -1.464675e-06
2.093773e-05 3.638531e-06 -8.798691e-07
2.093773e-05 -3.638531e-06 -8.798691e-07
1.460947e-05 1.548513e-05 -8.106614e-07
-1.249266e-06 -2.144908e-05 -4.339804e-22
2.002231e-05 -7.197602e-06 -8.343077e-07
2.002231e-05 7.197602e-06 -8.343077e-07
-1.785953e-05 -9.448449e-06 1.702388e-06
4.005671e-07 1.922191e-05 -1.703479e-06
1.831614e-05 5.931268e-06 1.710835e-06
1.831614e-05 -5.931268e-06 1.710835e-06
-1.107161e-05 -1.818576e-05 8.071621e-07
1.804236e-05 -2.548179e-06 -9.554920e-07
1.804286e-05 2.546099e-06 -9.558169e-07
6.182866e-06 1.821131e-05 -1.705233e-06
-2.499887e-07 -2.148397e-05 -4.339804e-22
-2.017744e-05 9.867302e-07 -1.703336e-06
-1.644557e-05 -1.175055e-05 -1.700255e-06
-1.932173e-05 5.935671e-06 1.700045e-06
-1.733696e-05 1.038762e-05 1.700687e-06
-4.955724e-06 1.958687e-05 1.702612e-06
-1.936213e-05 5.608756e-06 -1.715182e-06
-1.789070e-05 1.149930e-05 -8.511450e-07
-1.505839e-05 1.500173e-05 -8.724420e-07
-7.158142e-06 -1.999963e-05 -8.962427e-07
1.178382e-05 1.353303e-05 9.754348e-08
7.498306e-07 -2.147234e-05 -4.339804e-22
-1.780707e-05 -8.780241e-06 -1.766279e-06
-1.810879e-05 -8.142487e-06 -1.766191e-06
-4.953643e-08 2.041024e-05 1.629127e-06
8.874420e-06 -1.936666e-05 7.828208e-07
-1.501035e-05 -1.134788e-05 1.528368e-06
1.923994e-05 7.609011e-07 1.711485e-06
1.923994e-05 -7.609011e-07 1.711485e-06
-9.773172e-06 -1.778391e-05 -1.674640e-06
1.860792e-05 4.273588e-06 -1.659394e-06
1.860792e-05 -4.273588e-06 -1.659394e-06
1.748026e-06 -2.141420e-05 -4.339804e-22
3.245816e-06 -1.820150e-05 1.280253e-06
1.589697e-05 -1.158134e-05 1.771280e-06
1.589697e-05 1.158134e-05 1.771280e-06
-4.051286e-06 -1.964535e-05 -1.737914e-06
1.595224e-05 -1.410121e-05 -8.064388e-07
1.041598e-05 1.553149e-05 1.453882e-06
-2.054084e-06 -1.792713e-05 -5.945081e-07
1.782198e-05 -6.827719e-06 -1.656655e-06
1.782198e-05 6.827719e-06 -1.656655e-06
-1.735985e-05 1.228011e-05 -8.573724e-07
2.742435e-06 -2.130968e-05 -4.339804e-22
-2.093128e-05 -3.942396e-06 7.904914e-07
1.117532e-05 -1.804039e-05 9.307275e-07
1.424034e-05 -1.459816e-05 1.636222e-06
1.424034e-05 1.459816e-05 1.636222e-06
-1.425249e-05 1.582899e-05 7.891015e-07
-1.107636e-05 1.819356e-05 7.890563e-07
-2.130020e-05 0.000000e+00 7.887199e-07
1.285122e-05 1.252208e-05 7.132058e-08
1.281779e-05 -1.255700e-05 8.259941e-08
-1.151296e-05 -1.542235e-05 1.708973e-06
3.730905e-06 -2.115902e-05 -4.339804e-22
8.863616e-06 -1.938115e-05 -7.649492e-07
6.169958e-06 -2.037528e-05 8.109208e-07
1.345188e-06 -2.130867e-05 -6.767611e-07
-1.154525e-05 1.702328e-05 1.551670e-06
-1.391725e-05 -1.228327e-05 1.347094e-06
2.028995e-06 2.015695e-05 -1.685882e-06
6.392735e-06 1.685497e-05 -5.417660e-07
-1.915741e-05 7.484636e-06 1.552454e-06
-1.963876e-05 4.168699e-06 -1.734327e-06
-7.272627e-06 -1.898440e-05 -1.661267e-06
4.711295e-06 -2.096252e-05 -4.339804e-22
-2.014415e-05 -1.886173e-06 -1.694237e-06
-1.628386e-05 1.174508e-05 -1.734055e-06
1.206433e-05 1.470385e-05 -1.630374e-06
-1.845918e-05 8.292685e-06 -1.692980e-06
-9.339100e-06 -1.914799e-05 7.808430e-07
-1.208320e-05 1.625893e-05 -1.686384e-06
-7.020129e-06 1.742267e-05 -1.508325e-06
1.647941e-05 1.150689e-05 -1.729377e-06
1.647342e-05 -1.145716e-05 -1.736476e-06
6.648001e-06 -1.774258e-05 1.597531e-06
5.681481e-06 -2.072063e-05 -4.339804e-22
-4.346228e-06 1.850449e-05 -1.625339e-06
1.667272e-05 8.193501e-06 -1.359483e-06
1.667272e-05 -8.193501e-06 -1.359483e-06
-5.555384e-06 -2.055657e-05 8.010579e-07
1.829534e-06 1.812068e-05 9.419044e-07
1.075208e-05 -1.713642e-05 -1.694843e-06
-1.813755e-05 -8.200638e-07 -8.448209e-07
1.785197e-05 -1.973493e-06 -2.588707e-07
1.785173e-05 1.974586e-06 -2.580867e-07
-1.582537e-05 8.503438e-06 2.879949e-07
6.639362e-06 -2.043386e-05 -4.339804e-22
1.410558e-05 1.153077e-05 9.514575e-07
1.410558e-05 -1.153077e-05 9.514575e-07
1.294174e-05 1.321578e-05 -1.288360e-06
1.738975e-05 1.037793e-05 1.688372e-06
1.738975e-05 -1.037793e-05 1.688372e-06
1.186950e-05 1.762326e-05 -8.865382e-07
-5.115741e-06 -1.788905e-05 1.383155e-06
6.269249e-06 1.826396e-05 1.725286e-06
3.074455e-06 1.777230e-05 -5.710985e-07
-8.839992e-06 -1.632218e-05 -1.346872e-06
1.920008e-05 9.642642e-06 -4.339804e-22
7.582864e-06 -2.010283e-05 -4.339804e-22
-1.700186e-05 6.322070e-06 -8.129959e-07
-6.930604e-06 1.801584e-05 1.723622e-06
1.766780e-05 4.282046e-06 8.862900e-07
1.766780e-05 -4.282046e-06 8.862900e-07
-1.812476e-05 -4.919612e-06 1.506318e-06
-1.361934e-05 1.293592e-05 1.508208e-06
-1.527384e-05 1.181022e-05 1.724653e-06
1.058053e-05 -1.849507e-05 -7.735795e-07
-6.631536e-06 -1.828232e-05 1.751828e-06
-1.899552e-05 3.441377e-06 1.724049e-06
8.509943e-06 -1.972827e-05 -4.339804e-22
-3.552581e-06 -1.761387e-05 -3.072872e-07
5.370515e-06 2.053883e-05 -9.175254e-07
1.888109e-05 6.653928e-06 -1.745292e-06
1.888109e-05 -6.653928e-06 -1.745292e-06
1.567992e-05 -1.269831e-05 -1.710209e-06
1.407623e-05 1.361039e-05 1.766830e-06
1.407623e-05 -1.361039e-05 1.766830e-06
-1.153459e-05 1.407822e-05 -9.213248e-07
-1.872843e-05 1.482058e-06 1.510274e-06
-5.395183e-06 -1.942704e-05 1.714098e-06
9.418591e-06 -1.931097e-05 -4.339804e-22
-2.108718e-05 -2.827369e-06 -8.358605e-07
-2.074098e-05 4.786155e-06 -8.165829e-07
-5.631761e-07 -1.825001e-05 -1.011361e-06
-4.708833e-06 -1.849866e-05 -1.657970e-06
-8.484062e-06 1.676431e-05 1.511428e-06
3.055757e-06 2.106346e-05 -8.205823e-07
7.072083e-06 -1.678766e-05 -9.477336e-07
1.946874e-05 2.618922e-06 -1.770497e-06
1.946911e-05 -2.619710e-06 -1.770515e-06
-1.687772e-05 7.739483e-06 -1.351417e-06
1.030684e-05 -1.885186e-05 -4.339804e-22
1.921989e-06 1.870158e-05 -1.518230e-06
-1.771824e-05 1.173226e-05 8.817303e-07
-6.158107e-06 2.033879e-05 8.814605e-07
-2.057500e-05 5.316773e-06 8.810520e-07
3.245428e-06 -1.979416e-05 -1.737970e-06
3.176903e-06 1.995386e-05 1.702294e-06
3.831751e-06 -2.090777e-05 8.720130e-07
-1.274197e-05 -1.266659e-05 2.961976e-07
-2.198799e-06 -2.021451e-05 1.659779e-06
1.297218e-05 -1.545625e-05 1.709765e-06
1.117277e-05 -1.835192e-05 -4.339804e-22
1.297218e-05 1.545625e-05 1.709765e-06
-1.095765e-05 1.500637e-05 -1.362806e-06
-1.424224e-05 1.417200e-05 -1.730983e-06
-1.688042e-05 1.085840e-05 -1.735390e-06
-1.189438e-05 -1.469427e-05 -1.576597e-06
-1.228866e-05 -1.733844e-05 -8.796545e-07
1.573444e-05 1.430113e-05 8.603597e-07
1.573444e-05 -1.430113e-05 8.603597e-07
-5.872754e-06 2.042547e-05 -8.773261e-07
-1.688646e-05 6.891400e-06 9.816993e-07
1.201450e-05 -1.781223e-05 -4.339804e-22
6.294845e-06 1.717950e-05 1.063613e-06
-5.676592e-06 1.707405e-05 -4.231182e-07
-1.921550e-05 -9.065584e-06 8.883397e-07
1.241852e-05 -1.730454e-05 7.902222e-07
1.713611e-05 5.319755e-06 -6.369276e-08
1.713611e-05 -5.319755e-06 -6.369276e-08
-2.848044e-06 -2.011123e-05 -1.667781e-06
3.718855e-06 2.092937e-05 8.698864e-07
-1.553024e-05 1.336095e-05 -1.594307e-06
-1.217420e-05 1.745825e-05 -8.208155e-07
1.283021e-05 -1.723396e-05 -4.339804e-22
-2.033516e-05 2.519846e-06 -1.592348e-06
1.123674e-05 1.701942e-05 -1.635900e-06
1.710242e-05 -1.060380e-05 -1.723916e-06
1.710242e-05 1.060380e-05 -1.723916e-06
1.053174e-05 1.562897e-05 -1.545088e-06
1.169993e-05 -1.362102e-05 2.251393e-07
1.829472e-05 9.592211e-06 -1.499876e-06
1.829114e-05 -9.598398e-06 -1.500062e-06
-1.295876e-05 -1.354259e-05 -1.482933e-06
1.317743e-05 -1.340585e-05 1.516924e-06
1.361813e-05 -1.661837e-05 -4.339804e-22
1.317778e-05 1.340563e-05 1.516977e-06
2.792635e-06 -2.049980e-05 -1.479103e-06
1.781787e-05 1.171900e-05 -7.338508e-07
1.781787e-05 -1.171900e-05 -7.338508e-07
2.029677e-05 -6.521826e-06 -7.500449e-07
2.029677e-05 6.521826e-06 -7.500449e-07
-1.848780e-05 -1.977416e-06 -1.372723e-06
-4.675943e-06 1.733202e-05 1.878215e-07
-4.029726e-07 -1.919653e-05 -1.696030e-06
4.371294e-06 -2.083441e-05 -8.127122e-07
1.437656e-05 -1.596678e-05 -4.339804e-22
1.457081e-05 1.083660e-05 -8.497398e-07
1.457081e-05 -1.083660e-05 -8.497398e-07
-9.004558e-07 2.128080e-05 7.894493e-07
1.534660e-05 1.298929e-05 -1.727919e-06
-2.736954e-06 1.931917e-05 1.760365e-06
8.820503e-06 1.711849e-05 -1.712108e-06
8.641210e-06 1.941828e-05 -8.752219e-07
-1.731403e-05 -6.093296e-06 1.137376e-06
-6.474464e-07 -1.924325e-05 1.711259e-06
-6.299238e-06 -2.032011e-05 -8.391908e-07
1.510385e-05 -1.528062e-05 -4.339804e-22
-1.527497e-05 -9.455390e-06 2.842844e-07
-1.758540e-05 -1.038529e-05 -1.623619e-06
6.926127e-06 2.014937e-05 -7.758583e-07
-1.016958e-05 1.505448e-05 -8.655204e-07
9.303930e-06 1.817347e-05 1.626412e-06
2.127159e-05 8.493633e-07 -8.117591e-07
2.127159e-05 -8.493633e-07 -8.117591e-07
1.832053e-05 5.181147e-06 -1.638455e-06
1.832053e-05 -5.181147e-06 -1.638455e-06
8.200611e-06 -1.600875e-05 -3.978229e-07
1.873066e-05 1.052549e-05 -4.339804e-22
1.579843e-05 -1.456136e-05 -4.339804e-22
1.823649e-05 -8.377606e-06 -1.735900e-06
1.823649e-05 8.377606e-06 -1.735900e-06
1.939660e-05 8.726264e-06 -8.483648e-07
1.939660e-05 -8.726264e-06 -8.483648e-07
1.381431e-05 1.148512e-05 -2.866832e-07
1.381431e-05 -1.148512e-05 -2.866832e-07
-1.210198e-05 -1.379477e-05 1.132460e-06
-1.791598e-05 4.738710e-06 -1.320438e-06
-1.086413e-05 -1.832156e-05 -7.882287e-07
7.973104e-07 -2.125144e-05 8.533527e-07
1.645879e-05 -1.381057e-05 -4.339804e-22
7.762374e-06 1.654375e-05 1.033444e-06
1.265132e-05 1.628401e-05 -1.521869e-06
-1.837846e-05 -3.673043e-06 -1.481676e-06
9.476763e-06 1.651541e-05 1.639337e-06
-1.472116e-05 -1.174193e-05 -1.536092e-06
-3.603764e-06 -2.098561e-05 8.034542e-07
4.172788e-06 1.793740e-05 -1.206954e-06
[...]
POINT_DATA 1779
VECTORS 10.000GHz_fone_imag double
3.101621e-04 -5.807463e-04 1.922430e-02
-1.635791e-04 -5.642264e-04 1.732638e-02
4.306894e-04 4.124373e-04 1.987926e-02
-3.546791e-03 2.395711e-02 6.803586e-03
1.384771e-04 1.370738e-02 -2.937175e-02
-1.163407e-02 -2.021527e-02 6.199099e-03
-2.021160e-03 2.004219e-02 -2.633278e-02
-4.932538e-03 2.511095e-02 7.161226e-04
8.377036e-03 1.823330e-02 -2.340614e-02
-1.069080e-02 -2.553754e-02 -1.938599e-02
1.059359e-02 1.821585e-03 1.764909e-02
1.071107e-02 -1.952288e-03 1.785590e-02
7.319302e-03 7.421814e-03 1.769759e-02
1.115281e-04 6.973185e-04 1.995816e-02
9.543591e-03 -3.719471e-03 1.869926e-02
9.666832e-03 3.690735e-03 1.876778e-02
2.022678e-02 1.079647e-02 4.384279e-03
1.468227e-03 2.553568e-02 -8.871645e-03
-2.613326e-02 -8.104014e-03 -6.853408e-03
-2.596785e-02 8.359607e-03 -6.728528e-03
5.092161e-03 8.510442e-03 1.717247e-02
1.836057e-02 -2.420758e-03 -3.182946e-02
1.822156e-02 2.308072e-03 -3.147287e-02
9.567236e-03 2.630587e-02 -8.383006e-03
-5.040088e-04 6.556627e-04 1.964336e-02
-2.184245e-02 1.622497e-03 6.282521e-03
-2.063165e-02 -1.436905e-02 5.416237e-03
2.255684e-02 -7.753200e-03 6.507196e-03
2.147271e-02 -1.234541e-02 6.768436e-03
5.042428e-03 -2.208247e-02 5.244459e-03
-2.193474e-02 7.465390e-03 6.879858e-03
-8.848137e-03 5.466581e-03 1.840471e-02
-6.604132e-03 7.309803e-03 1.839239e-02
-4.352233e-03 -1.114375e-02 1.645736e-02
-5.090562e-04 3.290199e-04 -3.464263e-02
-4.436031e-04 9.424599e-05 1.929473e-02
-2.246229e-02 -1.253260e-02 4.038402e-04
-2.327293e-02 -9.521548e-03 5.497481e-04
-8.363797e-04 -2.246419e-02 8.574815e-03
-4.089280e-03 8.243497e-03 1.851781e-02
2.112841e-02 1.599100e-02 -1.806735e-02
-2.475637e-02 -1.459009e-03 -9.146464e-03
-2.907718e-02 1.386411e-03 -9.861776e-03
-1.134986e-02 -1.915949e-02 4.840175e-03
2.819123e-02 5.563272e-03 -1.188531e-02
2.819467e-02 -5.371228e-03 -1.175096e-02
5.793244e-05 2.804639e-05 1.931978e-02
-5.721438e-03 2.165946e-02 -2.434832e-02
-2.287342e-02 1.442537e-02 -2.144359e-03
-2.096709e-02 -1.366641e-02 -2.817114e-03
-3.920728e-03 -2.410291e-02 2.169932e-03
6.914096e-03 -5.062777e-03 1.719298e-02
-1.309822e-02 -1.968952e-02 -1.814392e-02
-2.017125e-03 -1.126713e-02 -3.558952e-02
2.531456e-02 -1.022594e-02 -1.216479e-02
2.616764e-02 9.274471e-03 -1.204647e-02
-8.634739e-03 6.261385e-03 1.876945e-02
-5.675566e-04 -3.267383e-04 1.933065e-02
9.718703e-03 1.983960e-03 1.792278e-02
-7.144989e-03 1.067548e-02 1.622335e-02
-1.569320e-02 1.699087e-02 8.187361e-03
-1.429667e-02 -1.424218e-02 7.259689e-03
6.790203e-03 -6.261023e-03 1.800381e-02
5.360594e-03 -6.788807e-03 1.742644e-02
9.531441e-03 -9.858283e-05 1.637308e-02
-8.576388e-05 -5.691895e-04 -3.709831e-02
-9.370672e-04 5.722314e-04 -3.732870e-02
1.598901e-02 2.278151e-02 -1.051945e-02
3.691669e-04 -2.338413e-04 2.017868e-02
3.497554e-03 -6.846835e-03 1.782469e-02
-2.518154e-03 9.518666e-03 1.838115e-02
8.712026e-04 -6.935787e-03 1.694816e-02
1.160781e-02 -1.769659e-02 1.032072e-02
1.808895e-02 1.667704e-02 -2.202937e-02
2.679639e-03 2.404774e-02 7.038369e-03
4.488019e-03 1.123195e-02 -3.162887e-02
1.787091e-02 -7.944356e-03 9.711839e-03
-2.480065e-02 4.810042e-03 3.191658e-03
-7.149330e-03 -2.158956e-02 7.292535e-03
-3.743346e-04 1.680148e-04 1.876009e-02
-2.195506e-02 -1.914311e-03 4.759178e-03
-2.039904e-02 1.347518e-02 3.094843e-03
1.838268e-02 2.104269e-02 -1.405709e-02
-2.174238e-02 9.632962e-03 7.323496e-03
4.030809e-03 8.720332e-03 1.559524e-02
-1.504087e-02 1.872278e-02 6.074381e-03
-8.080330e-03 2.417732e-02 -1.896289e-02
2.113207e-02 1.484705e-02 5.123630e-03
2.206310e-02 -1.413637e-02 4.368937e-03
-9.322162e-03 2.541633e-02 -1.478125e-02
-3.214137e-04 -5.316655e-04 1.938764e-02
-6.924911e-03 2.716735e-02 -1.307721e-02
2.241223e-02 9.549860e-03 -2.013471e-02
2.382326e-02 -9.389404e-03 -2.206503e-02
2.458401e-03 9.454530e-03 1.796897e-02
-1.217942e-03 -1.803983e-02 -2.950143e-02
1.338861e-02 -2.019611e-02 6.713822e-03
-1.550779e-02 -8.477595e-04 -3.307496e-02
3.412880e-03 -1.551492e-04 -3.670147e-02
3.439749e-03 -4.761755e-04 -3.665332e-02
5.093131e-03 -2.412105e-03 -3.773427e-02
6.718863e-04 -2.120131e-04 2.053791e-02
-1.445738e-02 -1.183797e-02 -3.139661e-02
-1.415440e-02 1.254528e-02 -3.042170e-02
1.379706e-02 1.388321e-02 -2.415880e-02
-2.186930e-02 -1.265723e-02 5.703988e-03
-1.883390e-02 1.231776e-02 5.805198e-03
6.095829e-03 9.254370e-03 1.703894e-02
7.334071e-03 2.439164e-02 -2.239120e-02
-1.023743e-02 -2.441033e-02 -6.988491e-03
2.292054e-03 1.234225e-02 -3.566820e-02
-1.196830e-02 -2.266191e-02 -2.260546e-02
-7.567242e-05 4.162307e-04 1.800455e-02
-2.693919e-05 8.333122e-04 2.035160e-02
-1.237996e-02 5.426331e-03 -3.104635e-02
1.046847e-02 -2.584240e-02 -8.279841e-03
-1.794632e-02 -5.736854e-03 -2.975109e-02
-1.780312e-02 5.666484e-03 -2.993151e-02
2.691390e-02 6.935491e-03 -1.776299e-02
1.888850e-02 -1.674047e-02 -1.701867e-02
2.028344e-02 -1.660056e-02 -5.976886e-03
5.014866e-03 -8.731819e-03 1.848802e-02
9.147959e-03 2.757771e-02 -5.049917e-03
2.587566e-02 -3.218895e-03 -7.310408e-03
-8.863187e-04 -4.974115e-04 1.892506e-02
-1.086531e-03 -5.872173e-03 -3.731343e-02
2.407036e-03 1.038783e-02 1.793706e-02
2.211811e-02 7.171008e-03 2.483480e-03
2.225945e-02 -7.268049e-03 2.617919e-03
2.024365e-02 -1.648354e-02 5.817422e-03
-1.942177e-02 -1.919702e-02 -2.224107e-03
-1.784116e-02 1.831274e-02 -4.324536e-03
-9.701974e-03 1.161065e-02 -2.795066e-02
2.714247e-02 -2.801572e-03 -1.794329e-02
6.570564e-03 2.151273e-02 5.557089e-03
5.138463e-04 2.120903e-04 1.855453e-02
-1.100450e-02 -1.464655e-03 1.796051e-02
-1.001286e-02 1.817816e-03 1.888503e-02
-7.225689e-04 -1.817187e-02 -2.937412e-02
-6.974479e-03 -2.680455e-02 -1.054447e-02
1.203853e-02 -2.413609e-02 -1.776207e-02
1.776693e-03 9.628151e-03 1.765364e-02
7.618120e-03 -1.712624e-02 -2.979124e-02
2.548049e-02 2.823815e-03 -6.478461e-04
2.462424e-02 -2.854541e-03 -1.290514e-05
-1.993581e-02 1.029627e-02 -2.291641e-02
-4.484404e-04 4.711636e-04 1.952203e-02
1.569121e-03 2.377802e-02 -1.661431e-02
7.649231e-03 -5.577624e-03 1.696664e-02
3.073110e-03 -9.282306e-03 1.791560e-02
9.855005e-03 -2.070626e-03 1.762312e-02
4.363582e-03 -2.498465e-02 4.764915e-03
-3.914636e-03 -2.388405e-02 6.411350e-03
-2.674486e-03 1.094716e-02 1.734596e-02
2.881679e-03 4.311048e-03 -3.705569e-02
3.013813e-03 2.277577e-02 8.737251e-03
-1.583305e-02 1.868672e-02 4.842260e-03
-3.460679e-05 -1.673872e-04 2.022616e-02
-1.411554e-02 -1.658976e-02 5.416019e-03
-1.309951e-02 1.954585e-02 -2.057896e-02
-1.883329e-02 1.832727e-02 3.987596e-03
-1.988187e-02 1.400921e-02 3.101556e-03
-1.700790e-02 -2.000529e-02 -1.157045e-02
-6.114257e-03 -8.170196e-03 1.673273e-02
-9.440875e-03 -6.139689e-03 1.755167e-02
-7.620624e-03 6.280202e-03 1.829368e-02
-3.557181e-03 9.512530e-03 1.791963e-02
1.556093e-02 -6.237666e-03 -3.022117e-02
3.111943e-05 -7.329272e-04 1.805861e-02
-6.698806e-03 -1.962070e-02 -2.885073e-02
-2.319525e-03 7.093993e-03 -3.639281e-02
8.850335e-03 4.000135e-03 1.715895e-02
-5.400012e-03 7.153688e-03 1.889128e-02
1.715961e-03 7.440689e-04 -3.427365e-02
1.619000e-03 -6.744186e-04 -3.417833e-02
-2.851000e-03 -2.331795e-02 8.299368e-03
-1.925731e-03 -9.700022e-03 1.667563e-02
-1.513793e-02 1.395487e-02 6.970231e-03
-4.720859e-03 7.567192e-03 1.825218e-02
6.247534e-04 -1.026415e-03 1.818978e-02
-2.061268e-02 1.854812e-03 7.334187e-03
1.304164e-02 1.844117e-02 7.937684e-03
1.963216e-02 -1.227727e-02 6.171944e-03
2.008456e-02 1.400324e-02 4.514761e-03
1.329799e-02 2.241821e-02 -1.488832e-02
-2.572236e-04 2.736364e-03 -3.471479e-02
1.773224e-02 9.339643e-03 1.146402e-02
1.653351e-02 -9.768645e-03 1.080515e-02
-1.607159e-02 -1.897004e-02 -1.677044e-02
-1.831488e-02 1.849287e-02 -1.510341e-02
1.590864e-04 8.807949e-04 1.923598e-02
-1.898165e-02 -1.879354e-02 -1.718759e-02
3.428156e-03 -1.883623e-02 1.224259e-02
8.296580e-03 5.138073e-03 1.829337e-02
8.077582e-03 -5.324196e-03 1.802072e-02
8.469065e-03 -2.967229e-03 1.857936e-02
8.511496e-03 2.955535e-03 1.859324e-02
-2.563462e-02 -2.852219e-03 -2.170376e-02
1.709639e-03 -2.679433e-03 -3.331434e-02
-1.436159e-03 -2.930081e-02 -8.301968e-03
2.392935e-03 -8.905238e-03 1.800032e-02
-8.249493e-05 1.859357e-04 2.002647e-02
1.277062e-02 9.316927e-03 -2.775062e-02
1.260903e-02 -1.090969e-02 -3.121910e-02
5.576731e-04 -9.069575e-03 1.817131e-02
1.893548e-02 1.675888e-02 4.534823e-03
4.679814e-03 -2.718043e-02 -4.960240e-03
1.316055e-02 2.298122e-02 -8.025638e-03
3.856029e-03 8.857175e-03 1.775089e-02
2.040461e-02 8.174831e-03 -2.755966e-02
7.450486e-04 2.892943e-02 -1.002672e-02
-3.243367e-03 -1.060868e-02 1.813318e-02
-4.530682e-04 6.805602e-04 1.846085e-02
3.512011e-03 2.824750e-03 -3.675057e-02
-1.755955e-02 -9.779271e-03 9.726768e-03
2.743238e-03 9.410355e-03 1.609506e-02
-1.025892e-02 1.419279e-02 -3.090402e-02
-1.007542e-02 -2.127591e-02 8.289575e-03
9.457110e-03 1.988447e-04 1.773187e-02
8.876053e-03 3.120005e-04 1.796804e-02
2.740216e-02 8.362113e-03 -1.264865e-02
2.748758e-02 -8.395543e-03 -1.272338e-02
3.903665e-03 -9.913384e-03 -3.355836e-02
-1.627318e-04 -4.516701e-04 1.827140e-02
-2.569798e-04 -1.474163e-03 1.850641e-02
2.328459e-02 -1.097083e-02 3.365288e-03
2.388667e-02 1.099544e-02 3.220536e-03
8.712146e-03 3.954369e-03 1.847111e-02
8.670620e-03 -3.879358e-03 1.789274e-02
4.575464e-03 4.159589e-03 -3.687424e-02
3.836869e-03 -3.849249e-03 -3.718209e-02
1.428999e-02 1.516730e-02 -2.295363e-02
-2.320061e-02 4.794058e-03 -2.305782e-02
-4.353555e-03 -8.035917e-03 1.760641e-02
-7.729021e-04 9.803402e-03 1.738169e-02
8.282383e-04 -5.953546e-05 1.754263e-02
-8.369374e-03 -1.872961e-02 -2.858067e-02
1.292191e-02 1.602483e-02 1.138072e-02
-2.516134e-02 -3.690320e-03 -1.954042e-02
-1.420479e-02 -2.397399e-02 -1.255893e-02
-2.097522e-02 -1.572273e-02 -1.452391e-02
1.728198e-03 9.931086e-03 1.629367e-02
5.064496e-03 2.159054e-02 -2.093900e-02
2.196538e-02 -6.032865e-03 5.157700e-03
2.197289e-02 5.982816e-03 5.173903e-03
-2.570071e-02 -5.645491e-04 5.186958e-03
8.275666e-04 -5.464647e-04 1.802704e-02
-2.460377e-02 1.372677e-03 6.085465e-03
1.994088e-02 -1.761616e-02 -3.248795e-04
-1.128861e-02 -2.203027e-02 -6.682876e-04
-7.330562e-03 1.238935e-03 -3.552487e-02
-5.109619e-03 2.922762e-03 -3.410466e-02
3.169678e-04 8.099346e-03 1.671539e-02
1.392887e-02 2.193382e-02 -1.398073e-02
-2.027793e-02 -1.533839e-02 -1.709103e-02
-3.911135e-03 2.239538e-02 6.485616e-03
-8.578719e-03 -2.556955e-02 -1.752147e-02
3.983419e-04 2.677027e-04 2.021252e-02
-5.398206e-03 8.460504e-03 1.804879e-02
-2.315977e-02 7.369174e-03 -2.412318e-02
-2.289915e-02 -7.091396e-03 -2.383039e-02
1.981698e-02 1.313797e-03 8.276518e-03
2.085254e-02 -1.677227e-03 6.817823e-03
-5.053564e-03 7.367962e-03 1.731789e-02
-5.495439e-03 -6.944394e-03 1.862156e-02
1.286789e-02 2.169236e-02 -2.294514e-02
-2.543240e-02 1.290611e-02 -4.072198e-03
-1.764146e-02 2.174759e-02 -2.827357e-03
-5.376019e-04 2.932642e-04 2.008096e-02
7.854196e-04 9.645116e-03 1.736435e-02
-9.990378e-03 1.257039e-04 -3.519548e-02
-1.030251e-02 -2.502755e-05 -3.482952e-02
-6.186784e-03 -1.886000e-02 7.871310e-03
-2.023215e-03 2.327059e-02 8.679357e-03
-4.659428e-03 1.561000e-03 -3.339931e-02
-4.251258e-03 -1.950464e-03 -3.379119e-02
-2.793753e-02 -3.939056e-03 -3.964551e-03
-3.922528e-03 1.850807e-02 9.588311e-03
-4.140245e-03 -8.964918e-03 1.917631e-02
7.585954e-04 -8.305838e-04 1.979502e-02
-8.612669e-03 2.644958e-02 -1.236176e-02
-1.367766e-02 2.283662e-02 -1.759079e-02
2.841865e-04 -2.125216e-03 -3.722895e-02
1.502966e-02 -1.669240e-02 5.701285e-03
-8.661372e-03 1.616051e-04 1.841499e-02
3.904134e-03 2.340104e-02 -1.603768e-02
-2.001543e-02 6.716317e-03 -2.835852e-02
-1.823861e-02 -8.076100e-03 -2.588820e-02
7.182964e-03 4.696752e-03 1.729094e-02
-4.468800e-03 -8.552653e-03 1.851525e-02
1.341738e-03 -1.487585e-04 1.829979e-02
-1.717885e-03 -2.146950e-02 9.467953e-03
1.601466e-02 9.598345e-03 9.084865e-03
1.888704e-02 1.744973e-02 -1.143542e-02
-5.844322e-03 -2.372432e-02 -1.310718e-02
1.262568e-02 -2.190243e-02 1.319445e-04
-2.159528e-03 -2.208172e-02 6.204211e-03
2.314583e-02 1.418802e-02 -1.695434e-02
2.327919e-02 1.448404e-02 -1.411360e-02
-2.143519e-02 1.444376e-02 -1.998768e-02
-1.658208e-02 1.685024e-02 -1.784078e-02
8.549553e-04 -5.408809e-04 1.802466e-02
2.098235e-03 3.343978e-03 -3.757208e-02
-2.455590e-02 1.414636e-02 -1.038336e-02
-8.454017e-03 -2.215750e-03 1.705090e-02
-8.466018e-03 2.219300e-03 1.702107e-02
-8.827878e-03 -1.863034e-03 1.751999e-02
-8.833779e-03 1.877018e-03 1.750769e-02
-6.625206e-04 -9.333681e-03 1.676445e-02
-2.117532e-02 -1.170051e-02 -4.644210e-03
-2.186751e-02 1.226517e-02 -4.580168e-04
-1.347005e-03 -1.271238e-03 -3.659693e-02
-3.295804e-04 1.271966e-03 1.797582e-02
-2.044102e-02 -1.110998e-02 -2.541818e-02
-1.985558e-02 1.032680e-02 -2.672946e-02
-8.760436e-03 1.851123e-04 1.836127e-02
-1.712384e-02 -2.734800e-03 -3.184412e-02
1.822624e-02 7.114851e-03 -3.052646e-02
1.812534e-02 1.999836e-02 -1.029744e-02
-8.017498e-03 2.835384e-03 1.882883e-02
6.547936e-03 -2.677773e-02 -8.107277e-03
7.060131e-03 6.898973e-03 1.834832e-02
-2.249575e-03 -8.734138e-03 1.877434e-02
-7.676966e-04 1.162291e-04 1.951032e-02
2.333296e-02 1.019979e-02 -1.614937e-02
-6.269266e-03 5.075676e-03 1.782404e-02
1.514491e-02 8.176237e-03 -2.768766e-02
1.487439e-02 -8.762725e-03 -3.149614e-02
-7.574647e-03 3.641357e-03 1.816243e-02
1.299972e-02 1.516279e-02 -2.866609e-02
2.530931e-02 -1.373076e-02 -7.494668e-03
2.403759e-02 1.164082e-02 -8.214093e-03
-1.433515e-02 2.584085e-03 -3.345665e-02
-1.428608e-02 -2.546627e-03 -3.344339e-02
-3.859398e-04 -5.683984e-04 1.902510e-02
9.234241e-05 -8.879330e-04 1.984079e-02
-4.287402e-03 2.737813e-03 -3.632014e-02
-5.614015e-03 1.794058e-02 1.204555e-02
-9.883519e-03 1.090936e-02 -3.265698e-02
-1.441706e-03 -6.415479e-03 1.811211e-02
1.514689e-02 1.582043e-02 9.593086e-03
-9.251536e-03 5.509487e-04 1.770076e-02
-8.928373e-03 4.554430e-04 1.725980e-02
-8.964127e-03 -1.911571e-03 1.602934e-02
-2.703036e-02 -3.619847e-04 -1.844002e-02
-4.790940e-03 -9.712933e-03 -3.163777e-02
-3.811142e-04 4.792307e-04 2.034794e-02
-1.180485e-03 -5.282940e-03 -3.755030e-02
1.222424e-02 2.016582e-02 3.552362e-03
-2.005935e-02 -9.716601e-03 -2.213136e-02
-1.944194e-02 9.567535e-03 -2.674678e-02
-6.920225e-03 1.521846e-02 -3.061680e-02
4.168071e-03 2.216578e-02 7.979410e-03
2.449393e-03 -9.670236e-03 1.795939e-02
6.287837e-03 -3.236588e-03 1.679518e-02
1.225752e-02 2.051533e-02 6.143308e-03
1.840629e-02 -5.438536e-03 1.127913e-02
-5.988460e-04 1.333935e-04 1.987677e-02
1.841575e-02 5.400190e-03 1.130287e-02
9.308056e-03 -3.275098e-03 1.767582e-02
4.859030e-03 2.233257e-02 9.283261e-03
-1.166727e-02 2.223533e-02 -1.802416e-02
-6.923365e-03 2.050830e-02 8.918272e-03
2.966140e-03 9.727239e-03 1.734922e-02
-2.389427e-02 -8.923355e-03 -1.848468e-02
-6.413682e-04 -9.294848e-03 1.793167e-02
-2.996316e-04 9.842007e-04 -3.730248e-02
-9.035366e-03 -2.121710e-02 7.631747e-03
-4.001808e-04 5.014789e-04 1.949482e-02
-1.358504e-02 -2.423574e-02 -5.944033e-03
7.905615e-03 2.165535e-02 8.363846e-03
8.498777e-03 4.497958e-03 1.816331e-02
9.786563e-03 1.288749e-02 -2.877904e-02
3.802611e-03 -2.433468e-02 4.517730e-03
-4.454022e-03 -2.035055e-02 1.111945e-02
-1.536988e-03 6.179680e-03 -3.596090e-02
-2.744365e-02 9.226498e-03 -1.149174e-02
9.942934e-03 -1.877670e-02 -2.024182e-02
1.906339e-02 8.847675e-04 -3.000677e-02
-5.431334e-04 -1.643527e-04 1.955329e-02
-9.385217e-03 -1.583320e-03 1.767594e-02
-9.273630e-03 1.676374e-03 1.744085e-02
-4.309300e-03 -1.461458e-02 -3.352867e-02
1.401463e-02 -1.845369e-02 8.725056e-03
-7.307017e-03 -1.247289e-02 -3.289904e-02
3.149538e-03 2.377821e-02 7.039822e-03
-6.043815e-03 -5.818426e-03 1.830828e-02
-6.322169e-03 5.586396e-03 1.879255e-02
1.023675e-02 1.529734e-02 -3.080988e-02
-1.370563e-03 2.124598e-02 1.020378e-02
-2.557725e-04 2.054818e-04 1.932035e-02
-2.591579e-03 1.011395e-02 1.819247e-02
-6.280046e-03 2.171721e-02 -2.759761e-02
-2.291913e-02 5.607894e-03 -2.269849e-02
2.069374e-02 8.929030e-03 9.863603e-03
-2.654508e-02 -1.055949e-02 -1.452102e-02
-1.073827e-03 2.561761e-02 -1.217484e-02
2.085168e-02 -1.405465e-02 -1.620836e-02
-4.008877e-03 8.335172e-03 1.810384e-02
-1.813694e-02 1.301878e-02 -2.428427e-02
-4.724614e-04 8.160035e-03 1.815303e-02
-1.018606e-02 5.092719e-05 1.636255e-02
-1.328784e-02 -1.917769e-02 4.951706e-03
2.346091e-02 3.867651e-03 3.097268e-03
1.904938e-02 -2.059488e-02 -4.601636e-03
2.465181e-02 -5.952825e-03 -1.708128e-02
5.389568e-03 -1.620370e-02 -3.057723e-02
6.407309e-03 5.763061e-03 1.848463e-02
-5.552333e-03 2.343284e-02 -1.731243e-02
-3.859075e-04 -2.720890e-02 -1.179553e-02
2.197584e-02 -8.787257e-04 -2.633084e-02
1.839671e-02 9.394103e-04 -2.523541e-02
-2.086633e-02 3.791057e-04 1.141059e-02
1.169636e-02 2.061691e-02 -1.977513e-02
-3.713763e-03 6.359042e-03 1.796115e-02
1.244354e-02 -1.732940e-02 -2.388480e-02
-2.010838e-02 -1.257736e-02 -2.332467e-02
-1.899315e-02 1.171037e-02 -2.726056e-02
1.732063e-02 -1.957477e-02 1.073008e-03
-2.541031e-02 4.251858e-03 -1.796838e-02
8.661366e-03 -2.153151e-02 7.498793e-03
1.319897e-02 -2.233426e-02 1.356810e-03
-4.319157e-03 -3.289319e-03 -3.578699e-02
-2.791065e-02 1.075491e-03 -1.188357e-03
1.398035e-02 -1.780680e-02 -2.696901e-02
-7.532004e-03 -3.262414e-03 1.666642e-02
-7.462934e-03 3.174419e-03 1.678684e-02
2.837024e-02 5.461293e-03 -1.495913e-02
-5.834230e-03 6.755959e-03 1.809822e-02
5.296104e-03 2.543747e-02 -1.798358e-02
5.631039e-03 -5.217400e-03 1.876065e-02
-2.561194e-02 1.054680e-02 -4.054910e-03
7.223741e-03 -2.206067e-03 1.761375e-02
-6.304960e-03 -4.587314e-03 1.799095e-02
-2.430730e-02 -1.440652e-03 -1.799281e-02
-1.578909e-02 2.280990e-02 -5.861956e-03
2.932506e-03 2.690311e-02 -1.665123e-02
7.035031e-03 -4.150394e-03 1.699283e-02
8.642057e-03 4.373642e-03 -3.389041e-02
-2.829301e-02 -1.625364e-03 -3.961672e-03
-1.290013e-02 -1.959933e-02 8.350993e-03
2.085815e-03 -7.426449e-03 1.800344e-02
2.648623e-02 4.063580e-03 -2.004585e-02
-1.957301e-02 1.553261e-02 -1.668124e-02
2.621729e-02 7.044500e-04 2.790757e-03
1.304442e-05 -2.216842e-04 2.005690e-02
-1.817675e-02 -4.596186e-05 -2.739814e-02
3.389982e-03 4.400366e-03 -3.622115e-02
1.984730e-02 7.717331e-03 -2.676777e-02
1.991741e-02 -8.183575e-03 -2.688511e-02
1.892547e-02 -1.670859e-02 -1.781244e-02
1.924874e-02 1.613793e-02 -1.921675e-02
-1.178100e-02 2.539336e-02 -5.055112e-03
1.591313e-03 1.583381e-02 -3.332151e-02
-6.934693e-03 2.134980e-02 6.550380e-03
1.639400e-02 -1.846521e-02 -1.393955e-02
-4.291559e-03 2.771525e-02 -4.211065e-03
-2.728833e-04 3.275975e-04 -3.811248e-02
2.205675e-02 -1.406055e-02 -1.545776e-02
-1.248802e-02 1.968157e-02 6.353418e-03
-6.127486e-03 2.674064e-02 -1.330308e-02
-8.794053e-03 -1.487262e-02 -2.962780e-02
7.892653e-03 -2.379655e-02 -2.120683e-02
2.550506e-02 7.867906e-03 -7.617555e-03
2.157423e-02 -1.044211e-02 -1.907004e-02
-1.698908e-02 -2.057693e-02 -5.291160e-03
-1.703666e-02 2.124619e-02 -6.064382e-03
2.823636e-02 6.672573e-05 -1.502458e-02
1.703261e-02 -1.805739e-04 -2.961778e-02
2.435711e-04 1.821080e-03 -3.753479e-02
2.195764e-02 -4.549212e-03 8.612019e-03
1.830863e-02 -1.332111e-02 8.409740e-03
-2.001774e-02 -5.095147e-03 1.180153e-02
-1.998937e-02 5.097987e-03 1.178442e-02
7.893765e-03 -2.096433e-02 9.036233e-03
7.502936e-03 2.280529e-03 1.775973e-02
-4.182148e-03 2.759214e-02 -4.110968e-03
-2.600215e-02 -9.228128e-03 -2.656921e-03
-2.391986e-02 1.050103e-02 -2.877539e-03
2.564865e-02 -6.284282e-04 -1.634805e-02
-2.833399e-03 -6.847986e-03 -3.622045e-02
5.116003e-03 -2.847432e-02 -9.826797e-03
-2.115558e-02 -1.864937e-02 -4.293187e-03
3.294337e-03 1.702327e-02 1.141259e-02
4.529763e-03 -2.456020e-02 -1.574849e-02
5.361820e-03 3.896840e-03 -3.712790e-02
1.840025e-03 -3.222287e-03 -3.395981e-02
5.204849e-03 -2.269744e-02 2.831905e-03
-6.646844e-03 -2.898322e-03 1.865269e-02
-9.883999e-03 2.041246e-02 4.329537e-03
2.795579e-02 5.255811e-04 -1.706252e-03
1.557012e-02 4.940530e-04 1.291330e-02
1.690078e-02 -9.156302e-05 1.372772e-02