# vtk DataFile Version 2.0
Electric current density generated by TTH
ASCII
DATASET UNSTRUCTURED_GRID
POINTS 15388 double
3.871620e-05 1.773383e-05 -9.144850e-23
2.655095e-05 -3.329384e-05 -9.144850e-23
-1.377724e-05 -4.002242e-05 3.547852e-07
-2.118822e-05 -3.664241e-05 3.547852e-07
-4.201587e-05 -5.125785e-06 3.547852e-07
-3.690211e-05 -2.073260e-05 3.547852e-07
-1.065387e-05 -4.096464e-05 3.547852e-07
-1.423698e-05 3.986120e-05 3.547852e-07
5.740612e-06 -4.193629e-05 3.547852e-07
-1.830316e-05 -3.816544e-05 3.547852e-07
-2.656434e-05 -3.295364e-05 3.547852e-07
6.514718e-07 -4.232236e-05 3.547852e-07
2.673389e-05 -3.314713e-05 -9.144850e-23
1.033553e-05 -4.104611e-05 3.547852e-07
-1.234465e-05 4.043533e-05 3.673651e-07
3.489697e-05 -2.392533e-05 3.597433e-07
3.489697e-05 2.392533e-05 -3.597433e-07
-7.471135e-06 4.187592e-05 -1.818078e-07
-2.686013e-05 -3.298598e-05 -1.790229e-07
-1.558140e-05 -3.958233e-05 -1.790229e-07
-5.465958e-06 -4.218607e-05 -1.790229e-07
-1.194839e-06 -4.252192e-05 -1.790229e-07
-2.932086e-05 -3.081929e-05 -1.790229e-07
2.691602e-05 -3.299941e-05 -9.144850e-23
-2.287468e-05 -3.586489e-05 -1.790229e-07
-3.957828e-05 -1.559170e-05 -1.790229e-07
-3.808385e-05 1.895155e-05 -1.790229e-07
-4.253649e-05 4.336778e-07 -1.790229e-07
3.719486e-06 -4.237578e-05 -1.790229e-07
-3.472150e-05 2.457558e-05 -1.790229e-07
-3.015821e-05 3.000039e-05 -1.790229e-07
-3.696511e-05 -2.105073e-05 -1.787837e-07
1.131655e-05 -4.100582e-05 -1.790228e-07
1.096201e-05 -4.050151e-05 -2.752303e-07
2.709733e-05 -3.285069e-05 -9.144850e-23
-1.208555e-05 4.079166e-05 -1.683073e-07
3.872853e-05 1.612404e-05 -2.678739e-07
3.872853e-05 -1.612404e-05 2.678739e-07
-9.635206e-06 4.142676e-05 -1.899312e-07
2.143423e-05 3.674581e-05 1.760006e-07
4.041765e-05 1.327439e-05 1.734272e-07
4.033259e-05 -1.351919e-05 -1.801993e-07
1.041859e-05 4.124102e-05 -1.826815e-07
1.129926e-06 4.193624e-05 2.683516e-07
2.554531e-05 3.327705e-05 -2.683516e-07
2.727781e-05 -3.270098e-05 -9.144850e-23
2.554531e-05 -3.327705e-05 2.683516e-07
-3.025589e-06 4.184221e-05 2.683527e-07
3.134595e-05 2.771907e-05 -6.802295e-08
4.058010e-05 1.056652e-05 -2.494265e-07
2.340123e-05 3.553641e-05 -1.578061e-07
2.340123e-05 -3.553641e-05 1.578061e-07
1.177657e-05 -4.026048e-05 -2.644747e-07
2.114508e-05 3.628301e-05 -3.044341e-07
-6.356703e-06 4.140272e-05 -1.869373e-07
4.104478e-05 -1.117263e-05 -1.798803e-07
2.745748e-05 -3.255027e-05 -9.144850e-23
9.800190e-06 4.109128e-05 -3.719300e-07
-9.799556e-06 4.067883e-05 -6.004348e-08
-4.092879e-05 1.085484e-05 3.489903e-07
-4.068983e-05 -1.171885e-05 3.489903e-07
-4.211030e-05 4.440281e-06 3.489903e-07
1.052411e-05 -4.051103e-05 1.145902e-07
1.076709e-05 -4.114093e-05 -1.996879e-07
4.205297e-05 -1.047544e-06 -3.440423e-07
4.205297e-05 1.047544e-06 3.440423e-07
4.145552e-05 -6.485709e-06 2.761709e-07
2.763630e-05 -3.239858e-05 -9.144850e-23
4.145552e-05 6.485709e-06 -2.761709e-07
3.243064e-05 -2.752155e-05 1.865520e-07
-2.474174e-05 -3.404422e-05 -3.515075e-07
-3.767538e-05 -1.875440e-05 -3.515075e-07
-3.647095e-05 2.100077e-05 -3.515075e-07
-7.691247e-06 -4.137640e-05 -3.515075e-07
3.151999e-05 -2.788677e-05 3.515893e-07
3.971940e-05 -1.395452e-05 -3.562796e-07
3.661126e-05 2.035970e-05 -1.931748e-07
2.088410e-05 3.683814e-05 -3.480799e-07
2.781429e-05 -3.224590e-05 -9.144850e-23
2.119771e-05 -3.689057e-05 1.626819e-07
4.136028e-05 -7.140429e-06 -2.868946e-07
4.136028e-05 7.140429e-06 2.868946e-07
1.981638e-05 -3.763901e-05 1.823743e-07
1.735462e-05 3.807114e-05 -4.246258e-08
-5.105537e-08 -4.184002e-05 -4.197062e-08
-1.340494e-05 3.963427e-05 -3.951062e-08
-2.969165e-05 2.947874e-05 -4.197062e-08
-3.478837e-05 2.324563e-05 -4.197062e-08
-1.427391e-05 -3.932996e-05 -4.197062e-08
2.799144e-05 -3.209225e-05 -9.144850e-23
-4.881168e-06 -4.155403e-05 -3.898464e-08
-2.679598e-05 -3.213356e-05 -4.197062e-08
-2.154306e-05 -3.586763e-05 -4.197062e-08
9.531096e-06 -4.073968e-05 -3.898454e-08
-1.466549e-05 3.976483e-05 -3.314219e-07
-1.793315e-05 -3.840208e-05 -3.314218e-07
-3.985103e-05 -1.442960e-05 -3.314218e-07
1.088198e-06 -4.236902e-05 -3.314218e-07
-3.086919e-05 2.904155e-05 -3.314218e-07
-3.301421e-05 2.657780e-05 -3.314218e-07
2.816774e-05 -3.193762e-05 -9.144850e-23
-3.548228e-05 -2.318029e-05 -3.314218e-07
-1.338240e-05 -4.021479e-05 -3.314218e-07
-2.083754e-05 -3.690684e-05 -3.314218e-07
4.253282e-05 1.976609e-07 -1.886113e-07
4.253282e-05 -1.976609e-07 1.886113e-07
3.357572e-05 2.579958e-05 -3.491972e-07
4.190505e-05 4.090254e-06 3.577473e-07
4.190505e-05 -4.090254e-06 -3.577473e-07
4.234677e-05 -1.912480e-06 -3.277249e-07
4.234677e-05 1.912480e-06 3.277249e-07
3.861796e-05 1.794676e-05 -9.144850e-23
2.834318e-05 -3.178202e-05 -9.144850e-23
4.061007e-05 -1.264493e-05 -1.887740e-07
1.876057e-05 -3.788988e-05 3.669373e-07
3.471625e-05 2.335401e-05 4.574056e-08
1.755576e-05 3.852410e-05 3.519484e-07
-3.196610e-05 -2.703903e-05 1.476701e-07
-4.142325e-05 6.087270e-06 1.476701e-07
-2.546799e-05 3.323134e-05 1.476701e-07
-4.067245e-05 -9.934385e-06 1.476701e-07
-2.146352e-05 3.594798e-05 1.476701e-07
-1.717235e-05 3.818443e-05 1.476701e-07
2.851777e-05 -3.162546e-05 -9.144850e-23
-3.999695e-05 1.237677e-05 1.476701e-07
4.144316e-05 5.828636e-06 -9.890757e-08
4.144316e-05 -5.828636e-06 9.890757e-08
2.189721e-06 4.190807e-05 2.810247e-07
2.638650e-05 -3.263179e-05 2.810247e-07
2.638650e-05 3.263179e-05 -2.810247e-07
-1.968207e-06 4.191905e-05 2.810250e-07
3.647091e-05 2.072528e-05 2.653098e-07
-3.766420e-05 -1.935600e-05 -3.478383e-07
-7.204024e-06 -4.172947e-05 -3.478383e-07
2.869149e-05 -3.146794e-05 -9.144850e-23
-3.642337e-05 2.160058e-05 -3.478383e-07
-2.533315e-05 -3.393344e-05 -3.478383e-07
3.508234e-05 2.320645e-05 3.428280e-07
3.268805e-05 -2.721102e-05 1.912255e-07
1.069764e-05 4.100880e-05 -3.323768e-07
1.078965e-05 4.042341e-05 -2.607475e-08
3.427705e-05 2.477213e-05 3.645877e-07
3.427705e-05 -2.477213e-05 -3.645877e-07
3.246373e-05 -2.690918e-05 3.706762e-07
1.125437e-05 -4.041450e-05 2.691327e-07
2.886434e-05 -3.130947e-05 -9.144850e-23
3.667242e-05 2.019012e-05 1.350173e-07
3.192476e-05 2.761957e-05 -3.733543e-07
9.840701e-06 -4.079338e-05 -2.795417e-07
-5.172854e-06 -4.163823e-05 -2.748218e-07
-2.137239e-05 -3.610708e-05 -2.748218e-07
-2.666411e-05 -3.239639e-05 -2.748218e-07
-1.370961e-05 3.965535e-05 -2.748218e-07
-3.503577e-05 2.308670e-05 -2.748218e-07
-2.996491e-05 2.937014e-05 -2.748218e-07
-1.406054e-05 -3.953229e-05 -2.748218e-07
2.903631e-05 -3.115005e-05 -9.144850e-23
2.183996e-07 -4.195775e-05 -2.748218e-07
3.498895e-05 -2.306972e-05 -2.206894e-07
2.022665e-05 3.741738e-05 1.866391e-07
1.761498e-05 3.847161e-05 -3.593070e-07
3.662401e-05 -2.136162e-05 -3.228790e-07
3.594769e-05 2.276037e-05 1.623562e-07
3.072682e-05 -2.941759e-05 -1.792273e-07
3.076148e-05 2.938194e-05 1.784633e-07
7.590345e-06 4.185593e-05 -1.792228e-07
-9.176657e-06 4.114860e-05 -3.697813e-07
2.920741e-05 -3.098968e-05 -9.144850e-23
-1.867007e-05 -3.822235e-05 1.794921e-07
-4.226137e-05 -4.847249e-06 1.794921e-07
-3.266385e-05 2.725055e-05 1.794921e-07
-3.693518e-05 -2.110242e-05 1.794921e-07
6.072476e-06 -4.210279e-05 1.794921e-07
-4.001816e-05 -1.443056e-05 1.756858e-07
-3.907949e-05 1.680218e-05 1.794921e-07
-3.520021e-05 -2.388441e-05 1.794921e-07
-1.100308e-05 -4.109077e-05 1.794921e-07
4.068996e-05 1.151311e-05 3.654765e-07
2.937761e-05 -3.082838e-05 -9.144850e-23
-2.080314e-05 -3.644101e-05 2.771793e-07
-1.793474e-05 -3.793498e-05 2.771793e-07
-2.614935e-05 -3.282232e-05 2.811498e-07
-5.836101e-06 -4.155758e-05 2.811498e-07
-4.161631e-05 -5.359673e-06 2.763754e-07
-3.256023e-05 2.646789e-05 2.771793e-07
-1.433250e-05 3.943726e-05 2.771793e-07
-3.042501e-05 2.889700e-05 2.771793e-07
-3.540484e-05 2.252976e-05 2.811498e-07
-3.833699e-05 1.707279e-05 2.823092e-07
2.954693e-05 -3.066613e-05 -9.144850e-23
-1.343787e-05 -3.975099e-05 2.771793e-07
5.454025e-06 -4.161080e-05 2.823092e-07
-3.670379e-05 -2.034513e-05 2.811498e-07
-3.928911e-05 -1.475500e-05 2.837399e-07
-3.501964e-05 -2.311585e-05 2.771793e-07
8.783375e-07 -4.195171e-05 2.771793e-07
-1.028965e-05 -4.067882e-05 2.763754e-07
1.048697e-05 -4.062763e-05 2.756958e-07
1.790760e-05 3.858626e-05 1.781579e-07
2.245409e-05 3.593042e-05 3.380428e-07
2.971535e-05 -3.050296e-05 -9.144850e-23
2.245409e-05 -3.593042e-05 -3.380428e-07
3.553279e-05 2.338394e-05 1.822873e-07
-2.693619e-05 -3.292372e-05 1.792701e-07
-5.368456e-06 -4.219845e-05 1.792701e-07
-1.401732e-05 4.016273e-05 1.792701e-07
3.464598e-07 -4.253716e-05 1.792701e-07
-3.558893e-05 2.330145e-05 1.792701e-07
-3.046669e-05 2.968687e-05 1.792701e-07
-1.413711e-05 -4.012072e-05 1.792701e-07
-2.156026e-05 -3.666995e-05 1.792701e-07
2.988287e-05 -3.033887e-05 -9.144850e-23
1.008788e-05 -4.132511e-05 1.792700e-07
3.571264e-05 -2.213918e-05 -3.197513e-07
2.169147e-05 -3.633782e-05 3.572098e-07
1.905134e-05 3.756032e-05 -3.609813e-07
3.807321e-05 -1.893729e-05 -2.054367e-07
3.807321e-05 1.893729e-05 2.054367e-07
2.957490e-05 -2.966350e-05 -1.870508e-07
2.957490e-05 2.966350e-05 1.870508e-07
6.513640e-06 4.137838e-05 -1.870487e-07
2.128386e-05 3.682370e-05 -1.904480e-07
3.851855e-05 1.815914e-05 -9.144850e-23
3.004949e-05 -3.017385e-05 -9.144850e-23
-3.968832e-05 -1.462208e-05 3.635298e-07
4.161077e-05 -4.519364e-06 -1.138732e-07
4.161077e-05 4.519364e-06 1.138732e-07
3.688997e-05 2.082193e-05 -3.420996e-07
-1.363732e-05 4.030334e-05 -1.607604e-07
4.066504e-05 -1.161319e-05 -3.647505e-07
-3.690663e-05 -2.020500e-05 3.478616e-07
-2.604479e-05 -3.304559e-05 3.478616e-07
-3.561579e-05 2.240216e-05 3.478616e-07
-6.070079e-06 -4.163527e-05 3.478616e-07
3.021519e-05 -3.000792e-05 -9.144850e-23
-9.090261e-06 4.096547e-05 -2.780847e-07
-4.136707e-05 7.074820e-06 2.831602e-07
-3.979393e-05 1.331347e-05 2.781226e-07
-2.627633e-05 3.271636e-05 2.781226e-07
-4.097961e-05 -9.026482e-06 2.781226e-07
-3.141278e-05 -2.782163e-05 2.781226e-07
-1.807722e-05 3.786845e-05 2.781226e-07
-2.235455e-05 3.551847e-05 2.831603e-07
[...]
POINT_DATA 15388
VECTORS 10.000GHz_fone_imag double
5.130263e+10 -1.085535e+11 2.370451e+08
-9.271240e+10 -7.663899e+10 -3.698120e+08
-1.125462e+11 3.962944e+10 -7.247306e+08
-1.028863e+11 6.041851e+10 -7.335690e+08
-1.355939e+10 1.190372e+11 -5.290853e+08
-5.958498e+10 1.049002e+11 6.526988e+08
-1.157806e+11 3.102010e+10 -5.313043e+08
1.121800e+11 3.917332e+10 -7.459202e+08
-1.188953e+11 -1.754372e+10 2.080021e+09
-1.078347e+11 5.275239e+10 -1.131119e+09
-9.133707e+10 7.554825e+10 -1.545171e+09
-1.193047e+11 -9.709759e+08 -7.149203e+08
-9.324668e+10 -7.548808e+10 2.179727e+08
-1.161526e+11 -2.832685e+10 -1.702115e+09
1.159538e+11 3.372034e+10 -5.442932e+08
-6.739381e+10 -9.893052e+10 1.215624e+09
6.726680e+10 -9.889829e+10 2.418530e+09
1.195390e+11 1.798526e+10 1.046088e+09
-9.301191e+10 7.600452e+10 -1.129377e+09
-1.112204e+11 4.340338e+10 -7.758438e+08
-1.178099e+11 1.572608e+10 2.970415e+07
-1.193808e+11 2.997575e+09 -8.027019e+08
-8.677397e+10 8.208463e+10 -7.838657e+08
-9.313686e+10 -7.192327e+10 6.370367e+08
-1.009200e+11 6.392302e+10 -7.787797e+08
-4.428366e+10 1.098761e+11 1.841826e+08
5.210846e+10 1.061574e+11 -1.873419e+08
1.180786e+08 1.176626e+11 5.061633e+08
-1.176876e+11 -1.098066e+10 -1.725272e+08
6.870628e+10 9.768858e+10 -7.768169e+08
8.320562e+10 8.274238e+10 -4.256224e+08
-5.954824e+10 1.064139e+11 -8.961016e+08
-1.139797e+11 -3.179375e+10 -7.053536e+08
-1.175846e+11 -3.406932e+10 9.729112e+07
-9.032432e+10 -7.673058e+10 3.093579e+08
1.150617e+11 3.208650e+10 -5.069738e+08
4.569606e+10 -1.144135e+11 -1.209970e+09
-4.657583e+10 -1.151040e+11 -1.665818e+09
1.159467e+11 2.637798e+10 -1.393843e+08
1.032350e+11 -6.223179e+10 -1.936699e+08
3.510687e+10 -1.141714e+11 2.190952e+09
-3.543420e+10 -1.127246e+11 -2.058577e+08
1.144916e+11 -3.021704e+10 3.368030e+08
1.228867e+11 -1.653426e+09 -1.483803e+09
9.840816e+10 -7.348294e+10 1.506991e+09
-9.261776e+10 -7.491596e+10 -8.947956e+08
-9.845333e+10 -7.351621e+10 1.502304e+09
1.224441e+11 1.050042e+10 -1.496098e+09
8.394983e+10 -9.346214e+10 7.226378e+08
3.192514e+10 -1.171638e+11 3.522337e+08
9.889751e+10 -6.663189e+10 -1.932521e+09
-9.704532e+10 -6.667883e+10 -2.146765e+09
-1.167912e+11 -3.667380e+10 7.183984e+08
1.062153e+11 -5.867913e+10 -2.165243e+09
1.209708e+11 1.683825e+10 -6.629399e+08
-3.233342e+10 -1.130500e+11 5.603866e+08
-9.029939e+10 -7.831656e+10 7.043802e+08
1.173496e+11 -2.797171e+10 3.663760e+08
1.172597e+11 2.979633e+10 -4.364445e+08
3.038558e+10 1.156689e+11 1.383071e+09
-3.337856e+10 1.147769e+11 1.386069e+09
1.217287e+10 1.193744e+11 1.205680e+09
-1.181039e+11 -2.980511e+10 1.502407e+09
-1.145615e+11 -3.018309e+10 1.355908e+09
-1.743658e+09 -1.216845e+11 -1.330031e+09
3.788592e+09 -1.221411e+11 -1.111688e+09
-1.832153e+10 -1.210819e+11 3.648509e+08
-9.309494e+10 -7.969488e+10 2.213134e+09
1.842732e+10 -1.209753e+11 1.752754e+08
-7.413858e+10 -9.156379e+10 6.880744e+08
-9.835697e+10 7.366631e+10 1.755472e+09
-5.626620e+10 1.091932e+11 -1.744431e+09
6.360777e+10 1.062334e+11 1.700768e+09
-1.220312e+11 2.050135e+10 -1.706301e+09
-8.126257e+10 -9.273361e+10 1.093345e+08
-4.168973e+10 -1.172069e+11 -1.369096e+09
5.859528e+10 -1.072482e+11 -9.669780e+07
1.032842e+11 -5.853440e+10 1.649739e+09
-9.179189e+10 -7.716696e+10 -7.212811e+08
-1.020347e+11 -5.618011e+10 9.799776e+08
-2.110438e+10 -1.198682e+11 2.872017e+08
2.086607e+10 -1.196222e+11 3.629283e+08
-1.041149e+11 -5.661729e+10 2.817605e+08
1.105398e+11 -5.013352e+10 2.327460e+08
-1.228773e+11 2.854006e+08 4.637358e+07
1.165807e+11 3.978867e+10 -3.681176e+08
8.588612e+10 8.783471e+10 -6.201802e+08
6.821900e+10 1.014168e+11 3.711279e+08
-1.155059e+11 4.205905e+10 4.312702e+07
-9.195048e+10 -7.642445e+10 7.846320e+08
-1.254874e+11 1.480072e+10 3.112987e+08
-9.435680e+10 7.833271e+10 -3.423844e+08
-1.051560e+11 6.333959e+10 6.286474e+07
-1.209899e+11 -2.841648e+10 -9.151090e+08
1.109687e+11 4.069858e+10 4.577456e+08
-1.096706e+11 5.155628e+10 5.319185e+08
-4.102584e+10 1.118919e+11 -2.899700e+08
-1.181535e+11 -2.846469e+09 4.981325e+08
8.114506e+10 8.591709e+10 4.843588e+08
7.622312e+10 9.419209e+10 5.383869e+08
-8.516063e+10 -7.976900e+10 1.094770e+09
-6.684935e+10 1.012792e+11 -3.453379e+08
-1.120104e+11 3.746897e+10 4.787012e+08
-1.028522e+11 5.830348e+10 4.914966e+08
2.780493e+08 -1.195265e+11 1.084416e+09
2.635646e+08 -1.200297e+11 -1.266641e+08
7.153695e+10 -9.545979e+10 1.203399e+09
1.220719e+10 -1.212527e+11 -4.909693e+08
-1.195111e+10 -1.213139e+11 -6.682373e+08
-4.218789e+09 -1.205960e+11 -6.529758e+08
4.752981e+09 -1.179120e+11 -1.234394e+09
5.043897e+10 -1.080985e+11 -6.127877e+08
-8.934346e+10 -8.006406e+10 9.012543e+08
-3.490210e+10 -1.135918e+11 -4.428712e+08
-1.069819e+11 -5.338165e+10 1.893895e+09
6.776403e+10 -1.032580e+11 -1.152553e+09
1.084839e+11 -4.920133e+10 -1.275033e+09
-8.012233e+10 9.534591e+10 1.936023e+08
1.708674e+10 1.208880e+11 -3.588440e+08
9.776537e+10 7.429720e+10 1.342728e+08
-2.960122e+10 1.189807e+11 -3.595565e+08
1.049309e+11 6.209330e+10 1.636275e+08
1.122042e+11 4.992308e+10 1.477209e+08
-8.833868e+10 -7.594217e+10 -7.849752e+08
3.576115e+10 1.173538e+11 -3.589521e+08
1.816683e+10 -1.253828e+11 -3.987127e+08
-1.791775e+10 -1.207558e+11 -1.593330e+07
1.243605e+11 -5.918140e+09 -5.636344e+08
-9.715705e+10 -7.783291e+10 5.796236e+08
9.615566e+10 -7.620084e+10 -9.121040e+08
1.243268e+11 6.420095e+09 -5.674744e+08
5.904138e+10 -1.073057e+11 5.434092e+08
-5.404006e+10 1.046041e+11 6.435289e+08
-1.162558e+11 1.966504e+10 6.400413e+08
-8.540566e+10 -7.904408e+10 1.015005e+09
6.051360e+10 1.011847e+11 -6.485382e+08
-9.419177e+10 7.063376e+10 -6.349874e+08
6.654464e+10 -1.010035e+11 -5.483840e+08
-7.755183e+10 -9.045230e+10 -4.433051e+08
1.160162e+11 -2.971516e+10 3.648811e+09
1.199244e+11 -3.224632e+10 2.677179e+08
7.201186e+10 -9.863987e+10 1.965885e+09
-7.096338e+10 -9.743179e+10 1.916075e+09
-7.765325e+10 -9.484683e+10 -7.254415e+08
-1.166370e+11 -3.054102e+10 4.473544e+08
-8.677605e+10 -8.227078e+10 6.949295e+08
5.722442e+10 -1.062921e+11 6.817184e+08
8.052367e+10 -9.216626e+10 -1.287981e+08
-1.195093e+11 -2.723975e+10 -1.078606e+09
-1.226888e+11 1.478600e+10 -1.309884e+09
-1.036790e+11 6.311437e+10 -3.265218e+08
-9.448150e+10 7.754804e+10 7.000117e+08
1.153236e+11 3.818323e+10 7.477679e+07
6.722127e+10 1.031960e+11 1.392518e+09
8.650465e+10 8.566674e+10 -2.132401e+08
-1.139824e+11 4.215789e+10 -3.109187e+08
-8.855386e+10 -8.341225e+10 -1.761213e+09
-1.215072e+11 8.640683e+08 -3.352351e+08
-6.698821e+10 -1.019042e+11 -1.241845e+08
1.067133e+11 -5.658698e+10 4.424052e+08
1.097609e+11 -5.037145e+10 -1.695182e+09
-6.081420e+10 -1.036744e+11 -6.772901e+08
6.132060e+10 -1.017824e+11 2.462440e+08
-8.409786e+10 -8.546138e+10 1.032638e+08
8.406310e+10 -8.599005e+10 7.656697e+08
1.181945e+11 -1.973507e+10 -5.259220e+07
1.166281e+11 2.568276e+10 -7.345595e+08
-8.795091e+10 -8.195676e+10 -2.040045e+08
-1.072890e+11 5.059957e+10 3.110295e+08
-1.553205e+10 1.154307e+11 1.671212e+07
7.478111e+10 9.217453e+10 3.070315e+08
-5.599441e+10 1.027800e+11 1.527402e+08
-1.168346e+11 -1.473455e+10 -4.050168e+08
-4.292499e+10 1.118309e+11 -1.053202e+09
4.845367e+10 1.071305e+11 -2.206226e+08
-6.537280e+10 9.922033e+10 -3.252951e+08
-1.132462e+11 2.798421e+10 4.799912e+07
3.187054e+10 -1.151470e+11 -1.349366e+09
-8.640534e+10 -8.156287e+10 -3.322848e+08
-1.058899e+11 6.380141e+10 2.695113e+09
-1.089140e+11 5.359741e+10 2.188263e+09
-9.529068e+10 7.790780e+10 -3.477622e+08
-1.222100e+11 1.561242e+10 3.003660e+08
-1.459339e+10 1.200043e+11 -7.083169e+07
7.805281e+10 9.297072e+10 2.179177e+09
1.171975e+11 3.936192e+10 2.564798e+09
8.726634e+10 8.763563e+10 2.686948e+09
6.677697e+10 1.036312e+11 6.885241e+08
5.055218e+10 1.114651e+11 -8.726819e+08
-8.367070e+10 -8.172096e+10 -1.446877e+08
-1.162132e+11 4.234149e+10 2.715747e+09
-1.207034e+11 -1.493154e+10 -8.634830e+08
-6.120277e+10 1.076942e+11 4.517294e+08
-4.349392e+10 1.138902e+11 -7.969895e+08
-6.822579e+10 1.003918e+11 -2.183021e+09
-1.236215e+11 3.360759e+08 2.681496e+09
-1.172480e+11 3.026322e+10 6.976047e+07
-1.184387e+11 -3.007655e+10 2.152927e+09
1.062867e+11 -4.997641e+10 -3.818356e+08
1.019999e+11 -6.481923e+10 -1.804307e+09
-8.332566e+10 -8.315937e+10 5.346422e+06
-1.022263e+11 -6.522508e+10 -1.775478e+09
6.669516e+10 -9.735169e+10 -2.790684e+08
-9.225771e+10 7.297473e+10 1.582237e+09
-1.173876e+11 1.606093e+10 -4.495855e+08
1.123168e+11 4.045781e+10 1.801281e+09
-1.195959e+11 -2.790164e+09 9.550508e+08
6.314339e+10 9.936951e+10 3.914778e+08
8.215733e+10 8.675718e+10 1.149498e+09
-1.133759e+11 3.800385e+10 9.174716e+08
-1.042174e+11 5.913415e+10 9.169128e+08
-8.576222e+10 -8.277695e+10 -1.016485e+08
-1.155786e+11 -2.949361e+10 4.779768e+08
-6.618313e+10 -1.013934e+11 -2.218356e+09
-1.023731e+11 -6.066665e+10 -2.790005e+09
1.065254e+11 -5.611690e+10 3.573489e+08
-5.355989e+10 -1.066917e+11 -4.939333e+08
5.261112e+10 -1.045412e+11 -7.070416e+08
-8.855168e+10 -8.592852e+10 -1.776533e+08
8.854556e+10 -8.515969e+10 -3.371793e+08
1.221089e+11 -1.753464e+10 1.846119e+08
1.019392e+11 -6.040751e+10 1.323668e+09
5.357393e+10 -1.089817e+11 7.213842e+07
-8.440850e+10 -8.053905e+10 -7.116706e+07
-4.120096e+10 1.126274e+11 1.270045e+09
-1.400171e+10 -1.213697e+11 1.551706e+09
1.364163e+10 -1.212302e+11 1.233657e+09
5.837556e+10 -1.039298e+11 7.014750e+08
1.106246e+11 3.626725e+10 -2.392469e+08
-3.333021e+10 -1.141808e+11 3.396576e+08
-5.785078e+10 1.064536e+11 -1.432010e+09
-9.543321e+10 7.505479e+10 1.520117e+09
6.428145e+10 1.028287e+11 1.023187e+09
-1.201647e+11 1.765634e+10 -1.545744e+09
-8.215010e+10 -8.519000e+10 5.217920e+07
1.199436e+11 2.648375e+10 -2.697490e+08
1.962877e+10 1.216677e+11 1.620351e+09
3.814522e+10 1.152398e+11 -1.620474e+09
9.483767e+10 7.539733e+10 1.516860e+09
-2.667078e+10 1.182058e+11 -1.510958e+09
-8.012287e+10 9.137585e+10 1.472924e+09
1.097701e+11 5.197440e+10 1.638845e+09
1.026202e+11 6.501562e+10 -6.132346e+08
1.667543e+09 -1.190960e+11 -5.102258e+07
-1.634534e+09 -1.232103e+11 1.121958e+08
-8.327344e+10 -8.468400e+10 4.052360e+08
-8.373393e+10 -8.052896e+10 1.763213e+08
8.375576e+10 -8.061862e+10 7.848914e+07
1.150234e+11 -1.598898e+10 -1.790242e+08
1.036711e+11 -5.144592e+10 1.351682e+08
-5.707491e+10 -1.059806e+11 -1.801146e+09
-7.574336e+10 9.536970e+10 -1.677519e+09
-6.019618e+10 -1.067267e+11 7.154407e+07
1.224204e+11 7.554943e+09 5.436179e+08
-9.649160e+10 -7.570904e+10 -5.248608e+08
9.693514e+10 -7.591686e+10 -2.363932e+08
-8.235158e+10 -8.579763e+10 -6.539567e+08
1.225670e+11 -4.593206e+09 5.573560e+08
-1.145799e+11 -4.564791e+10 9.063833e+08
1.848261e+10 -1.199557e+11 5.667420e+07
-1.826089e+10 -1.192545e+11 6.540581e+07
8.137949e+10 -8.652492e+10 1.518882e+08
1.089215e+10 1.187075e+11 4.351002e+08
7.612032e+10 -9.744173e+10 -9.147689e+08
4.558483e+10 -1.109088e+11 -2.106789e+09
-4.587104e+10 -1.115535e+11 -2.490968e+09
-1.070773e+11 -5.555673e+10 1.366930e+09
-8.439813e+10 -8.669274e+10 1.575723e+09
7.537375e+10 -9.227494e+10 -4.599019e+08
-1.137429e+11 -4.207070e+10 -7.985678e+08
9.802258e+10 -6.785821e+10 2.097032e+09
-9.832216e+10 -6.720031e+10 1.869282e+09
-7.909404e+10 8.965590e+10 -8.209543e+08
9.261799e+10 7.516277e+10 -6.546321e+08
3.777182e+10 1.134404e+11 7.620057e+08
-2.509166e+10 1.167192e+11 6.412664e+08
2.045200e+10 1.185761e+11 5.974130e+08
1.020005e+11 6.362454e+10 -6.225363e+08
-8.134366e+10 -8.673437e+10 6.544969e+08
1.079452e+11 5.131241e+10 -7.771464e+08
-1.232505e+11 1.298902e+10 2.249956e+08
-5.029683e+09 1.244384e+11 -7.058250e+07
-1.213201e+11 -2.705642e+10 -4.552946e+08
1.202402e+11 -1.385985e+09 -1.794590e+09
9.643278e+10 -7.164325e+10 1.806240e+09
-9.650215e+10 -7.176858e+10 1.789197e+09
1.197937e+11 1.048990e+10 -1.786576e+09
-7.683614e+10 9.854196e+10 5.051559e+08
4.644734e+10 -1.108393e+11 2.782082e+09
-8.154072e+10 -8.616389e+10 3.548746e+08
-4.697969e+10 -1.099693e+11 2.835182e+09
-8.072975e+10 -9.121568e+10 5.168112e+08
-5.720276e+10 -1.073976e+11 3.299488e+09
-5.672976e+10 -1.055732e+11 1.365918e+08
1.198816e+11 -3.444995e+09 3.108774e+09
9.449601e+10 -7.264429e+10 -3.283703e+09
-9.500218e+10 -7.322045e+10 -3.113452e+09
1.196169e+11 8.431575e+09 3.110110e+09
-1.062498e+11 -5.729393e+10 -1.815436e+09
9.987790e+10 -6.360333e+10 4.552442e+07
-7.944368e+10 -8.882729e+10 -3.378217e+08
-1.000470e+11 -6.361742e+10 -2.304798e+06
1.156189e+11 -4.017862e+10 2.712517e+09
-1.096368e+11 -5.362877e+10 -5.066344e+08
1.174105e+11 3.615269e+10 1.135721e+09
-4.551841e+10 -1.139294e+11 8.351625e+08
4.545611e+10 -1.133665e+11 5.292833e+08
1.210263e+11 1.774587e+10 -4.616741e+08
1.208873e+11 4.747805e+09 2.334325e+08
9.375441e+10 -7.691095e+10 -6.759003e+08
-9.345050e+10 -7.677560e+10 -2.368673e+08
-8.216393e+10 -8.548807e+10 -9.319205e+08
1.207717e+11 -7.264200e+09 2.479929e+08
1.206561e+11 1.138895e+10 -1.677852e+08
-9.786867e+10 -7.181428e+10 2.415649e+08
9.780031e+10 -7.158616e+10 3.850276e+07
1.211009e+11 -5.700837e+08 -1.129164e+08
-6.547876e+10 -9.943673e+10 1.052342e+09
-5.768161e+10 -1.083051e+11 -6.305810e+08
5.658471e+10 -1.083359e+11 -1.332892e+09
3.932352e+10 -1.151162e+11 -5.754903e+08
-1.027177e+11 -5.849756e+10 4.772041e+08
-7.808852e+10 -8.914798e+10 -3.037925e+08
1.165587e+11 -3.278808e+10 -1.387697e+09
9.025422e+10 -8.143996e+10 2.995094e+08
-9.041013e+10 -8.154745e+10 1.414569e+08
1.210646e+11 -1.289862e+10 -1.445463e+08
-8.252537e+10 -8.912985e+10 1.299120e+09
5.976683e+10 -1.057310e+11 3.326573e+08
-1.174801e+11 -3.867275e+10 -2.211146e+09
1.194810e+11 2.463392e+10 4.545865e+08
-8.424902e+10 8.645397e+10 -2.879755e+08
1.141463e+11 2.992125e+10 -1.365820e+09
5.383166e+10 -1.091615e+11 -2.074750e+08
-7.992096e+10 -8.738244e+10 8.951638e+08
1.115397e+11 -4.021400e+10 -1.473526e+08
-3.759691e+10 -1.152111e+11 2.231696e+09
-5.411956e+10 -1.082772e+11 1.544496e+09
5.496043e+10 -1.065709e+11 1.710473e+09
-1.129935e+11 -4.714046e+10 -1.513581e+09
-2.883360e+10 -1.145150e+11 -4.311819e+08
2.879669e+10 -1.141406e+11 -5.696508e+08
1.113474e+11 -3.920568e+10 -1.558000e+09
1.142122e+11 -4.248861e+10 3.442103e+09
-7.634081e+09 -1.198933e+11 -9.663077e+08
-7.664667e+10 -8.821250e+10 -8.905532e+08
8.338869e+09 -1.186300e+11 -1.345845e+09
4.761263e+10 -1.118352e+11 1.304739e+08
-4.757677e+10 -1.095040e+11 5.395805e+08
-1.142684e+11 -4.471388e+10 1.755603e+09
-9.505260e+10 -7.090578e+10 3.606402e+08
9.577876e+10 -7.181632e+10 4.792472e+08
1.081633e+11 6.083152e+10 -2.120331e+09
1.005801e+11 7.282875e+10 -2.262823e+09
1.141729e+11 4.806333e+10 -1.990906e+09
-1.015865e+11 -6.507212e+10 1.879433e+09
-7.877557e+10 -8.798433e+10 9.004835e+08
1.007330e+11 -6.454130e+10 1.735365e+09
1.169764e+11 -1.900345e+10 -5.448729e+07
8.506862e+10 -8.494854e+10 -1.535222e+09
-8.358248e+10 -8.411141e+10 4.865738e+07
1.183985e+11 -1.737119e+10 -3.394369e+08
8.555717e+10 -8.344809e+10 3.028050e+08
-8.561672e+10 -8.355487e+10 3.250195e+08
1.108125e+11 -4.989180e+10 3.183671e+09
7.339188e+10 -9.749955e+10 -1.031453e+09
7.523062e+10 -9.634537e+10 1.618558e+09
-7.681052e+10 -9.246359e+10 -1.149251e+09
-7.461681e+10 -9.686510e+10 -9.003260e+07
-7.372330e+10 -9.623446e+10 -4.975592e+08
-2.603761e+10 -1.173440e+11 -5.042234e+08
2.611175e+10 -1.164838e+11 2.237860e+07
-3.747604e+10 -1.132644e+11 -8.035142e+08
1.282007e+10 -1.193020e+11 -4.894099e+08
-1.286036e+10 -1.189641e+11 -1.954176e+08
1.184345e+11 2.925704e+10 9.031140e+08
-1.130231e+11 -3.532420e+10 -2.314473e+08
1.217045e+11 -1.699624e+10 -2.222666e+09
-7.912260e+10 -8.813141e+10 -1.020143e+07
-8.849202e+10 -8.523822e+10 2.232152e+09
8.872478e+10 -8.537098e+10 2.164095e+09
-1.112310e+11 -4.527540e+10 -3.023195e+09
6.921257e+09 -1.233794e+11 1.676732e+08
-6.823390e+09 -1.225287e+11 3.184723e+08
4.102037e+10 -1.174254e+11 3.829211e+08
-3.980538e+10 -1.141815e+11 3.591394e+08
1.012494e+11 -6.656362e+10 -1.663477e+09
-1.011043e+11 -6.765226e+10 -6.096392e+08
-1.091959e+11 -5.034843e+10 1.557961e+09
-7.413073e+10 -9.182035e+10 -2.304385e+08
-1.108238e+11 -3.917639e+10 2.672594e+08
7.911332e+10 -9.565565e+10 -8.972415e+08
1.181253e+11 -6.742418e+09 -6.123513e+08
-9.163609e+10 -7.481147e+10 6.096078e+08
9.201580e+10 -7.496930e+10 9.344685e+08
1.182216e+11 4.982317e+09 -6.093830e+08
1.191434e+11 1.963894e+10 1.061036e+09
1.185769e+11 1.313256e+10 1.406302e+09
-9.757767e+10 -6.935817e+10 -2.336839e+08
9.734554e+10 -6.832696e+10 -3.500675e+08
-7.771573e+10 -9.058508e+10 3.122681e+08
1.202640e+11 1.435393e+09 1.253749e+09
8.990785e+10 -7.824270e+10 -1.359023e+09
-9.074246e+10 -7.885657e+10 -1.232736e+09
1.197627e+11 -1.051282e+10 1.238180e+09
1.131570e+11 -3.011155e+10 -9.795521e+08
1.181501e+11 -3.701620e+10 -1.036732e+09
7.703851e+10 -8.911791e+10 6.648745e+08
-1.179821e+11 -2.510073e+10 1.274316e+09
-1.031397e+11 6.464311e+10 1.408337e+09
-1.207858e+11 1.142392e+10 -1.394587e+09
-7.550225e+10 -9.368303e+10 -1.276675e+09
-9.227667e+10 7.932070e+10 1.790587e+09
-1.137187e+11 4.364544e+10 1.473856e+09
6.847194e+10 9.945217e+10 2.074807e+09
8.871522e+10 8.545514e+10 1.197955e+09
1.167192e+11 3.652544e+10 1.259958e+09
-1.217464e+11 2.418414e+09 1.442674e+09
-3.245521e+10 -1.186218e+11 -1.832629e+09
3.166192e+10 1.140957e+11 1.279924e+08
1.394861e+10 1.180832e+11 4.965827e+08
-3.147212e+10 1.141806e+11 1.310804e+08
-7.716838e+10 -9.060661e+10 2.745457e+08
-7.391870e+10 9.339962e+10 3.109067e+08
1.159205e+11 3.533730e+10 1.306927e+08
-1.363805e+10 -1.187162e+11 1.587313e+09
1.369634e+10 -1.186888e+11 1.581261e+09
6.358663e+10 -9.986886e+10 -9.405580e+08
1.070694e+11 -6.390012e+10 -7.328622e+08
7.695048e+10 -9.127694e+10 -1.765864e+09
1.725279e+10 -1.224423e+11 1.829732e+09
-1.829189e+10 -1.223751e+11 3.003371e+09
1.090656e+11 -5.464150e+10 1.943233e+09
-7.224488e+10 -9.285850e+10 2.964560e+07
8.223859e+10 -9.294793e+10 3.665143e+08
-8.112551e+10 -9.123156e+10 -8.561395e+08
-6.390881e+10 -1.033316e+11 -1.159117e+09
1.189319e+11 -2.527147e+10 2.846048e+08
-1.164587e+11 -3.053175e+10 1.279804e+09
5.475480e+09 1.176171e+11 2.154353e+08
-3.502243e+09 1.175588e+11 5.487698e+08
7.312293e+08 1.178768e+11 1.898712e+08
-8.723762e+10 7.902279e+10 -3.580936e+08
-4.421370e+10 -1.111545e+11 6.914829e+08
5.024468e+10 -1.089611e+11 9.405371e+08
-7.643166e+10 -9.134306e+10 4.097805e+08
4.474083e+10 -1.112668e+11 9.087949e+08
3.871246e+10 -1.137101e+11 -6.292167e+08
5.476516e+10 -1.059253e+11 7.076098e+08
5.676958e+10 -1.033396e+11 -1.886871e+08
-5.630828e+10 -1.069241e+11 -4.253509e+08
-5.938487e+10 -1.064547e+11 -6.830221e+08
-3.818744e+10 -1.125126e+11 -1.573736e+09
-1.172960e+11 3.167906e+10 -4.871727e+08
4.720778e+10 1.101444e+11 4.638354e+08
-1.367259e+10 1.207138e+11 -4.645830e+08
-7.676956e+10 -9.303118e+10 1.923691e+07
-1.187380e+11 -1.745193e+10 4.895014e+08
2.403658e+10 -1.160555e+11 4.539872e+08
-2.438818e+10 -1.162272e+11 6.249872e+08
-2.051591e+10 1.215034e+11 -4.215316e+08
-1.189932e+11 2.502376e+10 -2.819656e+08
-7.203579e+10 -9.515490e+10 2.850487e+09
7.309464e+10 -9.599885e+10 2.575855e+09
-9.918188e+10 6.894421e+10 -1.264079e+08
-1.188875e+11 2.484868e+10 2.139365e+08
5.812284e+10 1.061735e+11 -1.177010e+08
-7.089488e+10 -9.409993e+10 7.181384e+06
-5.159204e+10 1.092501e+11 1.581123e+08
1.194250e+11 -1.459863e+10 1.756173e+09
-8.805393e+10 -8.196814e+10 -1.741341e+09
8.801035e+10 -8.173604e+10 -1.489548e+09
1.190770e+11 -1.602272e+10 1.260332e+09
8.707061e+10 -8.281697e+10 -1.504350e+09
-8.700713e+10 -8.294668e+10 -1.261606e+09
-7.513608e+10 9.275775e+10 -3.526125e+09
-9.779088e+10 -6.744081e+10 1.476005e+09
9.708588e+10 -6.757012e+10 9.043119e+08
-7.361971e+10 -9.171966e+10 -1.505865e+08
-1.015415e+11 6.266096e+10 6.599865e+08
-1.116626e+11 4.203249e+10 6.732070e+08
-1.176058e+11 -1.094154e+10 7.343949e+08
-9.016051e+10 7.648616e+10 1.288511e+08
5.217820e+10 1.059443e+11 4.741403e+08
6.745632e+10 9.841920e+10 6.438490e+08
8.144599e+09 1.170740e+11 -1.081714e+09
8.375496e+10 8.376114e+10 -9.929532e+06
8.249124e+08 1.183798e+11 -3.831245e+08
4.134916e+09 1.183148e+11 -4.798125e+08
-7.095200e+10 -9.556673e+10 5.757099e+08