# vtk DataFile Version 2.0
Electric current density generated by TTH
ASCII
DATASET UNSTRUCTURED_GRID
POINTS 2045 double
-2.332155e-05 -3.467278e-06 -4.000103e-22
6.901264e-07 2.332352e-05 -8.590084e-07
-2.039001e-05 -1.136791e-05 -8.407640e-07
-5.655193e-06 1.951715e-05 1.653050e-07
1.022148e-05 -2.098208e-05 8.498141e-07
7.492488e-06 2.210405e-05 8.498083e-07
1.367570e-05 -1.502007e-05 7.388483e-08
-1.956229e-05 5.645424e-06 3.972162e-07
-8.623102e-06 2.162736e-05 -9.360097e-07
1.942849e-05 1.283770e-05 9.307017e-07
-1.188979e-05 1.685004e-05 -9.587411e-07
-2.315465e-05 -4.447352e-06 -4.000103e-22
-2.822918e-06 2.213204e-05 -1.591484e-06
-2.328158e-05 -1.252162e-06 -8.882307e-07
7.657704e-07 2.186002e-05 -1.631609e-06
-1.323945e-05 -1.919704e-05 8.812612e-07
-2.314116e-05 2.750413e-06 9.052698e-07
1.181574e-05 -1.844063e-05 1.632589e-06
-2.317213e-05 2.947177e-06 -8.170896e-07
-1.796125e-05 -1.180226e-05 -1.569122e-06
-2.227850e-05 6.895628e-06 8.788545e-07
-3.426539e-06 -2.192725e-05 1.614127e-06
-2.294658e-05 -5.419518e-06 -4.000103e-22
-7.097968e-06 2.220632e-05 -8.914671e-07
-1.057075e-05 -1.742656e-05 -4.744624e-07
-1.471385e-05 -1.812491e-05 8.397692e-07
2.211888e-05 -2.022731e-06 -1.611284e-06
-9.209997e-06 -1.983860e-05 1.631556e-06
-2.261019e-05 5.773461e-06 8.558618e-07
-8.915590e-06 2.009037e-05 -1.632790e-06
-1.230893e-05 -1.779753e-05 1.604364e-06
3.475976e-06 2.007232e-05 4.368709e-07
-1.346093e-05 1.776462e-05 -1.596568e-06
-2.269772e-05 -6.382049e-06 -4.000103e-22
-1.016026e-05 1.975737e-05 1.610349e-06
-2.060390e-05 8.944491e-06 -1.549208e-06
-1.135522e-05 -1.704381e-05 -7.224582e-07
2.090805e-05 6.837940e-06 -1.632303e-06
1.493297e-05 -1.593121e-05 -1.629522e-06
-2.146311e-05 -4.013223e-06 -1.629482e-06
-2.281844e-05 -4.863368e-06 8.634702e-07
1.290066e-05 1.631296e-05 -1.162461e-06
-2.159699e-05 3.575328e-06 1.632280e-06
-2.209587e-05 -2.788441e-06 -1.600217e-06
-2.240849e-05 -7.333232e-06 -4.000103e-22
-1.153442e-05 2.030647e-05 -8.258288e-07
1.026546e-05 2.096983e-05 -8.360536e-07
-2.081238e-05 1.054023e-05 -8.662929e-07
-1.640896e-05 1.505533e-05 1.600610e-06
-1.973397e-05 6.542117e-06 1.155036e-06
1.366734e-05 1.505977e-05 2.870260e-07
2.293793e-05 4.405725e-06 -8.198343e-07
-1.930342e-06 2.322648e-05 9.014699e-07
2.100745e-05 1.013869e-05 -8.712562e-07
-1.895843e-05 7.332998e-06 2.254995e-07
-2.207943e-05 -8.271377e-06 -4.000103e-22
-1.661153e-05 -1.631412e-05 -9.362310e-07
-1.240003e-05 -1.980818e-05 -7.986062e-07
9.017740e-07 -2.331705e-05 8.577932e-07
1.579111e-05 -1.296121e-05 6.086088e-07
2.041016e-05 -1.004792e-05 -1.421171e-06
5.488271e-06 -2.171861e-05 -1.568040e-06
2.140862e-05 -9.295203e-06 8.496930e-07
4.937636e-06 1.970331e-05 -5.749516e-08
1.900890e-05 -1.351675e-05 -8.734696e-07
-1.993415e-05 -4.421124e-06 5.813720e-07
-2.171111e-05 -9.194816e-06 -4.000103e-22
-1.473004e-05 1.470160e-05 1.175858e-06
1.197167e-05 -2.007839e-05 -7.855779e-07
1.560849e-05 1.729902e-05 9.115831e-07
-3.693800e-06 -2.141724e-05 -1.619441e-06
2.017750e-05 -9.463188e-06 1.597026e-06
9.012085e-06 -2.032754e-05 1.607035e-06
-1.770375e-05 1.367309e-05 1.577069e-06
-1.890894e-05 8.516819e-06 -1.100993e-06
2.142688e-05 -3.971354e-06 -1.625991e-06
-1.850926e-05 1.273205e-05 1.547915e-06
-2.130419e-05 -1.010191e-05 -4.000103e-22
1.748616e-05 1.106637e-05 1.049874e-06
-1.648675e-05 -1.437081e-05 1.631493e-06
-1.581841e-05 -1.505186e-05 1.629496e-06
-7.014031e-06 1.950431e-05 1.088461e-06
6.834120e-06 -2.096515e-05 -1.629710e-06
-3.273697e-06 -2.066471e-05 1.273618e-06
2.289874e-05 -4.544415e-06 -8.399810e-07
1.885682e-06 2.325107e-05 8.691498e-07
8.710526e-06 2.109408e-05 -1.377682e-06
-2.227630e-05 -4.554831e-07 1.598181e-06
-2.085939e-05 -1.099104e-05 -4.000103e-22
1.978696e-05 -4.592799e-06 6.849236e-08
8.761680e-07 2.332211e-05 8.511450e-07
-2.228465e-05 -1.039574e-06 -1.592049e-06
-1.531058e-05 1.757044e-05 9.034524e-07
2.125249e-05 7.657292e-07 -1.485580e-06
-1.763937e-05 -1.293484e-05 1.631620e-06
-1.811194e-05 -1.224827e-05 1.631201e-06
2.185659e-05 -5.036697e-06 1.559585e-06
1.491930e-05 -1.683399e-05 1.538117e-06
1.776721e-05 1.351153e-05 1.589184e-06
-2.037750e-05 -1.186063e-05 -4.000103e-22
-1.947497e-05 -9.925454e-06 1.630882e-06
-1.910653e-05 -1.060009e-05 1.630415e-06
-4.704197e-06 1.982970e-05 -4.680189e-07
2.038725e-05 8.428013e-06 -1.629048e-06
1.454350e-05 -1.424214e-05 3.768696e-07
-2.220273e-05 2.460784e-06 -1.584937e-06
4.593227e-06 -1.980898e-05 -2.730155e-07
-5.827582e-06 -2.140849e-05 1.615023e-06
2.029765e-05 7.515981e-07 0.000000e+00
2.103481e-05 6.037073e-06 -1.632036e-06
-1.985938e-05 -1.270913e-05 -4.000103e-22
-4.863815e-06 2.038270e-05 -1.299092e-06
-2.312698e-05 -3.011926e-06 8.772473e-07
2.177371e-05 -5.117400e-06 -1.577631e-06
-1.133356e-05 1.866453e-05 1.629548e-06
8.387252e-06 -1.853218e-05 -3.126996e-07
2.250002e-05 6.326460e-06 -7.928559e-07
-1.767803e-05 -1.373229e-05 -1.572698e-06
-1.363354e-05 -1.676870e-05 1.598838e-06
1.607191e-05 -1.689544e-05 -8.828296e-07
1.925911e-05 -7.744199e-06 1.121793e-06
-1.930595e-05 -1.353503e-05 -4.000103e-22
1.786462e-05 1.504300e-05 8.243434e-07
-4.289908e-06 2.302656e-05 -6.947219e-07
-1.067739e-05 -2.079273e-05 7.901633e-07
-4.821551e-06 -2.281273e-05 8.859673e-07
2.125575e-05 -8.402315e-07 1.488336e-06
-1.122283e-05 1.713639e-05 7.310776e-07
1.672948e-05 -1.163806e-05 4.658277e-07
1.966029e-05 -6.589954e-06 -1.097561e-06
-1.846414e-05 9.596464e-06 1.173663e-06
-7.839531e-07 2.253675e-05 -1.516712e-06
-1.871820e-05 -1.433687e-05 -4.000103e-22
-1.203625e-05 1.958839e-05 1.254187e-06
-1.484601e-05 1.386451e-05 -7.473110e-08
7.867376e-06 -1.936320e-05 1.255681e-06
-2.120254e-05 -7.020270e-06 1.585960e-06
2.069137e-05 -1.090251e-05 7.643673e-07
-2.163065e-05 -8.778330e-06 -8.421105e-07
-1.771158e-05 1.305362e-05 -1.632154e-06
1.329078e-05 -1.818234e-05 1.527721e-06
-1.313890e-05 1.899535e-05 1.157737e-06
-7.551049e-06 -2.083738e-05 1.618464e-06
-1.809717e-05 -1.511322e-05 -4.000103e-22
-2.171947e-05 2.829106e-06 1.632631e-06
-1.041643e-05 1.972163e-05 -1.593277e-06
2.225241e-05 6.977022e-06 8.799495e-07
1.923882e-05 8.279652e-06 1.291275e-06
1.527601e-05 -1.765267e-05 -8.410626e-07
6.691186e-06 2.039985e-05 -1.562399e-06
-2.326801e-05 1.258294e-06 -9.083071e-07
-1.334647e-05 1.609958e-05 1.265447e-06
-6.005678e-06 -1.942721e-05 -2.717059e-07
-6.942367e-06 2.114033e-05 1.604177e-06
-1.744396e-05 -1.586270e-05 -4.000103e-22
-1.551124e-05 -1.466007e-05 -1.518205e-06
2.129237e-06 2.224677e-05 1.582482e-06
-6.347391e-06 -2.140029e-05 -1.589044e-06
1.821520e-05 9.094202e-06 3.916964e-07
1.884433e-05 7.873354e-06 -5.929182e-07
1.875984e-05 1.213347e-05 1.584178e-06
-1.996124e-05 -5.878178e-06 1.173367e-06
-2.060792e-05 -8.647843e-06 1.582372e-06
1.766607e-05 1.369815e-05 -1.580888e-06
1.614167e-06 -2.057412e-05 9.787634e-07
-1.675973e-05 -1.658397e-05 -4.000103e-22
-7.953466e-06 -2.086152e-05 -1.587981e-06
1.112160e-05 2.057819e-05 7.581023e-07
-2.033258e-05 9.580851e-07 -3.747869e-07
1.926347e-05 1.113261e-05 1.604578e-06
8.907706e-06 -1.864338e-05 1.011007e-06
-1.238725e-05 -1.620727e-05 -5.272470e-07
-2.300565e-06 2.224450e-05 1.578655e-06
5.246117e-06 -2.159138e-05 1.609872e-06
2.015017e-05 -1.182611e-05 8.076475e-07
-7.511648e-06 2.065695e-05 -1.632778e-06
-1.604571e-05 -1.727576e-05 -4.000103e-22
2.323504e-05 2.250162e-06 8.426026e-07
2.186843e-05 4.748299e-06 -1.574646e-06
1.840723e-06 -2.220210e-05 1.598741e-06
1.513073e-05 1.782517e-05 -7.772091e-07
-7.040967e-06 -1.929664e-05 8.348528e-07
-1.619353e-05 1.573707e-05 -1.504271e-06
1.741503e-05 -1.400868e-05 -1.582059e-06
8.380324e-06 -2.182381e-05 7.837808e-07
-6.028350e-06 2.257943e-05 -7.968248e-07
-1.280445e-05 -1.609718e-05 8.797147e-07
-1.530316e-05 -1.793684e-05 -4.000103e-22
1.644383e-05 1.537816e-05 1.530677e-06
1.585714e-06 2.182959e-05 -1.632149e-06
1.124036e-05 -1.875321e-05 -1.631163e-06
1.793724e-05 -1.258353e-05 -1.632817e-06
2.186873e-05 -8.288990e-06 -7.663301e-07
9.509959e-06 -1.919341e-05 -1.546655e-06
-9.716929e-06 1.783834e-05 -7.273756e-08
1.059535e-05 -1.967818e-05 -1.582254e-06
1.362702e-05 -1.900766e-05 -7.647883e-07
2.095096e-05 -7.853855e-06 1.575557e-06
-1.453340e-05 -1.856602e-05 -4.000103e-22
2.082109e-05 -5.706812e-06 -1.593957e-06
-7.983865e-07 2.330815e-05 8.779756e-07
1.695589e-05 -1.230408e-05 -1.295098e-06
-7.917761e-06 2.199816e-05 7.798068e-07
-2.090274e-05 -7.305633e-06 -1.621128e-06
-2.069814e-06 -2.143618e-05 -1.581163e-06
-4.638342e-06 2.189479e-05 -1.573896e-06
-2.058036e-05 -2.603120e-06 1.107387e-06
-2.131371e-05 6.842187e-06 1.572691e-06
-2.238568e-05 6.763341e-06 -7.698197e-07
-1.373780e-05 -1.916219e-05 -4.000103e-22
-4.950704e-06 -2.137874e-05 1.633166e-06
6.674075e-06 2.239488e-05 -8.005544e-07
4.114571e-06 -2.254155e-05 -1.314438e-06
-1.903657e-05 -1.042562e-05 -1.615400e-06
-1.827061e-05 -1.461540e-05 -7.468478e-07
-6.338351e-06 -2.057052e-05 1.578280e-06
-1.387170e-05 -1.582644e-05 -1.363115e-06
-1.427015e-05 -1.523592e-05 1.234167e-06
-1.977551e-05 -8.006419e-06 1.515000e-06
1.380036e-05 -1.760963e-05 -1.576024e-06
-1.291778e-05 -1.972430e-05 -4.000103e-22
2.109549e-05 -2.449399e-06 -1.471957e-06
-4.509954e-07 2.237438e-05 1.574389e-06
-4.623152e-06 -2.049251e-05 1.337500e-06
1.664641e-06 2.030492e-05 4.438921e-07
1.095036e-05 1.718656e-05 4.632233e-07
-1.067877e-05 -1.969991e-05 1.566051e-06
-1.976407e-05 -4.720720e-06 -1.661610e-07
2.119654e-05 8.018304e-07 1.459423e-06
-2.019382e-05 3.379277e-06 7.113359e-07
-1.807991e-05 -1.057200e-05 1.290634e-06
-1.207479e-05 -2.025133e-05 -4.000103e-22
-1.402960e-05 -1.872265e-05 -7.492483e-07
-2.019695e-06 2.328772e-05 -7.881341e-07
-2.051630e-05 -8.003213e-06 -1.631335e-06
1.380284e-05 1.619034e-05 1.489738e-06
4.923304e-07 2.237209e-05 1.574779e-06
-2.073366e-05 4.622060e-06 -1.474536e-06
-8.274257e-06 1.856755e-05 2.294030e-07
1.890454e-05 1.367478e-05 8.618333e-07
2.029957e-05 -6.975934e-07 0.000000e+00
1.816041e-05 1.134044e-05 -1.543290e-06
[...]
POINT_DATA 2045
VECTORS 10.000GHz_fone_imag double
-1.252351e+09 1.622912e+10 -3.549042e+08
2.211156e+10 -2.585836e+09 5.436513e+08
-1.296674e+10 2.207511e+10 1.603804e+09
3.881841e+10 1.158235e+10 1.996611e+08
-2.522952e+10 -1.300737e+10 -6.159013e+07
2.067377e+10 -8.469466e+09 2.272526e+09
-2.389450e+10 -2.461402e+10 1.436466e+09
7.245509e+09 3.427323e+10 -2.607191e+09
2.007131e+10 5.576744e+09 5.626009e+08
1.359803e+10 -1.812633e+10 2.817822e+09
2.887005e+10 1.936271e+10 9.367260e+08
-2.263323e+09 2.059295e+10 1.756871e+09
3.567815e+10 7.905846e+09 4.382164e+08
-3.542126e+09 2.108077e+10 2.251950e+08
4.115345e+10 -8.900776e+08 5.651991e+08
-2.046776e+10 1.395458e+10 5.084831e+08
4.746778e+09 3.314071e+10 6.223979e+08
-2.942632e+10 -1.759038e+10 -6.161032e+08
4.897591e+09 2.756746e+10 -1.717060e+09
-2.006943e+10 2.943577e+10 -2.760115e+08
6.450499e+09 2.105623e+10 2.624982e+08
-2.695493e+10 5.856259e+09 -2.217297e+09
-5.711500e+09 2.377068e+10 6.817805e+08
2.038811e+10 5.297635e+09 -2.497162e+08
-2.995873e+10 1.396654e+10 1.386655e+09
-1.550731e+10 1.375486e+10 2.568216e+09
-1.643406e+09 -2.411206e+10 1.156064e+09
-2.376380e+10 1.282515e+10 -2.618656e+09
5.488611e+09 1.851551e+10 -2.533601e+08
3.617685e+10 1.618833e+10 5.717171e+08
-2.877225e+10 1.679030e+10 5.075580e+08
4.437149e+10 -7.370914e+09 -3.167014e+09
2.261769e+10 1.492711e+10 2.099995e+09
-5.438706e+09 2.176723e+10 -7.405448e+08
2.727619e+10 1.491063e+10 -2.431508e+09
8.774552e+09 2.246309e+10 -1.853560e+08
-3.074491e+10 2.354097e+10 -9.501384e+08
8.917967e+09 -2.722398e+10 -1.980333e+09
-2.211414e+10 -2.051642e+10 -1.200152e+09
-3.859584e+09 3.060701e+10 -2.446312e+08
-1.250423e+09 2.042542e+10 1.957422e+09
2.603874e+10 -2.048315e+10 8.316774e+08
9.841491e+08 2.822648e+10 -1.082602e+09
-3.246346e+09 2.715679e+10 4.080234e+09
-9.553455e+09 2.705878e+10 -5.397274e+08
2.201122e+10 1.203284e+10 2.031292e+08
2.559464e+10 -1.218224e+10 1.168168e+09
1.144435e+10 1.932531e+10 -6.580598e+08
1.304757e+10 1.652583e+10 5.357176e+07
1.021863e+10 2.843590e+10 8.628540e+07
2.515445e+10 -2.091281e+10 1.534671e+09
3.090777e+09 -2.246805e+10 -1.600890e+09
2.111665e+10 3.120818e+09 -4.148778e+08
7.335434e+09 -1.612297e+10 6.111936e+07
1.374290e+10 3.220625e+10 -1.817922e+09
-9.544868e+09 2.152634e+10 -1.410237e+09
-1.436244e+10 1.332328e+10 -2.645961e+09
-1.994101e+10 1.655683e+10 4.010122e+07
-1.913282e+10 5.990755e+08 -3.232294e+08
-2.176244e+10 -2.311190e+10 1.546487e+09
-1.174039e+10 -1.976110e+10 7.145752e+08
-2.708414e+10 -9.833852e+09 -1.921182e+09
-8.022690e+09 -2.056660e+10 -2.172867e+08
3.656553e+10 -1.059496e+10 1.423041e+08
-1.448330e+10 -1.709288e+10 -1.686695e+08
-1.029918e+10 3.768878e+10 -5.804455e+08
-7.058918e+09 1.613770e+10 1.142594e+09
2.416582e+10 2.578367e+10 -2.073490e+09
-2.545882e+10 -1.508608e+10 -6.294756e+08
1.676133e+10 -1.850167e+10 4.244230e+08
-3.121470e+10 4.755923e+09 -2.570631e+08
-1.331471e+10 -2.618776e+10 -1.291735e+08
-2.751418e+10 -9.312913e+09 1.105582e+09
1.318183e+10 1.939832e+10 -8.486048e+08
1.944255e+10 2.995727e+10 -4.630535e+08
-7.576769e+09 -3.163168e+10 -2.795704e+09
1.281084e+10 1.851208e+10 -1.100528e+09
-8.069336e+09 2.158935e+10 1.005717e+09
1.861367e+10 -2.860725e+10 3.718350e+09
-1.858095e+10 2.173105e+10 7.249604e+08
-1.839879e+10 1.934109e+10 -4.235399e+08
4.668134e+10 1.807406e+10 6.823731e+08
-2.471833e+10 -6.342829e+09 1.026450e+09
-2.978524e+10 4.909257e+09 -3.078729e+08
-5.794635e+09 -2.134809e+10 -1.975812e+09
2.700599e+10 9.488650e+08 7.715492e+08
1.729356e+10 -7.435792e+09 6.191594e+08
-3.260782e+09 3.207548e+10 -7.380856e+08
-1.387811e+10 2.622020e+10 -9.188837e+07
-8.460996e+09 -3.856001e+10 1.194694e+09
2.709557e+10 -3.399957e+09 -5.771816e+08
-8.152698e+08 2.548092e+10 -1.617063e+09
1.675187e+10 1.268186e+10 1.785882e+08
4.806032e+09 -2.960871e+10 1.249300e+08
-2.001465e+10 2.948054e+10 1.093578e+09
-2.377473e+10 3.331894e+10 3.666254e+08
-5.359327e+09 -2.813544e+10 9.651576e+08
-2.087618e+10 -2.028061e+10 -3.769910e+09
2.297117e+10 -2.783478e+10 -1.223229e+09
-1.137221e+10 1.585699e+10 3.777434e+07
-1.394705e+10 2.634999e+10 -1.269472e+09
-1.845390e+10 2.882802e+10 -7.800124e+07
3.570087e+10 1.172671e+10 -2.444166e+09
1.085321e+10 -2.571669e+10 -7.617246e+08
-2.589188e+10 -2.591189e+10 -5.617964e+09
2.490290e+09 2.606407e+10 -1.661090e+09
-4.055953e+10 -1.068539e+10 1.793442e+08
-2.496474e+10 7.629217e+09 -2.461489e+09
9.537174e+08 -4.370946e+10 -2.406678e+09
1.144715e+10 -3.352475e+10 -7.852790e+08
-1.022445e+10 1.914020e+10 1.427749e+09
2.985351e+10 9.095260e+09 1.976103e+09
-3.060380e+09 1.953864e+10 -1.040381e+09
-3.737829e+09 -2.643862e+10 3.376713e+09
2.644230e+10 1.470656e+10 3.401352e+09
-3.454610e+10 -1.371118e+10 9.304019e+08
7.580229e+09 -2.748401e+10 8.925053e+07
-1.448387e+10 2.132479e+10 4.618739e+08
-2.992249e+10 2.839192e+10 -1.250933e+09
-2.601821e+10 -2.280919e+10 -9.346360e+08
-1.590308e+10 -3.401858e+10 -2.454678e+09
-1.775500e+10 2.571272e+10 -6.510953e+08
1.620541e+10 -1.418403e+10 -8.980828e+08
2.125203e+10 6.827672e+09 2.111435e+09
-2.181646e+10 7.893216e+09 3.701719e+07
-2.300736e+10 4.904805e+09 2.103370e+09
-8.020662e+08 -2.976959e+10 4.374994e+08
4.469602e+10 3.001431e+10 -1.006871e+09
-2.733942e+10 -3.745073e+10 -5.931794e+08
-1.292677e+10 -3.358827e+10 -7.128737e+08
1.140654e+10 3.116407e+10 -1.114202e+09
2.688028e+10 -1.277878e+09 -2.560702e+09
-1.925995e+10 2.575199e+10 -1.063404e+09
1.961272e+10 1.198645e+10 -1.248850e+09
3.093327e+10 3.254944e+10 9.608409e+08
-2.621931e+10 -1.304021e+10 1.173143e+09
-6.303172e+09 1.999177e+10 -6.601045e+08
-9.389023e+09 -2.169757e+10 2.827005e+08
-9.383451e+09 1.963794e+10 3.461094e+09
1.328560e+10 1.874699e+10 -1.011387e+09
-2.678294e+10 -2.206789e+10 -1.715059e+08
1.843583e+10 1.370743e+10 1.709505e+08
-2.588378e+10 1.050660e+10 2.512730e+09
-1.440337e+10 1.566918e+10 1.333523e+09
3.732217e+09 2.433113e+10 4.733148e+08
3.249197e+10 1.692858e+10 -2.550185e+08
6.677136e+09 -2.041640e+10 2.161072e+09
1.283714e+10 -3.195159e+10 3.603488e+09
-1.955646e+10 -1.344932e+10 2.489178e+09
2.367477e+10 -9.156573e+09 1.216241e+09
1.280987e+09 2.071021e+10 -6.807917e+08
2.543468e+10 1.882596e+10 -7.934340e+08
-2.999349e+10 9.265999e+09 1.294657e+09
2.470174e+10 1.083377e+10 3.070976e+08
-1.513755e+10 1.382560e+10 -1.606872e+09
-1.804790e+10 1.962238e+10 -2.630088e+09
2.142730e+10 -1.442520e+09 8.028401e+08
-2.063465e+10 5.562130e+09 1.172183e+09
1.603923e+10 -3.249428e+10 -8.556614e+08
1.050402e+10 -2.748629e+10 -5.953605e+08
1.434764e+10 -2.238335e+10 3.018347e+09
-1.072150e+10 3.560187e+10 8.830661e+08
-1.086578e+10 2.358816e+10 -3.826894e+08
1.484969e+10 -1.938026e+10 -2.168104e+09
-3.475130e+10 -2.588446e+09 -9.377513e+08
-1.287686e+10 1.240931e+10 9.899177e+07
-3.506318e+10 1.131305e+10 1.243965e+08
1.918425e+10 -1.313628e+10 -1.235852e+08
2.604881e+09 4.689109e+10 1.937694e+09
1.656708e+10 -3.021328e+10 -1.079110e+08
-3.583118e+10 -1.651700e+10 2.359382e+09
-3.124371e+10 1.934317e+10 5.909116e+08
2.340956e+10 4.248380e+09 3.980287e+08
-3.724001e+10 -1.017665e+10 -3.254409e+08
-1.844206e+10 -2.829455e+10 2.012719e+09
3.184253e+10 1.132784e+10 -3.712011e+08
-1.332152e+10 1.411890e+10 2.820887e+09
1.852985e+09 -2.845934e+10 6.958029e+08
6.046131e+09 -2.695054e+10 2.365454e+09
-2.853077e+10 -1.755082e+09 -1.149759e+09
2.553697e+10 -2.056101e+10 2.669285e+09
-3.507903e+10 1.643752e+10 1.726273e+09
1.769302e+10 1.778793e+10 -3.483612e+08
-1.845889e+10 -2.363969e+10 7.453796e+08
-1.891181e+10 -8.513404e+09 4.213437e+08
2.193446e+10 7.186979e+09 -7.409908e+08
-2.566010e+10 2.476808e+10 3.759553e+09
-1.388915e+10 1.103049e+10 -2.167380e+09
1.382302e+10 -1.670380e+10 -1.192567e+07
3.291873e+10 -2.198944e+09 4.112745e+08
-2.648194e+10 -1.694888e+10 -6.780492e+08
-1.722919e+10 -2.142805e+10 -7.647134e+08
-1.042916e+10 -2.938646e+10 2.799811e+08
-3.231923e+10 -1.583406e+10 -2.003484e+08
4.729470e+10 2.560433e+10 1.728313e+09
-2.500029e+10 -9.331679e+09 5.847263e+08
-1.538592e+10 -8.554062e+09 5.094908e+08
-1.373389e+10 -3.335084e+10 5.220509e+08
-1.721523e+10 1.377936e+10 -2.144643e+09
-7.412335e+09 -2.891237e+10 -1.350166e+09
2.720206e+10 2.103574e+09 5.858098e+08
-2.064264e+10 -2.806506e+10 -2.319216e+09
2.363914e+10 7.619837e+09 3.534280e+07
-1.162152e+10 3.285109e+10 1.287087e+09
-3.210134e+10 3.397138e+09 -1.781471e+09
2.903336e+10 5.030030e+09 4.542666e+09
-2.045859e+09 3.112765e+10 -2.087140e+09
6.473635e+09 2.273775e+10 -1.900452e+09
8.557973e+09 1.952742e+10 1.119467e+09
-1.798588e+10 1.129044e+10 -1.827782e+09
-3.372439e+10 8.522410e+09 -6.524297e+07
2.742777e+10 -8.015679e+09 7.493498e+08
-2.723311e+10 -4.026392e+09 4.447116e+08
-1.721401e+10 3.307063e+10 2.406842e+08
-1.652689e+10 1.841778e+10 7.768741e+08
-2.465892e+10 7.865797e+09 -3.833265e+07
-2.666476e+10 2.375141e+10 9.671236e+08
-2.518240e+10 2.200540e+10 -2.119624e+09
-9.431246e+09 3.029733e+10 1.241083e+09
-2.136450e+10 -1.884184e+10 1.332355e+09
-1.744250e+10 1.315659e+10 8.245813e+08
-2.533985e+09 -3.613754e+10 2.039813e+09
2.316242e+10 1.427056e+09 6.012692e+08
-3.553502e+10 8.283220e+09 4.931633e+08
4.245696e+10 -1.938933e+09 9.774136e+08
4.472432e+10 -2.906007e+10 3.357680e+08
-2.316912e+10 1.500532e+10 3.202374e+09
-1.063715e+10 3.889053e+10 -2.343206e+09
5.200888e+09 -2.836941e+10 4.641570e+08
5.359088e+09 3.539088e+10 -2.100413e+09
-1.578379e+10 3.380176e+10 2.412006e+09
-2.670000e+10 1.671107e+10 -4.477629e+08
-1.719775e+10 1.471227e+10 -1.039552e+09
2.676531e+10 3.656907e+09 2.505238e+09
-1.123043e+10 3.648768e+10 -1.422091e+09
2.623574e+10 -2.445251e+10 3.471770e+09
2.506302e+10 -2.439952e+09 -1.361423e+09
5.463992e+09 3.105781e+10 -3.033377e+09
4.892791e+10 2.225718e+10 1.098889e+09
1.122344e+10 -1.861828e+10 -2.113320e+09
-4.956875e+09 -3.462849e+10 -1.633259e+09
2.073284e+10 -3.293152e+10 7.246912e+08
-2.392403e+10 9.054513e+09 -9.809476e+08
-2.929097e+09 -3.058537e+10 -2.368582e+09
-8.951241e+09 -4.113544e+10 9.831191e+08
3.476911e+10 1.319898e+10 -1.174957e+09
1.123898e+10 -2.189301e+10 -1.694521e+08
2.035607e+10 9.667319e+09 4.400916e+08
5.173815e+09 -3.523240e+10 -1.781892e+09
-1.939823e+10 1.758479e+10 2.200519e+08
3.558854e+10 -3.274794e+09 2.638300e+08
3.707926e+10 1.515499e+10 -8.415338e+08
-2.929869e+10 -1.123564e+10 -9.723103e+07
-1.724071e+10 7.360809e+09 1.008716e+09
-1.992202e+10 -2.796492e+09 -1.354626e+09
-2.233590e+10 -3.327021e+10 1.757650e+09
3.132688e+10 1.572878e+10 -3.043411e+09
-1.138845e+10 2.528131e+10 -5.490723e+08
-1.381308e+10 -3.186972e+10 8.648680e+08
-3.114586e+10 -3.321749e+09 -3.588093e+09
7.826820e+09 -3.275163e+10 -3.744423e+08
-2.915018e+10 -3.727517e+10 -6.444849e+08
-1.429840e+10 -2.768991e+10 9.124882e+08
-3.338156e+10 -7.589274e+09 1.030320e+09
-1.642997e+10 1.006916e+10 -7.598225e+07
-3.590286e+10 -3.727698e+09 3.190546e+09
2.200729e+10 -8.679382e+09 -4.271174e+08
-2.349358e+10 2.827700e+09 1.699872e+08
-2.333035e+10 -4.112892e+10 -6.161993e+08
-3.034622e+10 -4.419867e+09 3.132260e+08
1.615921e+10 2.904107e+10 -2.953617e+08
-2.207345e+10 -1.569932e+10 3.840191e+08
-4.096695e+10 -6.960164e+09 -9.702539e+08
8.530532e+09 3.212065e+10 -3.627820e+08
-4.428554e+10 -1.037073e+09 1.487200e+09
-2.145199e+10 8.512207e+09 -5.366842e+08
-2.578491e+10 1.751490e+09 1.984824e+09
1.675253e+10 1.424911e+10 -2.044184e+09
-2.176619e+10 1.535787e+10 -5.861898e+08
3.280192e+10 1.290382e+09 -1.859331e+09
2.951008e+10 1.264319e+10 -3.105183e+08
1.961992e+10 -2.346498e+10 1.466962e+09
-1.051792e+10 2.482423e+10 -1.524377e+09
1.883406e+10 2.648979e+10 -5.708272e+08
-1.962309e+10 1.297862e+10 1.735109e+07
-1.274998e+10 -3.828303e+10 2.431613e+08
-2.029416e+10 4.626872e+09 -2.642852e+09
1.202513e+10 -1.484882e+10 -9.302333e+08
-2.310485e+10 -4.622862e+10 -1.251519e+09
3.265539e+10 1.201518e+10 8.571416e+07
1.722085e+10 1.545650e+10 -9.022368e+08
-1.544683e+10 -2.490988e+10 -3.727246e+09
2.541011e+10 -1.437575e+10 -2.642376e+09
-1.954057e+10 1.693702e+10 -2.257569e+09
-2.279377e+10 -3.204310e+10 -1.921008e+09
1.009584e+10 -3.058107e+10 -3.288244e+08
4.889771e+10 1.404744e+10 -1.756656e+09
-1.818837e+10 4.900816e+09 9.152342e+07
-2.974471e+10 1.688567e+10 -1.600046e+09
-2.219532e+09 3.130521e+10 -4.516548e+08
-1.616544e+10 2.855165e+10 -1.355396e+09
-1.034322e+09 -2.316397e+10 -1.228756e+09
2.532900e+10 7.280399e+09 -7.486415e+08
1.805681e+10 -1.951326e+10 -5.565463e+08
2.121355e+10 -5.123925e+09 -3.388772e+08
1.818711e+10 -2.150826e+10 1.821646e+09
-2.869685e+09 2.852293e+10 7.689678e+08
5.897990e+09 -2.923890e+10 -2.990967e+08
-1.748476e+10 5.723857e+09 -3.083237e+08
-2.503722e+10 2.630943e+10 -1.438166e+08
2.909955e+10 2.048384e+10 -1.847568e+09
-2.086999e+10 2.483509e+10 7.971801e+07
1.077411e+10 -4.509331e+10 9.685480e+08
-2.318160e+10 -5.858568e+09 -1.071025e+09
3.562015e+10 1.865927e+10 1.653158e+09
2.849555e+10 -1.485828e+10 2.636628e+07
2.875900e+10 -6.442798e+09 6.527293e+08
-3.099888e+10 -3.460467e+10 5.437043e+08
1.599962e+10 1.536628e+10 -5.917738e+08
-1.826487e+10 2.734312e+09 3.857032e+08
-2.060976e+10 -1.917853e+10 3.676629e+09
3.731582e+09 2.704498e+10 -7.844167e+08
-3.938078e+10 -4.259944e+09 5.676514e+08
-3.321594e+10 -9.939516e+09 1.241980e+09
2.525619e+10 2.043375e+10 -3.108911e+08
1.684927e+10 -1.070747e+10 -6.493196e+08
-1.866598e+09 1.842488e+10 -1.507237e+09
3.300284e+10 -1.568961e+10 -3.774851e+08
1.989427e+10 -2.543029e+10 1.875385e+09
3.766766e+10 -1.205841e+08 -2.279585e+09
-2.234276e+10 5.729808e+09 8.102307e+08
-3.918423e+10 -2.013971e+10 7.458792e+08
2.575459e+09 -2.606778e+10 2.895900e+09
-2.052146e+10 5.951627e+09 -2.881753e+09
-1.333307e+10 4.657141e+10 1.768734e+08
-3.293562e+10 -1.337182e+10 -9.506146e+08
3.782937e+10 -1.382114e+09 3.268698e+08
4.375722e+10 9.629260e+09 -2.243284e+09
-1.260070e+10 -2.082802e+10 -1.058568e+09
8.089612e+09 2.478821e+10 3.977591e+09
-1.999963e+10 2.857619e+10 -2.188241e+09
-3.209893e+10 3.568289e+09 1.565346e+09
3.820069e+10 1.889284e+10 2.960599e+09
-2.412361e+10 8.113519e+09 -2.916873e+09
-1.207493e+10 -2.059589e+10 1.131708e+09
2.988454e+10 1.025709e+10 -9.190941e+08
-2.712360e+10 1.469341e+10 2.251522e+09
-2.000913e+10 -1.805610e+10 1.378163e+09
1.942505e+10 -8.778337e+09 -1.676755e+09
4.557812e+09 2.422414e+10 1.559088e+09
-2.921198e+10 -1.026371e+10 1.662208e+09
3.154856e+10 -7.218023e+09 1.882999e+09
-2.241188e+10 -1.086239e+09 2.368743e+08
-8.328116e+09 -2.415367e+10 -4.342406e+08
-3.138037e+10 -1.791604e+10 1.544553e+09
-1.146440e+10 -2.224202e+10 2.130221e+09
-1.839310e+10 -3.192386e+10 6.196167e+07
-2.180193e+10 -1.342609e+10 8.277497e+08
-3.085311e+09 -2.709017e+10 -1.596644e+09
1.054084e+10 3.232030e+10 2.164538e+09
-2.776471e+10 -1.698211e+10 -1.605528e+09
3.120526e+10 -9.018832e+09 2.573098e+08
1.821108e+10 -9.829309e+09 -8.902830e+08
-1.895561e+10 2.939176e+08 -1.657021e+08
2.498427e+10 -7.207354e+09 7.063231e+08
-4.418083e+09 -2.545768e+10 -6.099810e+08
3.697151e+10 -9.906298e+09 -3.174965e+09
-2.070212e+09 -2.397732e+10 -1.726826e+08
2.400656e+09 -2.224893e+10 1.748531e+08
1.159591e+10 2.131105e+10 -1.525321e+08
2.224238e+10 1.670925e+10 -3.507490e+09
9.461334e+09 -4.120006e+10 -4.363800e+08
3.216469e+10 4.436802e+09 1.029398e+09
-1.925583e+09 3.582086e+10 -7.503178e+08
-2.325155e+10 1.366023e+09 2.387018e+08
-2.131151e+10 2.294235e+10 1.125889e+09
5.396953e+09 -5.133184e+10 4.278190e+08
2.627719e+10 1.131947e+10 -2.089401e+08
-1.851265e+10 1.699092e+09 1.485122e+09
9.229163e+09 -2.797744e+10 -4.437099e+09
3.091925e+10 -2.293564e+10 2.118627e+09
-1.176444e+10 -4.776749e+10 -3.519009e+09
3.849580e+10 -2.275318e+10 1.319254e+08
-8.345670e+09 -3.110399e+10 -9.359858e+08
-2.617231e+10 4.885006e+09 2.162206e+09
-2.918785e+10 -1.658199e+09 -2.810929e+09
2.161094e+10 -4.795034e+09 -9.024125e+08
6.493099e+09 2.576276e+10 1.079979e+09
1.085816e+10 1.587667e+10 -9.586339e+08
1.500204e+10 -2.807855e+10 1.805026e+08
-2.596063e+10 3.686031e+10 2.796937e+09
-2.469333e+10 3.503837e+10 1.564220e+09
2.735326e+09 3.844398e+10 -7.007069e+08
-4.182425e+10 -1.204675e+10 -2.395204e+09
2.818173e+10 -1.682883e+10 3.769739e+08
2.912391e+10 -1.017972e+10 2.455761e+08
-2.303284e+10 -1.756772e+09 5.210143e+08
1.922913e+10 -3.120605e+10 -1.805633e+09
3.228933e+10 -3.540844e+09 5.826040e+08
-1.613553e+10 2.799690e+10 -2.199767e+09
3.881873e+10 1.605352e+10 -1.981294e+08
-1.680973e+10 1.834523e+10 2.497045e+09
-1.407408e+10 -1.595031e+10 -1.102723e+09
1.632053e+09 -2.975812e+10 -5.150771e+08
-2.530681e+09 -2.703574e+10 1.031750e+09
1.279061e+10 2.263827e+10 1.641274e+07
-1.525749e+10 -3.469923e+10 3.251575e+09
-2.872229e+10 -3.896925e+09 3.028069e+08
-5.850535e+10 -5.176165e+09 1.805238e+09
1.340137e+10 2.704187e+10 6.831973e+08
2.553562e+10 -1.622611e+10 -1.925504e+09
-1.889929e+10 -2.181459e+10 -1.010437e+09
2.259995e+10 -3.519361e+09 -1.290554e+09
1.914654e+10 -1.248037e+10 7.218105e+08
2.489792e+10 -1.760971e+10 -1.059341e+09
2.027556e+10 1.115823e+10 1.480516e+09
3.335291e+10 1.280695e+10 -2.926632e+08
4.319766e+08 2.902258e+10 -1.409393e+09
-2.287581e+10 -4.406225e+09 1.928375e+08
1.957961e+10 -4.856768e+09 1.059436e+09
3.479019e+10 -3.325536e+09 2.720025e+08
3.136563e+10 -2.216191e+10 8.765906e+07
3.015593e+10 3.531365e+10 1.027939e+08
-2.866330e+10 -6.441851e+07 -2.902019e+09
-3.607368e+10 1.181337e+10 -2.393842e+09
3.808211e+10 1.158156e+09 1.046871e+09
2.604435e+10 -2.116824e+09 -9.357028e+08
1.672029e+10 -4.217300e+10 1.947859e+09
6.927485e+09 -4.043176e+10 4.515572e+09
-2.458603e+10 -6.925345e+09 -2.143067e+09
2.967221e+10 1.901615e+10 -1.126548e+08
-4.967476e+09 2.386676e+10 9.292445e+08
-2.743589e+10 -2.156850e+10 1.192226e+09
3.230525e+10 6.085706e+09 -5.409383e+08
1.373875e+10 -1.410357e+10 -4.518364e+08
5.358248e+09 -2.124457e+10 8.556687e+08
-1.825864e+10 2.671596e+10 7.839389e+08
8.217533e+09 -2.188304e+10 -1.516588e+09
2.403492e+10 1.112365e+09 5.873467e+08
3.195376e+10 -1.945350e+10 2.747884e+08
-1.747150e+10 -5.333524e+09 5.996029e+06
-2.942688e+10 1.220464e+10 -1.258522e+09
-2.357033e+10 -2.580188e+10 -2.210469e+09
4.473106e+10 -5.268152e+09 1.920988e+08
3.129647e+10 1.446398e+10 7.734937e+06
-5.241526e+09 3.465563e+10 -5.933931e+09
-1.217771e+09 2.779795e+10 6.888942e+08
1.938224e+10 1.930325e+10 1.671876e+09
-4.177048e+10 -3.674562e+10 2.019144e+09
-1.376426e+10 -2.050226e+10 1.902103e+09
1.126274e+10 -1.941972e+10 -1.545232e+09
-2.346788e+10 -6.896288e+09 3.373886e+08
2.022871e+10 1.559023e+10 1.432058e+09
2.778554e+10 2.015221e+10 2.979651e+09
-1.672107e+10 4.397864e+10 2.316771e+09
-7.160655e+09 -2.561871e+10 9.066347e+08
2.218315e+09 2.681231e+10 -4.254243e+08
2.778733e+10 -2.210766e+10 1.750214e+09
2.564134e+10 -2.183253e+10 1.347408e+09
3.991684e+09 -2.484935e+10 -4.323134e+08
3.985786e+10 -2.929378e+10 -6.444929e+08
6.818531e+09 2.925455e+10 -2.615673e+09
-2.036367e+10 -6.254512e+09 1.501522e+09
5.250122e+10 -2.374686e+09 1.721642e+09
-2.131080e+10 -1.581317e+10 -3.459149e+08
4.524818e+09 2.696561e+10 2.197981e+07
-1.736356e+10 1.694662e+10 5.104284e+07
2.049878e+10 -2.452722e+10 1.908836e+09
-9.578585e+09 -3.847019e+10 -1.942542e+09
-3.562590e+10 1.949822e+10 -2.804659e+09
2.287712e+10 -2.542358e+10 4.015085e+08
8.366366e+09 2.264662e+10 -3.108034e+09
-1.265232e+10 -1.166483e+10 4.950474e+07
-2.034732e+10 -8.741484e+09 -2.877628e+09
-9.165382e+09 3.761517e+10 8.093676e+08
8.996120e+09 2.797057e+10 -2.619864e+08
8.834498e+09 -3.568509e+10 2.078080e+09
3.033200e+10 1.215672e+10 1.218487e+09
-6.580112e+06 2.346457e+10 -2.442303e+09
-1.704892e+09 -3.934614e+10 1.065326e+09
-4.033896e+10 2.366450e+10 1.385421e+09
3.665294e+10 -5.028315e+09 -1.590294e+08
-3.668605e+10 -8.932954e+08 2.717866e+08
5.206461e+10 1.841816e+10 7.779234e+08
-2.398993e+10 -1.190406e+10 -1.470384e+09
-3.334521e+10 8.388498e+09 2.800330e+09
3.080842e+10 9.730454e+09 -1.723631e+08
-2.125346e+10 2.619856e+10 -1.082745e+09
9.737723e+09 1.512515e+10 5.417400e+08
-2.175206e+10 -7.918271e+09 -4.254149e+09
-4.716858e+10 2.622824e+09 -6.097314e+08
1.382504e+10 -2.074476e+10 -3.342285e+09