# vtk DataFile Version 2.0
Electric current density generated by TTH
ASCII
DATASET UNSTRUCTURED_GRID
POINTS 2195 double
2.619347e-05 -6.415549e-21 -3.575476e-22
2.491147e-05 8.094227e-06 -3.575476e-22
-2.491147e-05 -8.094227e-06 -3.575476e-22
-2.020783e-05 1.344148e-05 1.384183e-06
-2.206052e-05 -1.119711e-05 1.459787e-06
-4.043401e-06 2.408175e-05 1.425446e-06
-1.573688e-05 1.748420e-05 -8.161335e-07
2.367673e-05 3.463011e-06 -1.217763e-06
6.537339e-06 -2.358132e-05 1.435919e-06
-2.557546e-05 3.699527e-06 -9.504712e-07
2.065208e-05 -1.347311e-05 1.457854e-06
-2.348343e-05 -1.095050e-05 8.629468e-07
-1.433905e-06 2.453451e-05 -1.451300e-06
-2.461381e-05 -8.958693e-06 -3.575476e-22
6.237601e-06 -2.360487e-05 -1.424617e-06
2.546899e-05 -4.896886e-06 -8.286517e-07
2.582465e-05 -2.133578e-06 8.608415e-07
4.059245e-06 -2.562906e-05 -8.093931e-07
1.847862e-05 1.457351e-05 -8.316745e-07
5.593910e-06 2.373432e-05 -1.417456e-06
-2.226532e-05 -6.784853e-06 8.134156e-08
-4.613985e-06 -2.392281e-05 1.412139e-06
-1.963417e-05 -1.685409e-05 9.090589e-07
2.273186e-05 5.615300e-06 6.265012e-07
-2.428616e-05 -9.812246e-06 -3.575476e-22
-1.451168e-05 1.819878e-05 -8.358029e-08
1.959835e-05 1.564308e-05 1.419114e-06
-1.358971e-05 2.036273e-05 -1.437773e-06
-2.392186e-05 -1.003781e-05 -8.183768e-07
-3.547112e-07 2.591032e-05 -8.606904e-07
-1.276307e-06 2.454402e-05 1.451387e-06
-1.838573e-06 -2.322798e-05 -2.782256e-07
-2.428924e-05 -8.956138e-06 8.938314e-07
1.336772e-05 2.036711e-05 1.411735e-06
-2.345995e-05 6.062699e-06 -1.370404e-06
-2.392892e-05 -1.065384e-05 -3.575476e-22
7.184715e-06 -2.484648e-05 9.232800e-07
-2.175254e-05 1.111115e-05 -1.427013e-06
-5.812497e-06 -2.404142e-05 1.459799e-06
-1.787144e-05 -1.667125e-05 -1.429978e-06
1.566928e-05 -1.939071e-05 -1.446479e-06
-1.990590e-05 -1.520741e-05 -1.425079e-06
2.458311e-05 -8.179942e-06 -8.667360e-07
1.865802e-05 1.447579e-05 9.379151e-07
-1.041660e-06 2.328639e-05 -3.213530e-07
-1.921239e-05 1.504473e-05 1.421633e-06
-2.354253e-05 -1.148246e-05 -3.575476e-22
-1.524882e-05 1.918575e-05 -1.442178e-06
1.677910e-05 1.641116e-05 7.317239e-07
-2.072396e-05 -1.105877e-05 -7.643598e-07
-2.077547e-05 1.496292e-05 1.172784e-06
3.144815e-06 -2.454901e-05 -1.459712e-06
-1.393867e-05 -1.877912e-05 5.629563e-07
2.584591e-05 2.166272e-06 -8.271234e-07
-1.611294e-05 1.860188e-05 1.454559e-06
-2.211187e-05 -8.562064e-06 1.042381e-06
-1.761840e-05 1.577892e-05 -9.794963e-07
-2.312746e-05 -1.229709e-05 -3.575476e-22
1.706201e-05 1.952008e-05 -8.425551e-07
-2.443046e-05 2.573940e-06 1.450101e-06
1.615555e-05 -1.834457e-05 1.430837e-06
-1.529647e-05 -1.755543e-05 -1.771030e-07
2.468860e-05 2.040718e-06 1.459275e-06
1.870356e-05 -1.670560e-05 -1.418635e-06
-1.171328e-05 -2.046188e-05 8.909824e-07
1.744672e-05 -1.912988e-05 -8.898065e-07
-2.174873e-05 1.412379e-05 -8.331264e-07
2.546571e-05 4.997172e-06 -8.050992e-07
-2.268421e-05 -1.309673e-05 -3.575476e-22
1.665777e-05 1.814863e-05 1.456421e-06
-9.778733e-06 2.121609e-05 4.973637e-07
2.412142e-05 4.777253e-06 -1.452706e-06
2.217877e-06 2.437749e-05 -1.437267e-06
-2.296104e-06 -2.584696e-05 8.090791e-07
1.088834e-05 -2.349046e-05 8.893736e-07
-2.458374e-05 8.213061e-06 8.515121e-07
-8.687304e-06 2.293027e-05 1.444186e-06
2.199212e-05 8.087275e-06 6.607662e-07
1.474084e-05 -1.952539e-05 -1.434851e-06
-2.221332e-05 -1.388042e-05 -3.575476e-22
2.086813e-05 1.140196e-05 -1.105144e-06
-1.967433e-05 -1.692773e-05 -8.006217e-07
-1.670356e-05 -1.814333e-05 -1.458014e-06
2.071070e-05 1.091839e-05 6.208688e-07
2.357613e-05 4.418763e-06 1.254183e-06
1.091570e-05 2.208077e-05 1.456222e-06
-1.098707e-05 2.191060e-05 -1.442721e-06
-1.187371e-05 2.137838e-05 -1.432846e-06
3.760686e-06 2.299285e-05 2.663319e-07
-9.266394e-06 2.269681e-05 -1.443409e-06
-2.171537e-05 -1.464720e-05 -3.575476e-22
-6.877413e-08 -2.329072e-05 -2.218137e-07
-1.753707e-06 2.351429e-05 -8.939437e-07
2.890415e-06 -2.346674e-05 9.714978e-07
-8.268273e-06 2.456301e-05 8.544330e-07
-5.037343e-06 -2.544060e-05 8.300532e-07
-2.319022e-05 -4.172597e-06 -8.715754e-07
-1.836146e-05 1.833438e-05 -8.103643e-07
2.061530e-05 1.340628e-05 1.452814e-06
-9.594111e-06 -2.260915e-05 -1.449498e-06
2.004870e-05 1.442030e-05 -1.459314e-06
-2.119096e-05 -1.539613e-05 -3.575476e-22
1.676369e-05 1.974627e-05 8.746340e-07
-2.378037e-05 1.555261e-06 1.147399e-06
-3.169761e-06 -2.344757e-05 9.899927e-07
2.477450e-05 8.212536e-07 -1.458784e-06
-1.126206e-05 -2.195199e-05 -1.458510e-06
-1.624686e-05 -2.022281e-05 8.209569e-07
-9.702082e-06 2.401039e-05 8.825091e-07
6.717685e-06 2.507074e-05 7.993821e-07
1.090606e-05 -2.353873e-05 -8.183582e-07
-6.938534e-06 2.495196e-05 8.795855e-07
2.461381e-05 8.958693e-06 -3.575476e-22
-2.064073e-05 -1.612631e-05 -3.575476e-22
2.177773e-05 1.412947e-05 7.922143e-07
6.592683e-06 2.509115e-05 -8.179189e-07
-2.482797e-05 -7.521786e-06 -8.186059e-07
-2.236237e-05 -1.105372e-05 -1.444399e-06
-2.593601e-05 5.240588e-07 -8.201351e-07
-1.913166e-05 -1.329982e-05 -2.767080e-07
8.378174e-06 -2.455114e-05 -8.201128e-07
9.361140e-06 -2.419416e-05 -8.190855e-07
-2.526162e-05 -5.902700e-06 -8.190023e-07
-2.584931e-05 -2.192680e-06 -8.189058e-07
-2.006536e-05 -1.683684e-05 -3.575476e-22
-2.593690e-05 -5.213215e-07 -8.189059e-07
-2.574033e-05 -3.229607e-06 -8.189041e-07
-2.547851e-05 -4.882605e-06 -8.189115e-07
-2.450501e-05 -8.512808e-06 -8.197954e-07
1.184021e-05 -2.308208e-05 -8.195179e-07
-1.733269e-05 -1.923343e-05 -8.896378e-07
-1.396269e-05 1.913375e-05 -1.017228e-06
-4.217503e-06 -2.429353e-05 -1.457779e-06
-1.391116e-05 1.898298e-05 8.325118e-07
-1.637141e-05 -1.705764e-05 -9.701626e-07
-1.946554e-05 -1.752685e-05 -3.575476e-22
-2.253334e-05 1.046969e-05 1.455405e-06
1.247660e-05 2.274248e-05 8.219977e-07
1.546464e-05 -2.079793e-05 8.543527e-07
1.260906e-05 -2.117265e-05 1.456971e-06
-6.419257e-06 -2.252625e-05 6.428498e-07
4.566263e-07 -2.597287e-05 7.651345e-07
2.498933e-05 -8.457915e-07 1.434618e-06
-2.354495e-05 1.090044e-05 -8.134956e-07
-1.260151e-05 2.268804e-05 -8.030347e-07
2.336654e-05 -2.037827e-06 -7.047126e-07
-1.884200e-05 -1.819551e-05 -3.575476e-22
2.375113e-05 1.778272e-06 -1.136594e-06
2.497183e-05 -1.906814e-06 -1.426317e-06
-1.329604e-05 2.057502e-05 1.440530e-06
2.255672e-05 -6.136244e-06 5.375985e-07
2.314384e-05 -1.183207e-05 -7.383413e-07
1.403584e-05 -2.060666e-05 -1.446168e-06
-1.752847e-05 1.908481e-05 8.605130e-07
2.298356e-05 5.697072e-06 -1.009422e-06
8.508337e-06 2.453066e-05 -7.852052e-07
2.585480e-05 -2.125561e-06 -8.190835e-07
-1.819551e-05 -1.884200e-05 -3.575476e-22
3.612188e-06 -2.299926e-05 -1.460265e-07
1.705685e-05 -1.843471e-05 1.409050e-06
-2.126409e-05 -1.486896e-05 -8.116681e-07
-2.327147e-05 5.865941e-07 1.205798e-07
-1.815403e-05 -1.694634e-05 1.456320e-06
4.790363e-06 2.306116e-05 8.591098e-07
-9.603890e-06 -2.405461e-05 -8.766229e-07
-1.028484e-05 2.251202e-05 1.459706e-06
1.097650e-05 2.060027e-05 4.411484e-07
-2.024934e-05 -1.401642e-05 1.455906e-06
-1.752685e-05 -1.946554e-05 -3.575476e-22
-2.106544e-05 -1.274425e-05 1.455405e-06
2.378624e-05 -8.703372e-07 -1.123967e-06
-2.267309e-05 7.716495e-06 1.231762e-06
-6.799825e-06 -2.254208e-05 -8.478680e-07
1.255589e-05 1.961155e-05 1.919591e-07
8.900312e-06 2.326861e-05 -1.448776e-06
1.032556e-05 -2.149952e-05 1.162338e-06
-1.245910e-05 -2.275980e-05 8.119565e-07
-1.822858e-05 1.447041e-05 7.588061e-09
-1.946886e-05 1.713609e-05 -8.277221e-07
-1.683684e-05 -2.006536e-05 -3.575476e-22
-2.171748e-05 8.690187e-06 5.744040e-07
1.951814e-05 1.711721e-05 7.908644e-07
-2.099701e-05 -1.356894e-05 -1.435334e-06
-1.195151e-05 2.173864e-05 1.457936e-06
1.603779e-05 1.827514e-05 -1.398303e-06
-1.879188e-05 -1.432293e-05 -9.531233e-07
1.717559e-05 -1.597171e-05 7.027149e-07
-1.067276e-05 -2.069723e-05 -1.951439e-07
1.769710e-05 -1.731858e-05 1.459538e-06
-2.216819e-05 -8.125033e-06 -9.321963e-07
-1.612631e-05 -2.064073e-05 -3.575476e-22
2.236688e-05 6.881839e-06 -5.972692e-07
4.246662e-06 -2.559476e-05 8.151689e-07
-2.202845e-05 8.740244e-06 -1.029835e-06
2.834037e-06 2.464988e-05 1.457682e-06
-2.084763e-06 2.344292e-05 8.338232e-07
-2.126962e-05 1.274213e-05 -1.458538e-06
2.533012e-05 5.847919e-06 -7.324631e-07
1.267295e-05 -2.170443e-05 -1.404014e-06
-2.123949e-05 -1.406073e-05 1.259349e-06
-1.325223e-06 2.593997e-05 7.701247e-07
-1.539613e-05 -2.119096e-05 -3.575476e-22
-2.118181e-05 -1.025044e-05 -8.284102e-07
6.006816e-06 2.420353e-05 1.445459e-06
2.485363e-05 7.476590e-06 8.013539e-07
7.710224e-06 2.207394e-05 -5.507599e-07
2.480980e-05 -3.453801e-06 -1.425323e-06
-7.168880e-06 -2.359828e-05 1.458096e-06
-8.610147e-06 -2.176345e-05 6.041553e-07
-1.415964e-05 -2.180394e-05 7.293331e-07
1.004693e-05 -2.115674e-05 -6.389148e-07
-2.870756e-06 2.484744e-05 1.432878e-06
-1.464720e-05 -2.171537e-05 -3.575476e-22
1.177025e-05 2.158071e-05 1.451880e-06
-1.560880e-05 -1.831688e-05 1.297850e-06
-2.204345e-05 7.575961e-06 -3.182914e-07
-1.896303e-05 -1.393140e-05 8.265617e-07
-3.168788e-06 -2.580771e-05 7.235794e-07
1.949953e-05 -1.713799e-05 7.912928e-07
-1.545048e-05 1.822412e-05 1.192852e-06
-1.447138e-05 -2.049552e-05 1.415745e-06
2.330058e-05 8.033692e-06 -1.457203e-06
1.230541e-05 -2.281975e-05 8.420540e-07
2.428616e-05 9.812246e-06 -3.575476e-22
-1.388042e-05 -2.221332e-05 -3.575476e-22
-8.410637e-06 2.177000e-05 -4.285888e-07
2.478335e-06 2.328659e-05 -6.326789e-07
5.882950e-06 -2.529589e-05 -7.746652e-07
5.649658e-06 2.289819e-05 9.007040e-07
-2.363089e-05 -1.275840e-06 9.947988e-07
2.326141e-05 8.133322e-06 1.456938e-06
-9.733265e-06 2.401429e-05 -8.619499e-07
1.614917e-05 1.868207e-05 1.459272e-06
-1.932644e-05 1.405016e-05 1.194069e-06
2.268964e-05 1.263449e-05 -7.759217e-07
-1.309673e-05 -2.268421e-05 -3.575476e-22
-2.267012e-05 -1.267078e-05 7.749131e-07
-2.079610e-05 -1.555651e-05 7.749131e-07
2.316539e-05 1.042198e-05 -1.297910e-06
2.120887e-05 1.497355e-05 7.888737e-07
2.120139e-05 1.287947e-05 -1.457964e-06
1.514558e-06 -2.438258e-05 1.427775e-06
[...]
POINT_DATA 2195
VECTORS 10.000GHz_fone_imag double
1.497805e-04 1.988621e-04 1.808999e-02
-4.703797e-05 -1.120807e-04 1.765504e-02
-3.629169e-04 1.071034e-04 1.769632e-02
1.874769e-02 -1.260668e-02 -8.567145e-03
1.970476e-02 1.000926e-02 -9.529056e-04
3.752481e-03 -2.231141e-02 -6.112681e-03
-9.686276e-03 1.045728e-02 -2.194741e-02
1.957031e-02 2.781626e-03 -1.481445e-02
-6.446733e-03 2.161152e-02 -5.429704e-03
-1.212018e-02 2.168442e-03 1.376461e-02
-1.794284e-02 1.249740e-02 -1.546621e-03
9.800339e-03 4.401372e-03 1.495416e-02
-1.189252e-03 2.274644e-02 -3.841488e-03
2.317931e-04 -3.771806e-04 1.755857e-02
5.545551e-03 -2.147717e-02 -5.706251e-03
1.008506e-02 -1.782823e-03 1.500826e-02
-1.081288e-02 1.070559e-03 1.499068e-02
1.820801e-03 -1.056899e-02 1.497226e-02
1.125604e-02 9.361297e-03 -2.159512e-02
6.031575e-03 2.155792e-02 -6.746604e-03
1.740657e-03 1.481708e-04 -2.724528e-02
4.418412e-03 2.174001e-02 -6.963537e-03
8.899747e-03 7.548465e-03 1.421121e-02
-1.038958e-02 -2.456769e-03 -2.460174e-02
-2.250004e-04 1.711993e-04 1.754814e-02
-9.916353e-04 8.909000e-04 -2.710143e-02
-1.582421e-02 -1.298906e-02 4.370601e-03
-1.264433e-02 1.872794e-02 -4.750350e-03
-1.000535e-02 -4.055504e-03 1.482939e-02
-1.320744e-04 1.154319e-02 1.471424e-02
1.460892e-03 -2.219301e-02 -2.089491e-03
-1.150729e-03 -5.893536e-03 -2.615515e-02
1.066880e-02 4.014536e-03 1.454578e-02
-1.259480e-02 -1.951231e-02 -5.928430e-03
-2.218323e-02 5.286135e-03 -1.031179e-02
-2.735844e-05 -1.377950e-04 1.758099e-02
-3.525762e-03 1.148523e-02 1.423676e-02
-2.034586e-02 1.053417e-02 -4.777252e-03
5.166745e-03 2.130816e-02 -6.071480e-04
-1.639718e-02 -1.513436e-02 -5.802917e-03
1.341355e-02 -1.639509e-02 2.207638e-03
-1.666940e-02 -1.199137e-02 3.840192e-03
1.117958e-02 -3.241183e-03 1.464241e-02
-1.290649e-02 -9.583485e-03 -2.036627e-02
3.653929e-04 6.642957e-03 -2.552265e-02
1.764047e-02 -1.394714e-02 -6.157000e-03
-1.748594e-04 -4.578447e-04 1.763521e-02
-1.399243e-02 1.744024e-02 -4.707296e-03
-8.393355e-03 -9.067372e-03 -2.303040e-02
-1.178500e-02 -5.928222e-03 -2.264695e-02
1.250127e-02 -8.901754e-03 1.034746e-02
2.643955e-03 -2.175531e-02 -5.389150e-04
5.651314e-03 7.427538e-03 -2.524393e-02
1.081781e-02 1.145237e-03 1.519861e-02
1.431862e-02 -1.697628e-02 -3.086482e-03
1.652924e-02 6.410305e-03 -1.850358e-02
-1.235923e-02 1.140813e-02 -1.940162e-02
1.631453e-04 3.971347e-05 1.769990e-02
6.846885e-03 8.935056e-03 1.454973e-02
2.250671e-02 -2.569910e-03 -3.399922e-03
-1.497005e-02 1.682944e-02 -4.033483e-03
-2.203457e-03 -2.799461e-03 -2.672974e-02
-2.203729e-02 -2.147047e-03 -2.860105e-04
1.566495e-02 -1.336374e-02 3.959064e-03
7.603551e-03 1.417776e-02 -2.034988e-02
7.964425e-03 -8.664905e-03 1.453923e-02
-9.528820e-03 6.573759e-03 1.479352e-02
1.039213e-02 1.863741e-03 1.514122e-02
-6.869973e-04 2.100867e-04 1.776540e-02
-1.497564e-02 -1.656513e-02 -3.251070e-03
4.049529e-03 -8.480737e-03 -2.549761e-02
2.195838e-02 4.178229e-03 -3.442747e-03
2.416987e-03 2.153833e-02 -5.537981e-03
1.087437e-03 1.047775e-02 1.417743e-02
-4.318714e-03 1.070714e-02 1.430657e-02
1.022303e-02 -3.891348e-03 1.472984e-02
8.131213e-03 -2.068427e-02 -4.211155e-03
-1.112260e-02 -3.846434e-03 -2.361004e-02
1.357984e-02 -1.751641e-02 -5.276761e-03
-6.690139e-04 -4.160940e-04 1.761503e-02
1.602072e-02 9.163475e-03 -1.704132e-02
-8.175267e-03 -6.716549e-03 1.499570e-02
-1.578318e-02 -1.717966e-02 -3.235605e-03
-9.425879e-03 -5.097670e-03 -2.449813e-02
-2.038904e-02 -4.134619e-03 -1.335847e-02
-1.010858e-02 -1.969915e-02 -3.124072e-03
-1.076013e-02 1.939794e-02 -3.693472e-03
-9.997553e-03 1.989404e-02 -4.863993e-03
1.687136e-04 -3.347902e-03 -2.679778e-02
-7.297540e-03 2.056437e-02 -4.384468e-03
-2.712444e-04 -3.463213e-04 1.760408e-02
-5.891980e-04 -3.894785e-03 -2.613613e-02
-1.604996e-03 1.482204e-02 -2.052956e-02
-2.192438e-03 1.626408e-02 -1.945304e-02
3.598715e-03 -1.066806e-02 1.494469e-02
2.049768e-03 1.083124e-02 1.472501e-02
-1.523861e-02 -2.531895e-03 -2.173309e-02
-7.792738e-03 7.734574e-03 1.490037e-02
-1.852821e-02 -1.199634e-02 -3.346592e-03
-8.748173e-03 -2.061494e-02 -3.957187e-03
1.822311e-02 1.290988e-02 -1.838526e-03
-9.373006e-05 -2.162760e-04 1.773155e-02
-7.360721e-03 -8.559626e-03 1.472811e-02
1.892984e-02 -2.341332e-03 -1.634168e-02
2.004068e-03 1.708038e-02 -1.910330e-02
2.195058e-02 4.087073e-04 -1.516517e-04
-1.028079e-02 -1.957400e-02 -2.172561e-03
5.682265e-03 7.595640e-03 1.474754e-02
4.053390e-03 -1.109444e-02 1.447634e-02
-2.710753e-03 -9.847777e-03 1.611570e-02
4.372315e-03 -9.786927e-03 1.493597e-02
2.448679e-03 -1.054456e-02 1.483434e-02
-5.282921e-05 -4.663905e-06 1.773781e-02
-2.440435e-05 -1.410103e-04 1.760322e-02
-8.857954e-03 -5.589706e-03 1.507683e-02
2.700408e-03 1.022177e-02 1.383451e-02
-1.020611e-02 -2.828350e-03 1.493987e-02
-1.907928e-02 -9.104361e-03 2.463030e-03
-1.033744e-02 -7.908453e-06 1.456493e-02
-4.513571e-03 -3.108919e-03 -2.647960e-02
3.495297e-03 -1.053604e-02 1.470031e-02
4.115584e-03 -1.035970e-02 1.471983e-02
-1.059971e-02 -2.375634e-03 1.535671e-02
-1.105890e-02 -1.462466e-03 1.487171e-02
8.663267e-05 9.456197e-05 1.760634e-02
-1.116776e-02 6.913680e-05 1.523932e-02
-1.070421e-02 -1.313023e-03 1.497030e-02
-1.035049e-02 -1.993216e-03 1.521455e-02
-1.013758e-02 -3.614161e-03 1.485757e-02
4.927392e-03 -9.519833e-03 1.519314e-02
-7.263149e-03 -8.476994e-03 1.544876e-02
-1.022248e-02 1.453219e-02 -1.852472e-02
-4.012509e-03 -2.192009e-02 -2.608598e-03
7.766455e-03 -1.189595e-02 -2.165298e-02
-1.174088e-02 -1.110266e-02 -1.983399e-02
2.839787e-04 1.854094e-04 1.781011e-02
1.967141e-02 -8.689373e-03 1.512518e-03
-4.908998e-03 -9.515741e-03 1.503806e-02
-6.795021e-03 8.842532e-03 1.473585e-02
-1.135847e-02 1.933093e-02 -2.501116e-03
3.400302e-03 1.156470e-02 -2.397830e-02
-1.695601e-04 9.491597e-03 1.567348e-02
-2.111028e-02 1.422596e-03 1.721776e-03
-1.043447e-02 4.029836e-03 1.464901e-02
-6.028673e-03 9.017739e-03 1.450084e-02
1.245547e-02 -1.131225e-03 -2.362625e-02
1.324762e-04 -3.448635e-04 1.763531e-02
1.887865e-02 1.390390e-03 -1.635720e-02
2.030472e-02 -1.019740e-03 3.556860e-03
1.233219e-02 -1.860829e-02 -4.937208e-03
-8.159983e-03 1.585621e-03 -2.594586e-02
8.697081e-03 -4.293613e-03 1.567995e-02
1.190442e-02 -1.773172e-02 1.775589e-03
7.705059e-03 -8.023473e-03 1.470628e-02
1.694118e-02 3.667272e-03 -1.874458e-02
3.723627e-03 9.455159e-03 1.520431e-02
1.088273e-02 -1.007675e-03 1.489527e-02
1.296028e-03 -5.205635e-05 1.724703e-02
6.990320e-04 -2.406033e-03 -2.700014e-02
-1.299199e-02 1.512157e-02 4.959199e-03
-8.840680e-03 -5.754768e-03 1.471823e-02
1.794468e-03 -1.860660e-04 -2.579429e-02
1.615399e-02 1.463618e-02 9.416768e-04
-3.928708e-03 -1.389403e-02 -2.178748e-02
-4.095425e-03 -1.089823e-02 1.448188e-02
9.663927e-03 -1.923604e-02 -1.220833e-03
-3.911465e-03 -6.358628e-03 -2.568299e-02
1.841652e-02 1.215532e-02 -2.252879e-03
6.281344e-05 1.564961e-03 1.691768e-02
1.923803e-02 1.163486e-02 -2.622884e-03
1.964111e-02 -6.865856e-04 -1.691377e-02
1.923600e-02 -6.669339e-03 -1.409235e-02
-4.198576e-03 -1.418381e-02 -2.159826e-02
-1.815007e-03 -2.612912e-03 -2.766209e-02
7.722191e-03 2.038079e-02 1.684271e-03
-8.279826e-03 1.771304e-02 -1.588481e-02
5.242780e-03 9.187752e-03 1.507694e-02
1.788901e-04 -1.346699e-04 -2.754351e-02
-8.337442e-03 7.355943e-03 1.467375e-02
3.879636e-04 -2.828001e-04 1.686908e-02
9.424844e-03 -3.744842e-03 -2.483324e-02
-7.959644e-03 -6.637327e-03 1.520075e-02
-1.763680e-02 -1.132336e-02 3.477510e-03
1.125576e-02 -1.869474e-02 -3.046089e-04
1.447449e-02 1.688178e-02 -7.304092e-03
-1.265018e-02 -1.017849e-02 -1.999045e-02
-9.344668e-03 8.719082e-03 -2.338163e-02
-2.654035e-03 -3.570029e-03 -2.689154e-02
-1.570378e-02 1.533191e-02 -1.214187e-03
-1.468849e-02 -5.544201e-03 -2.038320e-02
-7.195012e-04 3.667694e-04 1.712042e-02
9.911997e-03 3.423914e-03 -2.447468e-02
-1.653606e-03 1.016707e-02 1.532371e-02
-1.566117e-02 6.250619e-03 -1.905519e-02
-2.496068e-03 -2.200798e-02 3.451742e-04
1.720064e-03 -1.454630e-02 -2.331036e-02
-1.894083e-02 1.106489e-02 -7.585823e-04
9.556536e-03 2.158778e-03 1.576590e-02
1.033477e-02 -1.739033e-02 5.184906e-03
1.449197e-02 9.620770e-03 9.492116e-03
4.590711e-05 -1.002852e-02 1.493013e-02
2.311102e-04 -1.419086e-04 1.751276e-02
-1.298611e-02 -6.069823e-03 -2.183975e-02
-4.053605e-03 -2.107410e-02 9.023900e-04
-1.018138e-02 -3.088133e-03 1.502685e-02
3.090502e-03 8.868591e-03 -2.517283e-02
2.017012e-02 -2.857963e-03 3.987496e-03
6.293320e-03 2.094774e-02 -2.276487e-03
4.357662e-03 9.918264e-03 -2.400963e-02
5.473006e-03 8.062959e-03 1.539377e-02
4.358036e-03 -9.892724e-03 -2.434943e-02
1.417772e-03 -2.047385e-02 3.813524e-03
7.257915e-05 1.083883e-04 1.766888e-02
-1.076237e-02 -1.957428e-02 -3.606141e-03
1.352838e-02 1.623638e-02 -1.212727e-02
-5.842463e-03 1.966846e-03 -2.626923e-02
1.156925e-02 8.441438e-03 -2.211207e-02
1.175462e-03 9.472560e-03 1.559795e-02
-7.339887e-03 6.660733e-03 1.522153e-02
1.293081e-02 -1.529603e-02 -1.504186e-02
1.232252e-02 1.628534e-02 4.111127e-03
2.114809e-02 7.288028e-03 -2.261848e-03
-5.304383e-03 9.533024e-03 1.472978e-02
-1.197501e-04 4.796471e-05 1.765833e-02
-3.987118e-04 -2.382356e-04 1.779147e-02
-2.857556e-03 7.081620e-03 -2.591043e-02
1.350146e-03 1.112736e-02 -2.403367e-02
1.704204e-03 -1.005477e-02 1.479197e-02
-4.825895e-03 -1.457092e-02 -1.979858e-02
1.714529e-02 9.882249e-04 -2.006311e-02
-2.075113e-02 -7.232913e-03 -2.220646e-03
-4.225066e-03 1.049345e-02 1.463120e-02
-1.402716e-02 -1.689380e-02 -1.943357e-03
1.628489e-02 -1.160874e-02 -1.540042e-02
8.739963e-03 5.083274e-03 1.524547e-02
-7.230790e-06 -3.192261e-04 1.757898e-02
8.922293e-03 5.503311e-03 1.520003e-02
8.370069e-03 6.224760e-03 1.515904e-02
1.666566e-02 7.536413e-03 8.231275e-03
-8.300544e-03 -6.373068e-03 1.485913e-02
1.862163e-02 1.152247e-02 -8.738828e-05
-1.383587e-03 2.241855e-02 -6.025712e-03
9.299190e-03 2.886167e-03 1.539738e-02
5.599382e-03 -8.086668e-03 1.521838e-02
7.739302e-03 5.672518e-03 1.546439e-02
5.546977e-03 -1.778745e-02 -1.688385e-02
4.837090e-04 -2.910239e-04 1.745687e-02
6.650549e-03 -2.136355e-02 -3.017964e-03
1.836130e-02 3.229900e-03 7.933298e-03
8.986874e-03 -4.189741e-03 1.536939e-02
-2.190225e-02 -3.755390e-03 -4.234908e-03
2.142099e-02 6.485978e-03 -3.187674e-03
-8.729434e-03 -4.994920e-03 1.526835e-02
3.631593e-03 -1.933838e-02 -1.478335e-02
-4.434296e-05 -7.916634e-03 -2.535704e-02
3.189660e-03 1.494349e-02 -2.064317e-02
-2.269352e-03 1.028919e-02 1.505260e-02
-1.295313e-04 1.028665e-04 1.779058e-02
-1.044714e-02 2.925434e-03 1.412115e-02
3.228865e-03 1.625584e-03 -2.667620e-02
-1.703653e-02 1.424886e-02 -6.192365e-05
1.795646e-03 -9.594462e-03 1.549912e-02
-9.659399e-04 -1.280413e-02 -2.305654e-02
-6.105815e-03 -5.838518e-04 -2.622360e-02
-6.650905e-03 7.150200e-03 1.561515e-02
-1.286676e-02 -3.160479e-03 -2.294337e-02
5.738250e-03 6.372661e-03 -2.548321e-02
1.612494e-02 -5.688334e-03 -1.676877e-02
1.345426e-04 -4.167535e-05 1.773550e-02
-9.522118e-03 1.602077e-03 1.538046e-02
1.693369e-02 -1.409815e-02 -8.663805e-03
-2.152041e-02 -2.876487e-03 -9.164195e-03
-3.736246e-03 9.764008e-03 1.508641e-02
5.474339e-03 -1.182186e-03 -2.687742e-02
1.653130e-03 -7.574279e-03 -2.584479e-02
6.102561e-03 -9.547207e-03 -2.382768e-02
1.026418e-02 -1.179451e-03 -2.479175e-02
6.273399e-04 -1.020657e-02 1.522581e-02
1.193618e-03 -1.754233e-02 -1.821547e-02
-2.011734e-04 1.089573e-04 1.797593e-02
-1.471505e-03 1.069976e-02 1.544502e-02
-6.289720e-03 -8.642860e-03 1.507069e-02
-6.253487e-03 -7.590696e-03 1.514778e-02
1.964048e-02 -9.948755e-03 -8.587565e-03
-6.770013e-03 -8.816907e-03 1.459620e-02
-4.057187e-03 6.803382e-03 -2.614931e-02
2.057690e-02 -8.669397e-03 -6.911090e-03
3.939110e-03 9.179489e-03 1.544785e-02
1.611396e-02 1.462484e-02 8.742252e-04
1.011091e-02 -7.607121e-04 1.504829e-02
-6.987817e-05 -4.782680e-04 1.765993e-02
-1.271013e-02 -1.645501e-02 3.283590e-03
-5.928180e-03 -9.709520e-03 1.471079e-02
-1.392851e-02 1.558770e-02 2.713861e-03
8.841892e-03 -5.106990e-03 1.549037e-02
1.081546e-02 1.645683e-03 1.474287e-02
-1.586927e-02 8.300755e-03 -1.796238e-02
-1.002218e-02 -4.856528e-03 1.471238e-02
6.967986e-03 -1.669805e-02 -1.708938e-02
7.152544e-03 5.366832e-03 -2.533441e-02
-1.891488e-02 9.091087e-03 2.594148e-03
1.579144e-04 2.293817e-04 1.758073e-02
1.453668e-02 1.525789e-02 3.891696e-03
-6.978526e-03 -8.782723e-04 -2.625143e-02
-2.114806e-02 -6.080602e-03 -2.706612e-03
2.017988e-02 -3.285924e-03 4.251887e-03
-2.092751e-02 -7.218174e-03 -2.559243e-03
1.563501e-02 1.281866e-02 4.583525e-03
5.165055e-04 9.806045e-03 1.547075e-02
7.003688e-03 6.748946e-03 1.504628e-02
-1.860302e-02 -7.580155e-03 4.994428e-03
7.875800e-03 -3.823061e-03 -2.544105e-02
-1.333981e-04 3.143746e-07 1.760789e-02
2.159051e-02 -4.120722e-03 -8.355630e-03
-3.993615e-03 -8.943968e-03 1.553445e-02
-2.171789e-02 2.532857e-03 -3.373594e-04
-2.217826e-02 -2.389329e-03 -2.679888e-03
-2.193289e-02 -2.621738e-03 -2.863678e-03
1.993140e-02 6.475460e-03 2.933332e-03
6.808250e-03 -6.658972e-03 1.551314e-02
-6.534020e-03 2.931330e-03 -2.599386e-02
-7.550179e-04 -1.052873e-02 1.522336e-02
-7.429365e-03 5.854520e-03 1.530784e-02
2.922059e-04 -1.156866e-05 1.775935e-02
1.917019e-02 -3.898778e-03 -1.577190e-02
5.428447e-03 7.607820e-03 1.588342e-02
4.824776e-03 -8.107914e-03 1.576136e-02
9.377841e-03 -1.993317e-02 -2.571642e-03
-1.497976e-02 -1.068280e-02 -1.688190e-02
9.873719e-03 -1.972112e-02 -2.765780e-03
7.678090e-03 -1.918232e-02 3.351032e-03
-1.986298e-02 -5.541377e-03 3.988523e-03
-2.084524e-02 5.151770e-04 3.377701e-03
-2.027742e-02 -3.942450e-03 4.818180e-03
-1.574515e-04 -1.287202e-04 1.774958e-02
-9.477177e-05 1.500972e-04 1.767788e-02
2.180408e-02 5.120347e-03 -3.153496e-03
7.584853e-03 2.032012e-02 -9.972859e-05
4.905130e-03 1.065638e-02 -2.357273e-02
-1.492067e-02 1.460071e-02 3.375569e-03
-2.113704e-02 5.128005e-04 3.312456e-03
6.576166e-03 -1.961802e-02 3.099188e-03
5.100730e-03 1.985487e-02 3.486249e-03
9.096030e-03 -1.298724e-03 1.534685e-02
2.597623e-03 3.557867e-03 -2.684328e-02
-6.030729e-03 7.774274e-03 1.459452e-02
-7.291361e-05 1.804202e-04 1.781886e-02
-6.055543e-03 -1.609083e-02 -1.862607e-02
-1.252774e-02 1.210016e-02 -1.872956e-02
-1.431543e-02 7.776426e-03 -1.964223e-02
-1.181419e-02 1.814823e-02 1.339224e-03
9.382267e-03 1.207661e-03 1.529845e-02
-1.459740e-02 -1.446171e-02 4.493731e-03
-1.833834e-02 -1.227378e-02 -2.891442e-03
8.651684e-03 2.040213e-02 -2.996852e-03
-8.443223e-03 1.444310e-03 1.619837e-02
-1.646234e-02 -1.057424e-02 -1.495429e-02
3.036267e-05 1.639355e-05 1.798874e-02
-1.971799e-02 -3.367387e-04 -1.500457e-02
2.045672e-03 1.702649e-02 8.505341e-03
-2.217087e-03 -9.996870e-03 1.532840e-02
-4.645672e-03 -9.036292e-03 1.553259e-02
1.676383e-02 -1.135807e-02 4.601770e-03
1.079331e-02 1.780168e-02 3.109715e-03
6.146990e-03 6.554898e-03 -2.531032e-02
-4.637589e-03 2.163840e-02 -5.184055e-04
-7.945766e-03 3.979480e-03 1.531086e-02
4.645553e-03 -8.682989e-03 1.567488e-02
4.840648e-04 2.751191e-04 1.778439e-02
1.998708e-02 -8.072465e-03 1.054877e-03
7.218214e-03 6.021806e-03 1.541414e-02
5.455939e-03 1.003529e-03 -2.648691e-02
-5.523266e-03 -7.902742e-03 1.529472e-02
1.639876e-02 1.244432e-02 4.117197e-03
-1.909489e-03 -8.382234e-03 1.594038e-02
1.434944e-03 9.789623e-03 1.540516e-02
-4.589463e-03 -2.144784e-02 -6.991385e-04
-2.479391e-03 8.830300e-03 1.548052e-02
-2.680379e-03 -8.579383e-03 1.555404e-02
-1.373004e-04 6.204069e-04 1.783549e-02
3.232377e-03 2.028107e-02 2.976455e-03
5.611265e-03 -7.590423e-03 1.556484e-02
-5.014971e-03 -1.610752e-02 -1.910685e-02
-9.338220e-03 1.944569e-03 1.539364e-02
1.300338e-02 1.790209e-02 1.723348e-04
-1.086781e-02 1.942770e-02 -2.528386e-03
-8.487090e-03 6.936510e-03 -2.446774e-02
-1.296024e-02 -1.187857e-02 -1.810796e-02
-5.841746e-03 9.112192e-03 1.486869e-02
1.023996e-02 1.493086e-03 1.541552e-02
-8.642798e-04 -1.235776e-04 1.768980e-02
7.937357e-03 -5.816065e-03 1.519680e-02
5.631488e-03 -7.237059e-03 1.573142e-02
-1.956944e-02 -5.640236e-03 4.242693e-03
-6.477244e-03 7.345057e-03 1.487140e-02
-1.509116e-02 1.388953e-02 3.870373e-03
-6.434023e-03 8.440295e-03 1.505045e-02
-1.836546e-02 -1.311818e-02 -5.382713e-03
4.350227e-03 -3.380487e-04 -2.707221e-02
-1.272306e-02 -1.188997e-02 -1.791891e-02
-2.642914e-04 5.969208e-03 -2.597992e-02
4.496319e-04 -9.216988e-04 1.746401e-02
2.031436e-02 -5.477624e-03 3.223481e-03
-1.192743e-03 2.875391e-03 -2.714909e-02
-1.826415e-02 -5.524521e-03 -1.676158e-02
1.077576e-02 -2.138811e-04 1.506483e-02
8.569831e-03 -3.258143e-03 1.561076e-02
-1.678509e-02 8.309133e-03 5.033094e-03
-1.496951e-03 9.214546e-03 1.516484e-02
-1.092490e-02 -1.705273e-02 3.426541e-03
4.645603e-04 1.815483e-02 -1.862334e-02
2.184795e-03 3.272236e-03 -2.675358e-02
2.952877e-04 -1.831126e-04 1.758519e-02
7.091844e-03 4.973651e-03 1.591179e-02
7.283373e-03 4.506905e-03 1.618008e-02
-5.489627e-03 8.715529e-03 1.499296e-02
-2.108829e-03 3.073722e-05 -2.719008e-02
-1.697696e-02 1.371021e-02 -4.659828e-06
-1.208305e-02 2.273622e-03 -2.333396e-02
3.482113e-03 -1.078967e-03 -2.660485e-02
-1.856422e-03 1.775189e-04 -2.676806e-02
6.559497e-03 -1.970839e-02 3.950312e-03
-1.634503e-03 -4.169015e-03 -2.672301e-02
-1.903078e-05 6.513481e-05 1.771446e-02
6.881192e-03 1.955231e-02 -1.306313e-02
-1.089789e-02 -1.604500e-02 4.718622e-03
8.998008e-03 1.807209e-02 4.240116e-03
8.996908e-03 1.731612e-02 6.054211e-03
-1.342664e-03 4.722133e-04 -2.729753e-02
-1.765218e-02 1.252373e-02 4.589549e-04
-1.799992e-02 -7.054930e-03 -1.522059e-02
6.933486e-03 -5.043823e-03 1.609346e-02
-7.026174e-03 -1.913676e-02 4.268999e-03
8.218970e-03 -4.430554e-03 1.589170e-02
8.097932e-05 -8.303382e-05 1.780762e-02
-1.084772e-02 1.698840e-02 4.189243e-03
8.009993e-03 -5.916610e-03 1.528285e-02
-4.597017e-03 1.932639e-02 5.676024e-03
-6.784766e-03 1.898807e-02 4.792126e-03
5.949985e-03 6.865197e-03 -2.532428e-02
7.164601e-03 -6.542163e-03 1.535703e-02
2.280095e-03 2.271836e-04 -2.717397e-02
-2.711847e-03 1.427291e-02 -2.208753e-02
5.102149e-03 -1.870509e-02 5.819538e-03
7.659234e-03 -3.707865e-03 -2.540601e-02
-1.529436e-04 -1.585050e-04 1.770719e-02
-2.028457e-04 3.600749e-04 1.778029e-02
-4.503618e-03 1.897188e-02 -1.567681e-02
1.419735e-03 -9.511292e-03 1.443951e-02
4.140580e-03 2.023458e-02 4.689159e-03
-2.467204e-03 2.062671e-02 4.825343e-03
-7.357010e-03 -8.542704e-04 -2.601670e-02
-1.582358e-02 -9.842250e-03 7.356134e-03
-2.170950e-02 4.074617e-03 -9.659778e-04
-1.711964e-03 8.704655e-03 1.553560e-02
1.415131e-02 -1.511854e-02 3.791082e-03
-1.109850e-04 -4.501105e-03 -2.676617e-02
-4.747690e-05 -6.525349e-04 1.756967e-02
-1.347280e-02 -1.690219e-02 4.203060e-03
-1.625119e-02 1.080081e-02 -1.661421e-02
-8.845173e-03 -5.373799e-04 1.595609e-02
1.819193e-02 1.015580e-02 3.862939e-03
-1.910585e-02 -8.061843e-03 3.488060e-03
-1.690174e-04 -1.744999e-02 8.554869e-03
2.564156e-03 -1.633286e-02 -2.027246e-02
5.387633e-03 6.463495e-03 1.543447e-02
6.733625e-03 6.711686e-03 1.558554e-02
-1.908968e-02 -1.088005e-02 -1.087645e-03
-6.136800e-05 -1.793475e-04 1.757890e-02
-8.395421e-03 -1.430229e-03 1.564415e-02
1.001047e-02 -1.149150e-02 -2.127291e-02
-6.997995e-03 -1.973992e-02 2.851172e-03
3.001539e-04 -9.116921e-03 1.544113e-02
-4.628570e-03 -1.938472e-02 -1.092296e-02
-8.125861e-03 -4.855725e-03 -2.483847e-02
2.366589e-03 -9.187317e-03 1.553991e-02
-9.058855e-03 3.428737e-03 1.544199e-02
-3.668555e-03 -9.975989e-03 1.495620e-02
-4.321049e-03 -2.908931e-03 -2.657358e-02
-6.196885e-05 -4.096771e-04 1.764438e-02
4.596438e-03 7.980441e-03 1.539725e-02
2.512789e-03 -1.942982e-02 -1.556663e-02
-1.619188e-02 -1.316603e-02 2.251904e-03
-6.522918e-04 -9.751807e-03 1.533676e-02
8.564631e-03 -1.392784e-03 1.565923e-02
-1.049851e-02 7.581304e-03 -2.333426e-02
-4.582539e-04 1.646349e-04 -2.706578e-02
6.199170e-03 -5.952747e-03 1.523250e-02
-2.022331e-02 -3.168968e-04 -1.413561e-02
1.595715e-02 -9.873282e-03 -1.581610e-02
3.773542e-04 7.952930e-05 1.754377e-02
-4.656954e-04 9.145763e-03 1.609768e-02