# vtk DataFile Version 2.0
Electric current density generated by TTH
ASCII
DATASET UNSTRUCTURED_GRID
POINTS 2424 double
2.741407e-05 -6.714511e-21 -3.377317e-22
2.631467e-05 7.685678e-06 -3.377317e-22
-2.741065e-05 4.327651e-07 -3.377317e-22
2.018426e-05 -1.468782e-05 -8.666872e-07
2.446936e-05 5.203005e-06 9.292318e-07
2.446936e-05 -5.203005e-06 -9.292318e-07
-9.517539e-06 -2.430045e-05 -1.377471e-06
2.104134e-05 1.552917e-05 -1.373992e-06
2.104134e-05 -1.552917e-05 1.373992e-06
1.152365e-05 2.357011e-05 1.364144e-06
1.018266e-05 -2.250286e-05 -3.425278e-07
-2.183882e-05 1.321851e-05 -1.282113e-06
-1.850934e-05 1.774511e-05 1.321492e-06
-2.741065e-05 -4.327651e-07 -3.377317e-22
3.139137e-06 2.493795e-05 -1.044310e-06
-2.435155e-05 3.870894e-06 5.258317e-08
5.464166e-06 -2.654526e-05 -8.738685e-07
-1.208807e-05 2.261874e-05 1.322900e-06
2.156759e-05 -1.433647e-05 1.372033e-06
2.156759e-05 1.433647e-05 -1.372033e-06
1.741403e-05 1.770512e-05 -6.768608e-07
2.271889e-05 -1.478342e-05 -8.695878e-07
2.273065e-05 1.475371e-05 8.773171e-07
-3.195512e-06 -2.694191e-05 -8.372891e-07
-2.738333e-05 -1.297864e-06 -3.377317e-22
-1.101206e-06 -2.699243e-05 -9.703212e-07
3.192757e-06 -2.690190e-05 -8.872511e-07
1.474350e-05 -2.140143e-05 1.378098e-06
-1.977887e-06 2.507780e-05 1.061994e-06
-2.569714e-05 2.254115e-06 -1.357960e-06
2.971226e-06 -2.529801e-05 -1.258595e-06
-2.521169e-05 4.702898e-06 -1.323002e-06
-1.440905e-05 2.073473e-05 -1.133336e-06
2.595337e-05 -8.075411e-06 -7.675646e-07
2.589708e-05 8.089412e-06 8.368234e-07
-2.732871e-05 -2.161669e-06 -3.377317e-22
-6.828464e-06 -2.419310e-05 -1.047362e-06
-2.605891e-05 -7.325192e-06 -9.125622e-07
-1.126083e-05 -2.320761e-05 -1.357876e-06
-2.307590e-05 -1.101932e-05 1.298742e-06
-2.466118e-05 2.830901e-07 -1.339930e-07
1.753875e-05 -1.754994e-05 6.354905e-07
1.747258e-06 -2.579479e-05 -1.366927e-06
-2.155484e-05 1.203031e-05 -2.789887e-07
1.704052e-05 -1.811245e-05 -7.349310e-07
2.601254e-05 8.564742e-07 1.378868e-06
-2.724685e-05 -3.023320e-06 -3.377317e-22
2.601254e-05 -8.564742e-07 -1.378868e-06
-2.007458e-05 1.531893e-05 -1.134822e-06
-2.412519e-05 -1.245870e-05 -8.084067e-07
-1.929005e-05 -1.552033e-05 5.211697e-07
-2.083885e-05 -1.736166e-05 -8.466854e-07
1.456705e-05 -2.120529e-05 -1.343947e-06
2.483631e-05 -6.231449e-06 1.310442e-06
2.483631e-05 6.231449e-06 -1.310442e-06
-2.668434e-05 7.946172e-07 1.210141e-06
2.582870e-05 -2.487450e-06 -1.376149e-06
-2.713783e-05 -3.881956e-06 -3.377317e-22
2.582870e-05 2.487450e-06 1.376149e-06
2.427263e-05 8.843659e-06 1.364069e-06
2.427263e-05 -8.843659e-06 -1.364069e-06
1.929531e-05 1.552013e-05 5.308034e-07
1.929531e-05 -1.552013e-05 -5.308034e-07
-9.734051e-06 2.532332e-05 -8.386326e-07
-2.421699e-05 9.610644e-06 -1.378762e-06
-2.412670e-05 -9.870736e-06 1.378509e-06
5.870886e-06 -2.644797e-05 8.860110e-07
1.881216e-05 1.633283e-05 -8.013270e-07
-2.700175e-05 -4.736723e-06 -3.377317e-22
1.881216e-05 -1.633283e-05 8.013270e-07
7.608826e-07 2.663748e-05 1.235061e-06
-7.876666e-06 2.484713e-05 -1.378556e-06
-1.585266e-05 -1.915423e-05 -7.269285e-07
6.913178e-06 2.535790e-05 -1.356376e-06
2.296103e-05 -1.020071e-05 1.035786e-06
2.296103e-05 1.020071e-05 -1.035786e-06
7.402917e-06 2.377406e-05 -7.827361e-07
-2.457311e-05 2.034431e-06 -4.972416e-08
-2.043036e-05 1.501208e-05 1.198186e-06
-2.683876e-05 -5.586769e-06 -3.377317e-22
6.866485e-06 -2.380038e-05 5.508336e-07
2.109308e-05 1.709006e-05 8.148837e-07
2.109308e-05 -1.709006e-05 -8.148837e-07
-1.476168e-05 2.061456e-05 1.199368e-06
-7.743760e-06 2.418164e-05 1.219325e-06
-1.842405e-05 -1.991222e-05 -8.405486e-07
1.239949e-05 -2.142501e-05 -5.107521e-07
-2.324127e-05 9.389205e-06 9.810223e-07
1.596145e-05 -2.188450e-05 8.917690e-07
1.596145e-05 2.188450e-05 -8.917690e-07
-2.664902e-05 -6.431245e-06 -3.377317e-22
-2.258624e-05 -1.112710e-05 -1.080393e-06
1.102566e-05 -2.479916e-05 8.254511e-07
-2.032923e-05 -1.799455e-05 8.125247e-07
2.554382e-05 2.817026e-06 -1.337207e-06
2.554382e-05 -2.817026e-06 1.337207e-06
9.818881e-06 2.262808e-05 1.682673e-07
-2.330588e-05 -1.392895e-05 8.100457e-07
2.862237e-06 2.699327e-05 8.188596e-07
-2.714573e-05 7.982015e-07 -8.011421e-07
8.383144e-06 2.319466e-05 -1.370941e-07
-2.643271e-05 -7.269311e-06 -3.377317e-22
-1.685249e-05 -1.803984e-05 2.888776e-07
-2.257391e-05 -1.283028e-05 -1.377123e-06
9.744588e-06 2.529038e-05 -8.726938e-07
1.803033e-05 -1.764938e-05 -1.119970e-06
-5.317431e-06 2.656502e-05 -8.857288e-07
-2.587167e-05 2.956270e-07 -1.369367e-06
-2.017953e-05 -1.433219e-05 -5.029178e-07
2.238344e-05 -1.046888e-05 -3.833332e-07
2.238344e-05 1.046888e-05 3.833332e-07
1.197929e-05 2.323930e-05 -1.374502e-06
2.605892e-05 8.512563e-06 -3.377317e-22
-2.619006e-05 -8.100130e-06 -3.377317e-22
2.243297e-05 -1.286582e-05 -1.367791e-06
2.243297e-05 1.286582e-05 1.367791e-06
6.903055e-06 2.625478e-05 8.154404e-07
-1.915866e-05 1.922829e-05 8.200545e-07
-2.428224e-06 -2.454517e-05 -1.547482e-07
-1.723698e-05 -2.099583e-05 7.904426e-07
-1.219744e-05 2.424465e-05 8.250304e-07
-2.329269e-05 1.400364e-05 7.713412e-07
2.812265e-06 -2.458792e-05 -4.950862e-07
-2.495372e-05 6.419576e-06 -1.352414e-06
-2.592130e-05 -8.922875e-06 -3.377317e-22
1.032638e-05 -2.246020e-05 4.153746e-07
-4.737026e-06 2.574825e-05 1.371229e-06
5.868783e-06 2.644298e-05 -8.923242e-07
1.797285e-05 1.767152e-05 1.101189e-06
9.780813e-08 2.581149e-05 -1.360660e-06
5.763156e-06 2.397846e-05 1.177203e-07
1.937436e-05 -1.708432e-05 -1.363692e-06
1.937436e-05 1.708432e-05 1.363692e-06
-1.927128e-05 -1.739200e-05 -1.376783e-06
-4.763597e-06 2.552361e-05 -1.377073e-06
-2.562669e-05 -9.736725e-06 -3.377317e-22
4.326368e-06 -2.428414e-05 -1.676517e-07
-1.439597e-05 -2.009535e-05 -4.135883e-07
3.050273e-07 2.576203e-05 1.351934e-06
-2.643262e-05 6.150245e-06 8.267978e-07
-4.056949e-06 2.684762e-05 8.081645e-07
9.173498e-07 2.478675e-05 6.203722e-07
1.183443e-05 2.176633e-05 -5.609332e-07
-2.525922e-05 6.558631e-06 1.377516e-06
-2.911568e-06 -2.694732e-05 8.709976e-07
1.262336e-05 -2.239653e-05 -1.339766e-06
-2.530655e-05 -1.054087e-05 -3.377317e-22
2.593368e-05 4.180118e-06 1.359028e-06
2.593368e-05 -4.180118e-06 -1.359028e-06
4.987003e-06 -2.666260e-05 8.448011e-07
1.089996e-05 -2.273760e-05 -1.108617e-06
-2.197489e-05 1.390944e-05 1.378608e-06
2.088431e-07 -2.483522e-05 -6.808482e-07
-1.452737e-05 -2.292788e-05 8.212738e-07
-1.513818e-05 -2.255017e-05 -7.973405e-07
-1.742451e-05 2.077107e-05 8.615023e-07
7.504436e-06 -2.480482e-05 -1.373662e-06
-2.496117e-05 -1.133451e-05 -3.377317e-22
-2.198684e-05 -1.240117e-05 1.128647e-06
-1.706439e-05 -1.973848e-05 1.377716e-06
-2.468227e-05 2.768440e-06 -6.825201e-07
-1.011795e-05 2.515376e-05 8.607207e-07
-2.437344e-05 1.187607e-05 8.602431e-07
-9.665085e-07 -2.467123e-05 -3.037371e-07
-1.596803e-05 -1.887439e-05 4.233249e-07
2.414309e-05 5.440313e-06 -4.956577e-07
2.414309e-05 -5.440313e-06 4.956577e-07
-2.703288e-05 -2.227193e-06 8.454498e-07
-2.459092e-05 -1.211685e-05 -3.377317e-22
-4.751790e-06 -2.571441e-05 -1.374125e-06
1.056425e-05 2.350330e-05 -1.352834e-06
-2.566208e-05 -1.619505e-06 -1.340759e-06
-2.470628e-05 -1.449628e-06 4.965078e-07
-2.612606e-05 7.188013e-06 -8.798990e-07
1.623639e-05 2.040912e-05 -1.378174e-06
2.486694e-05 -7.686880e-06 1.378875e-06
2.486694e-05 7.686880e-06 -1.378875e-06
-2.289171e-05 1.461893e-05 -7.955503e-07
7.513726e-06 -2.605478e-05 8.555489e-07
-2.419615e-05 -1.288711e-05 -3.377317e-22
-5.413981e-06 -2.510077e-05 1.331833e-06
1.370897e-05 -2.237167e-05 -1.363911e-06
2.601780e-05 -7.584391e-06 8.751996e-07
2.602420e-05 7.569288e-06 -8.728514e-07
2.608586e-05 9.403173e-07 -1.377235e-06
2.608136e-05 -9.075427e-07 1.377501e-06
-4.069381e-06 -2.584208e-05 1.373185e-06
-2.599799e-05 1.679142e-07 1.378408e-06
-1.903655e-05 -1.584130e-05 -5.381780e-07
1.070097e-05 2.490765e-05 8.649295e-07
-2.377726e-05 -1.364452e-05 -3.377317e-22
1.416165e-06 -2.470521e-05 -4.886313e-07
-2.323038e-05 -9.709245e-06 -1.079911e-06
-1.911278e-05 -1.743399e-05 1.368932e-06
-2.567316e-05 -2.585724e-06 -1.359214e-06
2.576308e-05 -4.439755e-06 1.374686e-06
2.576308e-05 4.439755e-06 -1.374686e-06
-2.461019e-05 -1.142893e-05 8.323530e-07
-2.408894e-05 5.358275e-06 2.420202e-07
-1.123644e-05 2.256052e-05 1.100118e-06
1.993174e-05 -1.496726e-05 8.188510e-07
-2.333468e-05 -1.438833e-05 -3.377317e-22
1.993174e-05 1.496726e-05 -8.188510e-07
-2.349139e-05 -1.146671e-05 -1.374858e-06
-1.809854e-05 -1.874176e-05 -1.378766e-06
-2.368008e-06 2.705640e-05 -7.978076e-07
-2.451550e-05 -6.291417e-06 -1.172750e-06
1.723935e-05 -1.949760e-05 -1.378864e-06
-2.454011e-05 -3.123578e-06 4.679269e-07
-2.132969e-05 -1.450048e-05 -1.357255e-06
-2.480431e-05 -8.696276e-06 -1.356152e-06
1.903929e-07 2.718277e-05 7.634507e-07
-2.286883e-05 -1.511780e-05 -3.377317e-22
-1.768024e-05 1.796220e-05 1.100073e-06
-2.557607e-05 9.258156e-06 -7.376646e-07
-7.419420e-06 2.616886e-05 -7.374357e-07
-2.549667e-05 -4.331537e-06 -1.367975e-06
-2.169393e-05 -1.629465e-05 8.357288e-07
-2.062087e-06 2.706243e-05 8.238776e-07
1.619232e-05 1.869602e-05 -4.541747e-07
-1.647352e-05 2.019165e-05 1.378686e-06
-9.386165e-06 2.434632e-05 1.377682e-06
-1.354521e-05 2.060260e-05 2.076410e-08
2.577721e-05 9.330963e-06 -3.377317e-22
-2.238018e-05 -1.583221e-05 -3.377317e-22
-2.489060e-05 3.076597e-06 9.944968e-07
-1.926932e-05 1.538276e-05 1.489370e-08
-2.389755e-06 2.454479e-05 1.122307e-07
-2.590126e-05 1.897736e-06 1.377386e-06
-2.361895e-05 1.109580e-05 1.377577e-06
8.891563e-06 2.421177e-05 -1.357430e-06
-1.816486e-05 -1.668647e-05 1.615042e-07
-9.825350e-06 -2.273013e-05 -5.314308e-07
2.380935e-05 1.008201e-05 -1.367202e-06
2.380935e-05 -1.008201e-05 1.367202e-06
-2.186923e-05 -1.653082e-05 -3.377317e-22
-5.278480e-06 2.416564e-05 -4.603765e-07
1.860381e-06 2.469359e-05 -5.332617e-07
6.913562e-06 -2.518622e-05 1.376413e-06
-1.239983e-05 2.136678e-05 -3.601649e-07
-9.653779e-07 -2.560765e-05 -1.316735e-06
-1.842290e-05 1.646298e-05 -3.703345e-07
[...]
POINT_DATA 2424
VECTORS 10.000GHz_fone_imag double
4.941148e-06 3.199373e-06 1.760665e-02
-2.465205e-04 2.755967e-04 1.762549e-02
-6.132522e-04 -1.555460e-04 1.743746e-02
1.339207e-02 -8.850794e-03 -1.926861e-02
-1.539805e-02 -3.758973e-03 -1.869416e-02
1.573530e-02 -3.459291e-03 -1.887894e-02
-7.534008e-03 -2.001594e-02 1.825147e-05
1.707449e-02 1.265446e-02 8.331384e-04
-1.701860e-02 1.257267e-02 6.049723e-04
-9.050052e-03 -1.885754e-02 2.624636e-03
2.281316e-03 -5.488513e-03 -2.479141e-02
-1.801358e-02 1.067804e-02 -9.382281e-03
1.554448e-02 -1.489001e-02 -7.512857e-03
8.922154e-05 -5.536934e-05 1.759785e-02
2.277623e-03 1.834446e-02 -1.609145e-02
4.578080e-04 -9.123164e-06 -2.591384e-02
2.314168e-03 -1.167386e-02 1.419555e-02
1.023092e-02 -1.896385e-02 -7.465409e-03
-1.746039e-02 1.196426e-02 -4.083949e-03
1.776099e-02 1.190502e-02 -3.538690e-03
8.481916e-03 8.543168e-03 -2.214593e-02
1.019877e-02 -6.842400e-03 1.361585e-02
-1.040381e-02 -6.974753e-03 1.354542e-02
-1.720362e-03 -1.177983e-02 1.423901e-02
-1.900631e-04 1.422377e-04 1.764013e-02
-1.334031e-04 -1.321919e-02 1.319433e-02
1.612724e-03 -1.254871e-02 1.363970e-02
-1.203797e-02 1.769011e-02 -1.712650e-03
1.043275e-03 -1.829376e-02 -1.608318e-02
-2.145792e-02 1.688663e-03 -4.603935e-03
2.026191e-03 -2.060145e-02 -1.078214e-02
-2.115622e-02 3.995160e-03 -7.052868e-03
-1.067268e-02 1.590706e-02 -1.433055e-02
9.847290e-03 -3.593845e-03 1.424638e-02
-1.062179e-02 -3.774819e-03 1.420140e-02
6.732994e-06 -2.798937e-04 1.752472e-02
-4.616401e-03 -1.720816e-02 -1.677137e-02
-1.202270e-02 -3.599179e-03 1.332356e-02
-9.950035e-03 -2.017657e-02 -4.851414e-03
1.924022e-02 8.963006e-03 -8.096212e-03
-3.478119e-03 7.193275e-04 -2.541818e-02
-8.031333e-03 7.940843e-03 -2.236044e-02
1.923440e-03 -2.143154e-02 -3.810777e-03
-3.981408e-03 2.541174e-03 -2.540908e-02
8.996919e-03 -9.177799e-03 -2.181457e-02
-2.138479e-02 -6.521653e-04 -1.214611e-03
-6.809061e-04 -6.270062e-04 1.735843e-02
2.138202e-02 -7.058536e-04 -1.188776e-03
-1.518444e-02 1.151855e-02 -1.430279e-02
-9.645605e-03 -4.970798e-03 1.464362e-02
7.129273e-03 4.812764e-03 -2.410764e-02
-9.025185e-03 -7.516748e-03 1.407043e-02
1.173175e-02 -1.792379e-02 -6.345781e-03
-2.068394e-02 5.188785e-03 -7.473737e-03
2.074024e-02 5.251421e-03 -7.528224e-03
1.684819e-02 -1.256805e-03 9.146289e-03
2.157974e-02 -2.209030e-03 -1.776068e-03
4.437287e-04 -8.197508e-05 1.755245e-02
-2.157347e-02 -2.165392e-03 -1.975252e-03
-2.043840e-02 -6.951754e-03 -4.165385e-03
2.015651e-02 -6.579865e-03 -4.751311e-03
-7.847792e-03 -6.080486e-03 -2.346196e-02
6.516533e-03 -5.885557e-03 -2.405149e-02
-3.897072e-03 1.084964e-02 1.411128e-02
-1.987518e-02 7.950118e-03 -5.457214e-05
1.965867e-02 7.744951e-03 4.702244e-05
-2.883274e-03 1.134186e-02 1.392526e-02
1.069270e-02 8.885888e-03 -2.073712e-02
2.834421e-04 2.153305e-04 1.747352e-02
-1.072516e-02 8.982965e-03 -2.057431e-02
-6.586797e-04 -1.794974e-02 8.055147e-03
-6.231697e-03 2.047133e-02 1.526389e-04
-8.323212e-03 -1.046878e-02 -2.174967e-02
5.156968e-03 2.013774e-02 2.740197e-03
-1.618274e-02 7.330318e-03 -1.652087e-02
1.656343e-02 7.273823e-03 -1.630704e-02
4.151561e-03 1.318767e-02 -2.076047e-02
-6.635876e-04 -6.567852e-05 -2.615825e-02
1.619746e-02 -1.134261e-02 -1.286358e-02
3.659063e-04 2.392889e-04 1.753798e-02
-2.670259e-03 9.371222e-03 -2.348105e-02
-8.917424e-03 -7.118333e-03 1.442432e-02
8.480282e-03 -6.654251e-03 1.475001e-02
1.129197e-02 -1.620194e-02 -1.270229e-02
6.713206e-03 -1.940784e-02 -1.137301e-02
-7.971398e-03 -8.595397e-03 1.431018e-02
4.662914e-03 -7.468363e-03 -2.390837e-02
1.595004e-02 -6.489035e-03 -1.812143e-02
-7.211412e-03 1.010158e-02 1.400068e-02
7.685547e-03 1.030384e-02 1.338768e-02
1.437068e-04 2.200169e-04 1.775113e-02
-1.680533e-02 -8.308229e-03 -1.487397e-02
-4.682434e-03 1.038158e-02 1.456547e-02
8.322911e-03 7.264853e-03 1.462474e-02
2.139488e-02 2.475488e-03 -6.444645e-03
-2.145449e-02 2.452611e-03 -6.358856e-03
-1.298649e-03 -2.833593e-03 -2.573868e-02
9.379571e-03 5.920404e-03 1.432767e-02
-1.365715e-03 -1.107886e-02 1.427116e-02
-1.081476e-02 3.036592e-04 1.437277e-02
9.819918e-04 2.477285e-03 -2.590823e-02
-4.240893e-04 -3.243255e-04 1.757397e-02
3.599356e-03 3.995281e-03 -2.473302e-02
-1.902288e-02 -1.080755e-02 -1.993419e-03
4.112089e-03 1.110703e-02 1.395987e-02
1.338152e-02 -1.306415e-02 -1.505851e-02
-2.121217e-03 1.156556e-02 1.393035e-02
-2.139649e-02 4.307962e-04 -3.662738e-03
-6.851412e-03 -5.204472e-03 -2.401486e-02
5.964853e-03 -2.685537e-03 -2.483276e-02
-5.994005e-03 -2.646471e-03 -2.475114e-02
9.818964e-03 1.855946e-02 5.652544e-04
-3.452222e-04 -7.021706e-04 1.728355e-02
4.057959e-04 -3.034542e-05 1.747031e-02
1.941092e-02 -1.046565e-02 -4.391552e-03
-1.867378e-02 -1.085975e-02 -4.037186e-03
-3.497460e-03 -1.073962e-02 1.424519e-02
8.324576e-03 -7.812577e-03 1.428767e-02
-4.091431e-04 -2.158870e-03 -2.590029e-02
7.057278e-03 7.979165e-03 1.488083e-02
5.642976e-03 -1.015966e-02 1.417965e-02
9.147930e-03 -5.159034e-03 1.454739e-02
7.252480e-04 -9.282265e-03 -2.387472e-02
-2.080075e-02 5.353843e-03 -5.342051e-03
-2.870789e-04 5.883760e-04 1.730969e-02
-3.470370e-03 6.375474e-03 -2.437626e-02
3.863849e-03 -2.068339e-02 1.533677e-03
2.793491e-03 1.188836e-02 1.381078e-02
-1.332427e-02 -1.305382e-02 -1.549225e-02
6.996043e-04 2.217802e-02 -5.280749e-03
-2.949198e-04 -2.534308e-03 -2.582923e-02
1.633136e-02 -1.421818e-02 -4.107274e-03
-1.613040e-02 -1.435352e-02 -4.365007e-03
-1.589056e-02 -1.455377e-02 -2.137625e-03
-3.950325e-03 2.135997e-02 -2.217835e-03
-5.635892e-05 -2.767154e-04 1.731574e-02
4.657731e-04 -2.577468e-03 -2.604837e-02
-4.620013e-03 -6.241562e-03 -2.446187e-02
-6.359602e-05 -2.205770e-02 -5.038091e-03
1.111436e-02 -2.414240e-03 1.426151e-02
1.639798e-03 -1.002435e-02 1.527839e-02
4.155440e-04 -1.016293e-02 -2.288385e-02
4.848727e-03 8.898713e-03 -2.350915e-02
2.038349e-02 -5.479427e-03 5.082583e-04
1.187978e-03 1.243632e-02 1.402320e-02
1.062842e-02 -1.871562e-02 -5.551481e-03
-4.131721e-04 -2.858943e-04 1.743265e-02
-2.021860e-02 -2.979306e-03 3.439815e-03
2.034986e-02 -3.279101e-03 3.042828e-03
-2.329633e-03 1.165233e-02 1.412401e-02
8.081879e-03 -1.713285e-02 -1.481003e-02
1.821380e-02 -1.146549e-02 -1.480424e-03
1.693485e-04 -1.145899e-02 -2.243020e-02
5.610697e-03 9.888436e-03 1.420252e-02
-5.931659e-03 -9.124030e-03 1.463170e-02
7.442071e-03 -9.225583e-03 1.396262e-02
6.913910e-03 -2.063364e-02 -3.232901e-03
2.590704e-04 -1.464343e-04 1.742791e-02
1.658758e-02 9.306358e-03 -1.434434e-02
1.349757e-02 1.614253e-02 -6.521333e-04
-1.183054e-02 9.297678e-04 -2.225660e-02
4.572198e-03 -1.125812e-02 1.397448e-02
1.104039e-02 -5.363540e-03 1.360178e-02
-2.227500e-04 -5.539956e-03 -2.530049e-02
4.852532e-03 6.791926e-03 -2.386095e-02
8.828938e-03 2.126757e-03 -2.366269e-02
-8.511250e-03 1.981614e-03 -2.404542e-02
1.126262e-02 9.523892e-04 1.444894e-02
5.663715e-06 3.317923e-04 1.734489e-02
-3.627783e-03 -2.094625e-02 9.732152e-04
9.009765e-03 1.946583e-02 -5.481964e-03
-2.132340e-02 -1.540433e-03 -6.388321e-03
9.181735e-03 4.498398e-04 -2.396035e-02
-1.148252e-02 3.212771e-03 1.374210e-02
1.329638e-02 1.680011e-02 1.124133e-04
-2.120007e-02 6.408920e-03 -1.746664e-03
2.087757e-02 6.391409e-03 -1.353152e-03
-9.371745e-03 5.690820e-03 1.459914e-02
-3.530951e-03 1.171212e-02 1.371958e-02
3.436768e-04 -1.808910e-04 1.743915e-02
4.402861e-03 2.097016e-02 -6.638343e-03
1.096595e-02 -1.757813e-02 2.126358e-03
-1.116152e-02 3.648338e-03 1.425925e-02
1.118133e-02 3.580945e-03 1.396547e-02
2.119315e-02 4.153190e-04 -4.608582e-04
-2.120043e-02 4.324392e-04 -4.766650e-04
3.276442e-03 2.083687e-02 9.040807e-04
2.136770e-02 -1.079358e-03 -9.532628e-04
-7.472363e-03 -6.163540e-03 -2.353876e-02
-4.721951e-03 -1.105068e-02 1.394783e-02
1.889215e-04 1.389232e-04 1.749842e-02
4.466940e-04 -8.839091e-03 -2.377990e-02
-1.625035e-02 -7.112083e-03 -1.591995e-02
1.583471e-02 1.452162e-02 -3.920251e-03
-2.155580e-02 -2.409955e-03 -4.592163e-03
-2.079267e-02 3.541151e-03 7.347845e-04
2.055324e-02 2.901247e-03 1.027654e-03
1.040910e-02 4.867522e-03 1.412844e-02
4.190267e-03 -5.735232e-04 -2.550487e-02
7.942480e-03 -1.630305e-02 -1.545817e-02
-1.099561e-02 8.164278e-03 -2.021232e-02
-1.304992e-05 3.215266e-04 1.748653e-02
1.122003e-02 8.189257e-03 -2.051521e-02
-1.912429e-02 -9.023314e-03 3.464574e-04
-1.499935e-02 -1.557413e-02 -1.175120e-03
-1.124712e-03 1.119811e-02 1.449647e-02
-1.908427e-02 -5.499022e-03 -1.233844e-02
1.442631e-02 -1.629734e-02 -7.717145e-04
8.785095e-03 1.518913e-03 -2.390156e-02
-1.783261e-02 -1.214035e-02 -4.851596e-03
-1.928767e-02 -6.745113e-03 2.876667e-03
-8.435315e-04 -1.074102e-02 1.414655e-02
-3.187063e-05 -2.609081e-04 1.744152e-02
1.262819e-02 -1.320686e-02 -1.544915e-02
-9.214750e-03 3.433486e-03 1.500684e-02
-2.484292e-03 9.835577e-03 1.474344e-02
-2.139789e-02 -3.753913e-03 -3.365422e-03
8.946976e-03 6.731367e-03 1.439811e-02
9.555469e-04 -1.127543e-02 1.456294e-02
5.512454e-03 6.562439e-03 -2.420597e-02
1.401092e-02 -1.599431e-02 -1.126749e-03
7.424301e-03 -1.997629e-02 1.440734e-04
3.216597e-04 -6.037270e-04 -2.591424e-02
-3.234624e-04 -6.007899e-05 1.752452e-02
-3.016805e-04 2.046045e-04 1.750590e-02
1.705829e-02 -1.700429e-03 -1.753032e-02
4.824652e-04 -4.350374e-04 -2.585419e-02
4.994632e-04 -2.370194e-03 -2.571444e-02
2.158535e-02 -1.226222e-03 -1.466209e-03
1.922899e-02 -8.455302e-03 4.304520e-04
7.514437e-03 2.054671e-02 -4.843230e-03
2.301243e-03 2.142272e-03 -2.582191e-02
-3.549562e-03 -9.262247e-03 -2.335747e-02
1.960828e-02 8.562216e-03 -3.707722e-03
-2.004384e-02 8.408869e-03 -3.571447e-03
-7.278614e-05 -2.590260e-05 1.759168e-02
-1.587495e-03 8.085758e-03 -2.421677e-02
7.625518e-04 9.771234e-03 -2.389425e-02
-5.433968e-03 2.025883e-02 4.747023e-04
-3.690324e-03 5.972395e-03 -2.478233e-02
-7.897573e-04 -2.133729e-02 -7.499590e-03
-4.894708e-03 4.942712e-03 -2.487528e-02
-6.956959e-03 2.036581e-03 -2.478602e-02
1.536173e-02 -1.253729e-02 5.154023e-03
-1.507795e-02 -1.272134e-02 4.525932e-03
7.597234e-03 1.250036e-02 -2.031364e-02
-3.014378e-04 -2.445070e-04 1.749848e-02
7.986883e-03 2.695250e-03 -2.389329e-02
-7.847426e-03 2.548376e-03 -2.394140e-02
-5.531888e-03 -1.514051e-03 -2.531267e-02
5.424667e-03 -1.870294e-03 -2.506648e-02
6.313061e-04 -4.435859e-03 -2.424269e-02
2.106731e-02 4.438825e-03 -3.739266e-03
-2.838071e-03 -7.937678e-04 -2.592054e-02
-2.106210e-03 -8.892113e-03 -2.385534e-02
1.196060e-02 1.687300e-02 1.731109e-03
-2.382636e-04 2.077218e-02 9.676969e-04
-1.204263e-05 -3.471325e-04 1.763998e-02
-7.216880e-03 8.116100e-03 1.474756e-02
-2.192456e-03 -2.007161e-02 -1.190713e-02
1.613392e-02 2.629744e-03 -1.826554e-02
-3.863998e-03 -8.721271e-03 1.481792e-02
-8.629548e-03 9.954757e-03 -2.092884e-02
1.874792e-02 6.224268e-03 4.573052e-03
7.726844e-03 -6.649051e-03 1.503601e-02
-7.706206e-03 -6.840856e-03 1.508307e-02
-9.472982e-03 -5.899727e-03 1.451256e-02
-8.119549e-03 -4.326179e-03 1.539813e-02
2.302279e-04 1.230000e-04 1.753826e-02
-8.173081e-03 -1.339720e-02 -1.949044e-02
4.164741e-03 9.983450e-03 1.465331e-02
1.647221e-02 -5.665221e-03 8.661044e-03
3.707705e-05 1.049366e-02 1.501100e-02
1.676899e-02 1.353459e-02 -8.079905e-04
1.339880e-02 -3.019115e-04 -2.103851e-02
-1.327355e-02 -2.093979e-04 -2.102731e-02
3.271108e-03 9.777514e-03 1.520004e-02
-5.588462e-03 9.792043e-03 1.442498e-02
-1.963932e-02 4.785240e-03 3.298550e-03
-3.518349e-04 -1.357878e-04 1.757565e-02
1.977572e-02 4.949009e-03 3.528578e-03
8.944154e-03 5.961033e-03 1.461951e-02
3.088336e-03 9.952592e-03 1.485311e-02
-2.512699e-03 -1.144747e-02 -2.260048e-02
-4.933496e-03 -9.009355e-03 1.486048e-02
1.202403e-02 -1.690002e-02 2.327664e-03
-1.455620e-03 2.110754e-02 -7.275815e-03
-1.529076e-03 -1.031078e-02 1.462714e-02
-2.386579e-04 1.044031e-02 1.477216e-02
-9.308074e-04 1.051411e-02 1.468342e-02
-5.380796e-05 -1.538599e-05 1.770709e-02
9.470247e-03 -1.463763e-02 9.113526e-03
2.966237e-03 2.130169e-02 -3.039117e-03
-2.288355e-03 -1.128835e-02 1.453299e-02
-7.413907e-03 7.012875e-03 1.489827e-02
1.863313e-02 -7.148286e-03 3.950545e-03
1.354624e-02 -1.115976e-02 8.631710e-03
-1.808626e-02 -1.181231e-02 -6.039541e-03
4.666853e-03 -1.664131e-02 8.928107e-03
1.118790e-02 1.847269e-02 -4.060525e-03
6.561581e-03 -1.931792e-02 3.320323e-03
-6.136444e-05 -1.539572e-04 1.766009e-02
1.543117e-02 -4.341247e-03 -1.857360e-02
-1.298430e-02 -1.243505e-04 -2.129926e-02
1.348271e-02 1.524265e-02 -1.169961e-02
-7.270276e-03 2.033727e-02 -5.612479e-03
-9.407453e-03 -1.715022e-03 1.545768e-02
3.240200e-03 5.047840e-03 -2.509873e-02
1.119287e-02 1.828447e-02 -3.153978e-03
1.568450e-02 3.225140e-04 -1.907147e-02
-6.655189e-03 2.046128e-02 -3.435188e-03
-1.983245e-02 8.587869e-03 -5.670167e-03
2.624120e-04 -1.007422e-04 1.741578e-02
1.987851e-02 7.359149e-03 -4.469844e-03
-1.937172e-02 8.369706e-03 -4.258278e-03
1.046324e-02 -1.396120e-02 -1.654079e-02
-3.449100e-03 -1.861453e-02 -1.442420e-02
1.203024e-03 9.858430e-03 1.498348e-02
-2.042527e-02 2.789978e-03 2.476694e-03
-4.808954e-03 8.873753e-03 1.499645e-02
-9.899727e-03 -1.944327e-02 -2.303830e-03
-8.953021e-03 1.417059e-02 -1.761352e-02
7.366511e-03 -7.079046e-03 1.508020e-02
-1.326346e-04 2.032262e-04 1.760027e-02
-1.448676e-02 -1.483047e-02 3.099803e-03
6.224532e-03 7.972553e-03 1.450770e-02
-7.501121e-03 9.495849e-03 1.364498e-02
-1.878740e-02 -7.707989e-03 3.422414e-03
1.040987e-02 1.871698e-02 -5.727739e-03
-1.034694e-02 1.273109e-02 -1.794943e-02
-1.960819e-02 3.769740e-03 3.605778e-03
-1.394066e-02 1.605213e-02 -7.137262e-03
1.876799e-02 5.587566e-03 3.717811e-03
6.630176e-03 -1.993846e-02 -5.386742e-05
2.862530e-04 3.030147e-05 1.765408e-02
-6.191495e-05 1.770831e-04 1.779861e-02
-1.977955e-02 -8.559050e-03 -1.828535e-03
1.984067e-02 -8.063382e-03 -2.227519e-03
9.957816e-04 -1.894164e-03 -2.546079e-02
-6.098729e-03 -6.323684e-03 -2.382349e-02
1.540443e-02 5.536492e-03 -1.814854e-02
-1.502128e-02 5.747276e-03 -1.785601e-02
5.600401e-03 9.655288e-03 1.445334e-02
3.876892e-03 -1.545396e-02 -1.866424e-02
-1.210772e-02 -1.724725e-02 -1.204232e-03
-5.161591e-03 -1.882336e-02 4.666630e-03
-2.263363e-04 -3.656460e-04 1.774597e-02
-6.552552e-03 6.687697e-03 1.521010e-02
6.548458e-03 6.777973e-03 1.509602e-02
1.909666e-02 8.072606e-03 -1.039398e-02
1.614258e-03 -1.853195e-03 -2.579902e-02
2.053740e-02 2.146040e-03 -1.028829e-02
1.212529e-02 -5.818462e-03 -2.143388e-02
4.671233e-03 -1.034124e-02 1.444852e-02
-3.240129e-03 -7.494699e-03 -2.445868e-02
-1.015621e-02 1.856818e-02 -2.191288e-03
-1.100923e-02 -9.705516e-04 1.446921e-02
3.390326e-04 1.203881e-04 1.771528e-02
-1.098976e-02 -1.862864e-02 -3.786702e-03
-8.774653e-03 3.771134e-03 1.504251e-02
-2.895799e-03 2.040881e-02 2.605601e-03
-1.751536e-03 2.072075e-02 -9.641102e-03
7.156089e-03 5.980106e-03 1.561078e-02
1.256283e-02 1.133512e-02 -1.736873e-02
5.022750e-03 8.810014e-03 1.519520e-02
-7.874285e-03 -8.357991e-03 -2.211036e-02
-5.153812e-03 -8.561364e-03 1.502151e-02
1.577854e-02 -4.366773e-03 -1.932108e-02
-6.337147e-04 2.546758e-04 1.729370e-02
-1.541171e-02 -4.498462e-03 -1.891638e-02
6.524064e-03 1.693521e-02 -1.635432e-02
-1.056483e-02 -1.889306e-02 -3.556048e-03
-1.057884e-02 1.478533e-03 1.444098e-02
1.046483e-02 1.584913e-03 1.439450e-02
-5.209194e-03 -8.585071e-03 1.498836e-02
7.255119e-04 2.029706e-02 3.115144e-03
-5.661572e-03 -9.388455e-04 -2.499213e-02
-1.827540e-02 9.602651e-03 2.446575e-03
-1.888826e-03 2.025234e-02 3.381053e-03
1.468120e-04 -3.374373e-04 1.749309e-02
-1.091290e-02 4.104773e-03 -2.277704e-02
1.713691e-02 -1.177553e-02 2.047720e-03
2.090980e-02 2.659807e-03 -1.699050e-04
-1.013029e-02 4.999262e-03 1.439016e-02
-9.744129e-03 2.248165e-03 1.494574e-02
9.832363e-03 2.396389e-03 1.497610e-02
-5.835478e-03 -8.167901e-03 1.512937e-02
2.495517e-04 -2.158349e-02 -5.432171e-05
1.517908e-03 2.174071e-02 -2.629499e-03
4.608780e-03 -1.295886e-02 -2.137838e-02
3.025743e-04 3.049226e-04 1.741609e-02
-3.332308e-03 1.078574e-02 -2.264372e-02
2.052135e-03 -1.018943e-03 -2.575862e-02
9.927814e-03 3.227167e-03 1.479735e-02
1.225877e-02 1.753170e-02 -9.119377e-04
-6.149804e-03 -2.036726e-02 -9.103426e-04
4.739759e-04 -5.284482e-04 -2.592498e-02
-1.130041e-02 1.720992e-02 2.169505e-03
-5.667032e-03 -8.100928e-03 -2.355471e-02
2.601484e-04 9.932222e-05 -2.584392e-02
7.355548e-03 -7.956459e-03 1.514407e-02
2.441749e-04 6.082374e-04 1.743395e-02
2.829090e-03 -1.288554e-03 -2.568421e-02
5.039213e-03 1.017034e-02 -2.320097e-02
-8.024182e-03 5.623089e-03 1.520683e-02
2.770156e-03 -1.234545e-02 -2.204554e-02
2.033421e-02 7.599773e-03 -4.777037e-03
9.552723e-03 -2.483833e-03 1.508918e-02
-9.435085e-03 -2.315904e-03 1.546415e-02
-2.143044e-03 2.135785e-02 -5.060734e-03
-1.824849e-02 -9.402195e-03 3.226220e-03
1.833837e-02 -9.205887e-03 3.374297e-03
-3.828661e-04 -2.693191e-04 1.733508e-02
5.273851e-03 -8.193987e-03 1.510013e-02
-9.705221e-03 -3.729772e-03 1.465058e-02
-1.201068e-03 -4.981448e-03 -2.546410e-02
2.472769e-03 -9.429190e-03 1.574344e-02
-8.328616e-03 -1.973567e-02 -8.267444e-03
-1.416778e-02 2.100576e-03 -2.028475e-02
-5.027998e-03 2.076325e-02 -2.575356e-04
6.701537e-03 1.829520e-02 5.029059e-03
7.398591e-03 4.040045e-03 1.593569e-02
-8.744223e-03 4.827067e-03 1.517105e-02
-4.479220e-04 -3.444210e-04 1.743935e-02
2.959732e-03 4.870404e-04 -2.571616e-02
-2.918603e-03 4.534641e-04 -2.581883e-02
1.777539e-02 1.024629e-02 2.874017e-03
-1.787455e-02 1.037114e-02 2.549468e-03
-1.610722e-02 1.391564e-02 6.475554e-04
-1.093218e-02 1.440777e-02 -1.608552e-02
-1.877549e-02 8.779708e-03 2.817541e-03
1.896450e-02 9.463505e-03 -6.773177e-04
-1.897547e-02 9.335711e-03 -5.282478e-04
1.641878e-02 -1.139499e-03 -1.864893e-02
-4.929335e-05 -6.955710e-05 1.747017e-02
6.845098e-03 7.801996e-03 1.515656e-02
3.563830e-04 -4.314233e-04 -2.564382e-02
-2.394686e-04 1.414300e-04 -2.562781e-02
-6.612514e-03 -1.240662e-02 -2.037941e-02
1.585448e-02 9.588125e-04 -1.855567e-02
-1.590306e-02 1.003452e-03 -1.860527e-02
-2.127023e-03 -1.938224e-02 5.026342e-03
-2.051355e-02 -6.589051e-03 -3.876466e-03
2.089650e-02 -6.802498e-03 -3.300972e-03
6.668247e-03 1.941722e-02 2.326405e-03
1.809822e-04 6.372078e-07 1.770689e-02
-2.471571e-04 -6.791016e-04 1.761558e-02
-7.358342e-03 7.473304e-03 1.492191e-02
-1.100145e-02 1.831361e-02 8.214571e-04
-1.676655e-02 -1.288907e-02 -4.110293e-06
-1.078901e-02 -1.353694e-03 1.474146e-02
1.076360e-02 -1.329666e-03 1.464203e-02
7.276244e-03 -6.586877e-03 1.533587e-02
1.058524e-03 4.903678e-03 -2.517177e-02
1.932071e-03 -9.612381e-03 1.510891e-02
4.878723e-03 -8.517562e-03 1.535886e-02
2.130655e-02 1.515726e-03 -4.817736e-04
6.972802e-05 -1.373111e-04 1.758434e-02
5.915948e-03 7.789394e-03 1.509669e-02
1.557885e-02 4.385280e-03 -1.913158e-02
-1.488185e-02 1.006924e-02 -1.617846e-02
-1.784681e-02 1.126040e-02 -8.518710e-03
-5.266667e-03 8.936606e-03 1.510619e-02
1.015419e-02 5.437205e-03 1.412854e-02
2.121527e-02 3.035371e-03 -3.245704e-03
2.127199e-02 2.974413e-03 -4.695982e-03
-2.130078e-02 2.713122e-03 -4.796775e-03
-8.981134e-03 -3.252800e-03 -2.373659e-02
5.579650e-04 3.935455e-04 1.757007e-02
8.929392e-03 -3.501420e-03 -2.406422e-02
9.031848e-03 -2.788675e-03 1.545329e-02
-1.262350e-02 -1.732681e-02 -5.341812e-03
-2.615417e-04 -2.051067e-03 -2.602228e-02
1.118039e-02 1.612796e-03 -2.273336e-02
-1.107526e-02 1.712000e-03 -2.279546e-02
-1.130647e-02 -1.385246e-02 -1.656872e-02
9.561838e-03 -2.760495e-03 1.486927e-02
-9.984621e-03 -3.111415e-03 1.489946e-02
9.334434e-03 -1.756185e-03 1.520189e-02
1.290418e-04 4.969180e-05 1.754562e-02
-1.953094e-03 2.211487e-03 -2.542604e-02
-2.108950e-03 5.920991e-03 -2.481772e-02
-7.654833e-03 1.588590e-02 -1.679155e-02
6.762079e-03 2.047714e-02 -2.119592e-03
-1.181195e-02 -1.411620e-02 -1.477076e-02
-1.176944e-03 7.360053e-04 -2.567221e-02
6.761707e-03 7.531529e-04 -2.474298e-02
-6.855247e-03 7.087376e-04 -2.473304e-02
3.835119e-03 9.801064e-03 1.494807e-02
-7.005746e-03 -8.095396e-03 1.541306e-02
4.827137e-05 5.625166e-05 1.774809e-02
9.534407e-03 -9.114186e-04 1.533147e-02