# vtk DataFile Version 2.0
Electric current density generated by TTH
ASCII
DATASET UNSTRUCTURED_GRID
POINTS 1861 double
5.819865e-06 -1.405040e-05 -5.358907e-22
1.441259e-06 -1.073863e-05 1.097024e-07
1.162106e-07 1.263161e-05 2.153270e-06
1.209254e-05 7.779475e-07 1.993102e-06
-3.305061e-07 1.332615e-05 -2.165845e-06
4.957538e-06 -1.345226e-05 1.747482e-06
4.441868e-06 -1.186504e-05 2.159623e-06
1.269808e-05 -5.727458e-06 -1.989764e-06
1.600557e-07 -1.246897e-05 2.117656e-06
2.409174e-06 -1.059190e-05 -3.627068e-07
1.401959e-06 1.361859e-05 2.082681e-06
6.726344e-06 -1.363968e-05 -5.358907e-22
5.085061e-06 -1.181328e-05 -2.182165e-06
-6.086416e-06 -1.106610e-05 -2.152782e-06
-3.281003e-06 -1.226601e-05 -2.163988e-06
-1.437287e-05 2.335644e-07 1.718126e-06
-1.390813e-05 3.101065e-06 1.809770e-06
-1.634271e-06 -1.497489e-05 7.812629e-07
9.942078e-06 1.003911e-05 -1.886112e-06
-2.912568e-06 1.340037e-05 2.075244e-06
-1.274682e-05 -4.078619e-07 -2.171618e-06
1.077182e-05 -9.497835e-06 -1.728820e-06
7.604020e-06 -1.317055e-05 -5.358907e-22
5.930163e-06 -9.733738e-06 1.468195e-06
-8.827527e-06 -6.629157e-06 9.297173e-07
3.250012e-06 1.036848e-05 3.827830e-07
-1.035064e-05 3.206365e-06 1.277359e-07
1.374706e-05 -6.228713e-06 7.020812e-07
-7.368876e-06 1.238713e-05 -1.687088e-06
-7.902454e-06 7.593287e-06 7.350399e-07
2.107335e-06 1.489463e-05 8.337213e-07
3.039922e-06 1.472949e-05 -8.410833e-07
-1.034597e-05 9.946003e-06 -1.736312e-06
8.449134e-06 -1.264502e-05 -5.358907e-22
1.111752e-06 -1.429674e-05 1.745052e-06
8.554779e-06 7.386964e-06 1.355612e-06
-7.857674e-06 7.609641e-06 -6.736540e-07
7.925047e-06 1.070853e-05 -2.166994e-06
-1.127839e-05 9.954962e-06 -8.327172e-07
-4.534825e-08 1.161100e-05 1.673848e-06
-1.267998e-05 1.240852e-06 -2.170008e-06
-1.787462e-06 1.165459e-05 -1.809989e-06
-1.277363e-05 -5.701634e-06 1.962026e-06
-6.466945e-06 -1.268562e-05 -1.817034e-06
9.258068e-06 -1.206535e-05 -5.358907e-22
6.904820e-06 1.029749e-05 2.097688e-06
-2.542378e-07 -1.082931e-05 2.418306e-08
-1.192972e-05 9.741882e-07 1.919159e-06
-1.145736e-05 -5.186058e-06 -2.142481e-06
5.550491e-06 -1.400321e-05 7.830118e-07
-1.502461e-05 1.479795e-06 6.872278e-07
1.023516e-05 -1.004894e-05 -1.742227e-06
-2.169999e-06 -1.146515e-05 1.720700e-06
1.277074e-05 5.745251e-06 1.954455e-06
-1.199123e-05 -8.274205e-06 1.545437e-06
1.002736e-05 -1.143401e-05 -5.358907e-22
-6.163119e-06 1.137032e-05 -2.186214e-06
-8.100685e-06 -7.330735e-06 -6.313656e-07
-9.570751e-06 8.138088e-06 -2.139648e-06
-1.178494e-05 -9.380401e-06 7.848370e-07
-1.292716e-05 -3.347261e-07 2.186145e-06
9.842864e-06 -6.941563e-06 -1.958332e-06
-5.738435e-06 -9.406634e-06 -8.842837e-07
-1.454917e-05 3.928287e-06 7.644240e-07
-3.639000e-06 -1.158778e-05 2.005635e-06
-9.593741e-06 5.691493e-06 1.143810e-06
1.075371e-05 -1.075371e-05 -5.358907e-22
-8.223352e-06 -1.167618e-05 1.787835e-06
7.821549e-06 -1.288256e-05 -7.619888e-07
9.658937e-06 -9.852107e-06 2.045337e-06
-9.310816e-06 -6.451239e-06 -1.386295e-06
8.004303e-06 -1.273923e-05 8.283733e-07
-1.449267e-05 4.162340e-06 -7.415366e-07
1.181909e-05 -8.295740e-06 -1.664725e-06
8.961241e-06 1.210569e-05 7.870217e-07
-4.423211e-06 -1.442370e-05 -7.185715e-07
-1.405967e-06 1.349791e-05 2.117465e-06
1.143401e-05 -1.002736e-05 -5.358907e-22
-4.161140e-06 1.446398e-05 -8.148421e-07
1.125761e-05 1.835772e-06 1.477417e-06
8.599030e-06 -1.176849e-05 1.538924e-06
9.343290e-06 -7.543631e-06 -1.940023e-06
-3.425205e-06 -1.469594e-05 7.094599e-07
8.630234e-06 -9.120352e-06 2.138226e-06
1.029389e-05 1.103771e-05 -7.004539e-07
-5.313521e-06 1.412574e-05 7.029139e-07
4.635656e-06 1.036285e-05 1.416335e-06
-2.774010e-06 -1.060527e-05 -7.426766e-07
1.206535e-05 -9.258068e-06 -5.358907e-22
1.238460e-05 8.571235e-06 -7.876350e-07
-1.120266e-05 4.808122e-06 2.024718e-06
1.274625e-05 6.706358e-06 1.695605e-06
6.087518e-06 9.043901e-06 -5.477540e-07
8.490986e-06 -7.369582e-06 -1.276478e-06
2.601413e-06 -1.437394e-05 -1.505795e-06
-8.370627e-06 -8.218308e-06 -1.767591e-06
-1.159168e-06 1.083769e-05 -5.386670e-07
1.075758e-05 -3.407945e-06 1.332189e-06
1.214810e-05 -7.717891e-07 2.017129e-06
1.264502e-05 -8.449134e-06 -5.358907e-22
-1.182312e-06 -1.280073e-05 2.181718e-06
1.133391e-05 -5.516696e-06 2.148243e-06
-6.937439e-06 -1.337878e-05 7.635261e-07
-1.008242e-05 -3.975395e-06 1.576922e-07
-9.094812e-06 -6.045008e-06 -6.154954e-07
1.360979e-05 3.782160e-06 -1.888138e-06
-1.485430e-05 -2.483628e-06 7.898452e-07
-8.222467e-06 -1.020852e-05 2.186168e-06
1.132085e-05 6.899976e-06 2.174981e-06
-1.025426e-05 -5.346189e-06 -1.633265e-06
1.317055e-05 -7.604020e-06 -5.358907e-22
8.749861e-06 -1.230120e-05 -6.921352e-07
-1.251837e-05 2.238687e-06 2.166839e-06
3.979312e-06 -1.408461e-05 -1.475154e-06
-6.324958e-06 -8.888096e-06 5.742510e-07
2.715504e-06 -1.195339e-05 2.050906e-06
-3.698722e-06 1.165981e-05 -2.041228e-06
1.349363e-05 -4.113759e-06 -1.899006e-06
-3.213780e-06 -1.150251e-05 -1.904470e-06
6.715618e-06 -1.190816e-05 -2.088792e-06
6.975885e-06 -1.029182e-05 2.107754e-06
1.363968e-05 -6.726344e-06 -5.358907e-22
-1.263311e-05 4.134510e-06 -2.170921e-06
4.778231e-06 9.776029e-06 4.610047e-07
-8.247533e-06 8.726441e-06 -1.939353e-06
1.318132e-06 1.500759e-05 -7.771462e-07
-8.269919e-06 1.163215e-05 1.794182e-06
1.201708e-05 2.700884e-06 -2.071841e-06
-8.191144e-07 1.152127e-05 1.620774e-06
1.438143e-05 2.047856e-06 1.586769e-06
1.437645e-05 -2.049495e-06 1.591213e-06
-4.808310e-06 -1.341932e-05 -1.806301e-06
1.405040e-05 -5.819865e-06 -5.358907e-22
-4.771518e-06 -1.276629e-05 2.101549e-06
-8.100770e-06 -1.205018e-05 -1.592949e-06
2.992739e-06 -1.308584e-05 -2.150393e-06
1.011434e-05 -4.981307e-06 1.319014e-06
9.112779e-06 -1.115252e-05 -1.696189e-06
-1.423165e-05 1.528230e-06 -1.764735e-06
9.305478e-06 5.546591e-06 6.494632e-08
-1.430015e-05 -4.562793e-07 -1.769141e-06
-1.410572e-05 -2.149435e-06 -1.796795e-06
8.042792e-06 7.697103e-06 -1.106315e-06
1.440095e-05 -4.888464e-06 -5.358907e-22
2.703454e-07 1.089272e-05 5.249725e-07
1.439134e-05 2.001413e-06 -1.583590e-06
1.442011e-05 -1.950765e-06 -1.562689e-06
1.445947e-05 -4.386233e-06 -6.472615e-07
1.442852e-05 -4.361954e-06 7.555392e-07
1.443919e-05 4.373457e-06 7.176724e-07
-1.272729e-05 -5.012198e-06 -2.086472e-06
8.375484e-06 -6.890578e-06 2.428579e-07
1.009735e-05 -5.515126e-06 -1.578802e-06
1.926009e-06 1.077891e-05 7.072718e-07
1.468984e-05 -3.936130e-06 -5.358907e-22
8.106318e-06 1.191986e-05 -1.685533e-06
3.163190e-06 1.113529e-05 1.643543e-06
1.269156e-05 -6.471911e-06 1.811944e-06
-6.859697e-06 -1.138151e-05 -2.171368e-06
-1.226064e-05 -1.510006e-06 2.083848e-06
-1.061357e-05 5.284478e-06 -1.852788e-06
-9.341536e-06 6.775560e-06 1.611366e-06
-1.144543e-06 -1.108040e-05 -1.117979e-06
-1.146825e-05 -8.779760e-06 -1.661919e-06
1.164147e-05 3.178185e-06 1.969681e-06
1.491582e-05 -2.966941e-06 -5.358907e-22
9.369689e-07 1.270180e-05 -2.169457e-06
1.505112e-05 7.783444e-07 7.615343e-07
1.505112e-05 -7.783444e-07 7.615343e-07
-2.885444e-06 1.234893e-05 2.161589e-06
-1.027595e-05 7.304862e-06 -2.148737e-06
9.298814e-06 1.083287e-05 -1.791225e-06
-1.254388e-05 -1.981830e-06 -2.164320e-06
1.505223e-05 7.756032e-07 -7.589177e-07
1.505223e-05 -7.756032e-07 -7.589177e-07
-1.327546e-05 5.751602e-07 -2.171487e-06
1.507793e-05 -1.985048e-06 -5.358907e-22
-2.485630e-06 -1.235759e-05 2.148220e-06
-1.047722e-05 -6.753506e-06 -2.116413e-06
-6.866506e-06 1.341719e-05 7.590531e-07
-4.367981e-06 9.958026e-06 4.252903e-07
-7.091289e-06 1.333572e-05 -6.669754e-07
-1.018938e-05 1.114138e-05 -6.847129e-07
5.767015e-06 -1.069178e-05 -2.006597e-06
2.909142e-06 1.082403e-05 -1.226354e-06
1.283645e-05 7.982217e-06 6.282821e-07
1.283645e-05 -7.982217e-06 6.282821e-07
1.517548e-05 -9.946534e-07 -5.358907e-22
-1.043741e-05 -1.088477e-05 -7.364529e-07
4.196768e-06 -1.448653e-05 7.313616e-07
-1.108941e-05 -4.771385e-07 -1.048340e-06
-9.524528e-06 -1.108482e-05 1.498092e-06
-1.333162e-05 -7.125902e-06 -6.260170e-07
-1.090894e-05 4.267860e-07 6.043484e-07
1.129536e-05 -7.008315e-06 2.170864e-06
1.729391e-06 -1.497638e-05 -7.488357e-07
5.015714e-07 1.434193e-05 -1.736830e-06
1.087334e-05 6.911232e-07 5.217597e-07
1.499137e-05 -3.671826e-21 9.493115e-07
-9.336574e-06 9.480989e-06 -2.169125e-06
-1.357238e-05 -4.675163e-06 -1.733510e-06
-1.138078e-05 -5.523664e-06 2.156481e-06
-4.731269e-07 1.510607e-05 -6.362658e-07
5.891392e-06 9.759375e-06 1.470201e-06
-1.084418e-05 -3.797384e-06 1.563773e-06
-5.926885e-06 1.325674e-05 1.591661e-06
-1.131072e-05 2.417142e-06 1.634927e-06
1.036965e-05 8.669114e-06 -2.130993e-06
-1.078788e-06 1.090489e-05 7.316451e-07
1.438426e-05 -3.523127e-21 1.710600e-06
1.313474e-06 1.105792e-05 -1.111738e-06
-1.870611e-06 -1.146767e-05 -1.680672e-06
-1.231638e-05 8.748391e-06 -6.565811e-07
6.390783e-06 -1.299676e-05 1.626944e-06
-1.283910e-05 7.983868e-06 6.177527e-07
4.579815e-06 1.438740e-05 -6.828929e-07
-4.391615e-06 -9.993421e-06 -5.991752e-07
9.398442e-06 -6.362102e-06 1.412647e-06
-1.175391e-05 6.567700e-06 -2.142360e-06
1.157791e-05 5.489701e-06 -2.178160e-06
1.350696e-05 -3.308252e-21 2.133083e-06
-5.162636e-06 1.250608e-05 -2.127747e-06
6.784630e-06 8.741821e-06 -9.836473e-07
3.841577e-06 -1.248474e-05 2.187531e-06
1.010625e-05 -7.491776e-06 2.143274e-06
-1.113153e-05 6.052512e-06 2.159843e-06
-1.149225e-05 -3.700867e-06 -1.972544e-06
-1.039108e-05 -3.200256e-06 4.193690e-07
-9.461538e-06 1.175899e-05 -7.005138e-07
6.758923e-06 1.182434e-05 2.104158e-06
-5.694518e-06 -1.319620e-05 1.719956e-06
1.253324e-05 -3.069758e-21 2.133083e-06
-8.389632e-06 1.250021e-05 8.049003e-07
-1.403196e-05 5.535704e-06 -7.249976e-07
-1.416188e-05 -5.240374e-06 6.779790e-07
-8.326948e-06 -7.920691e-06 1.566279e-06
-1.078482e-05 1.856991e-06 -6.891439e-07
7.754751e-06 9.356495e-06 -2.008514e-06
-1.062062e-05 -2.994872e-06 -9.195929e-07
-9.553332e-06 5.268702e-06 -5.779509e-07
-2.704960e-06 -1.363502e-05 -2.002887e-06
2.534388e-07 1.506550e-05 7.711719e-07
1.165594e-05 -2.854883e-21 1.710600e-06
[...]
POINT_DATA 1861
VECTORS 10.000GHz_fone_imag double
-3.091759e+10 -1.142610e+10 1.203485e+08
-8.095626e+10 -1.241566e+10 2.566226e+09
6.169134e+10 1.576065e+09 -2.001517e+09
8.351232e+09 -8.025176e+10 2.318745e+09
5.257501e+10 4.544971e+09 1.039641e+09
-4.318976e+10 -1.867280e+10 -2.710982e+09
-6.641070e+10 -2.854164e+10 1.520187e+09
-2.438990e+10 -5.319361e+10 -1.226775e+09
-6.083935e+10 -3.831403e+09 1.732300e+09
-1.012463e+11 -2.032289e+10 -2.421918e+08
6.079084e+10 -6.453271e+09 -1.237796e+07
-2.827267e+10 -1.621590e+10 -7.588037e+08
-5.951415e+10 -2.607243e+10 -1.096277e+09
-5.051021e+10 2.648560e+10 4.029145e+08
-5.821311e+10 1.674651e+10 1.804829e+09
3.546256e+08 3.598421e+10 -6.818882e+08
8.434641e+09 4.035254e+10 1.650212e+09
-3.908602e+10 3.656669e+09 -1.476484e+09
3.318125e+10 -3.219829e+10 1.736899e+09
4.482593e+10 1.227172e+10 -7.050192e+08
5.908129e+09 5.992057e+10 -2.038930e+09
-2.650633e+10 -2.700469e+10 -2.581784e+09
-2.740012e+10 -1.369220e+10 -5.135112e+08
-6.544550e+10 -3.993077e+10 -3.954537e+07
-5.911100e+10 8.185820e+10 -6.008579e+08
1.017112e+11 -3.278093e+10 -2.913536e+09
2.447582e+10 7.751569e+10 -1.345018e+08
-1.614639e+10 -3.374427e+10 4.961251e+08
4.092610e+10 2.550564e+10 7.352764e+08
7.122433e+10 7.333425e+10 1.233953e+09
4.308756e+10 -6.091502e+09 -1.831892e+09
3.951396e+10 -7.641009e+09 -2.171404e+09
3.703197e+10 3.029296e+10 -5.565505e+09
-3.519341e+10 -2.331786e+10 -1.434260e+09
-5.395091e+10 -4.020705e+09 -1.846737e+08
6.494580e+10 -6.421792e+10 2.880120e+09
5.831216e+10 6.002435e+10 -1.157268e+09
4.019969e+10 -3.445553e+10 -5.633729e+08
2.884077e+10 3.248705e+10 1.665644e+09
7.668850e+10 -5.217207e+09 -7.300280e+09
6.368053e+09 7.764111e+10 -4.624035e+08
8.895514e+10 1.327997e+10 -3.891035e+09
-2.131750e+10 4.388674e+10 1.378992e+09
-3.615206e+10 1.843650e+10 4.952499e+07
-2.932741e+10 -2.377041e+10 -1.048463e+09
6.483729e+10 -4.377241e+10 -3.238330e+09
-9.130032e+10 9.408607e+09 -1.048846e+10
7.407733e+09 8.784430e+10 1.549313e+09
-3.989986e+10 7.214199e+10 -2.531363e+08
-4.137103e+10 -1.490692e+10 1.355154e+08
4.682311e+09 4.072764e+10 2.480043e+09
-2.618739e+10 -2.685148e+10 1.542617e+09
-6.760003e+10 8.558750e+09 1.643622e+09
1.629999e+10 -3.610242e+10 -2.137233e+08
-2.820350e+10 3.868399e+10 -3.141240e+09
-2.606833e+10 -2.384642e+10 2.358170e+09
4.166123e+10 2.503655e+10 -3.827751e+09
-5.904784e+10 6.550431e+10 1.119506e+10
3.550521e+10 4.335419e+10 -5.914661e+08
-2.263704e+10 2.838507e+10 1.308445e+09
-4.336734e+08 6.009854e+10 7.873342e+07
-5.037207e+10 -6.380389e+10 2.560808e+09
-7.420427e+10 4.923983e+10 2.519543e+08
1.196084e+10 4.293873e+10 -1.316194e+09
-8.317331e+10 2.499866e+10 -1.057502e+08
4.292268e+10 6.553654e+10 2.178129e+09
-2.651513e+10 -2.420261e+10 -1.168229e+09
-4.484400e+10 3.051672e+10 -4.642995e+08
-3.541291e+10 -1.896405e+10 -3.599874e+09
-3.591245e+10 -3.711448e+10 1.226902e+09
-5.854024e+10 8.886805e+10 3.425662e+09
-2.880029e+10 -1.680426e+10 1.545422e+09
1.310140e+10 3.705622e+10 -1.472353e+09
-2.540397e+10 -3.789537e+10 6.888440e+08
2.587239e+10 -1.875092e+10 2.155911e+08
-2.445394e+10 7.526681e+09 -1.286421e+08
5.959664e+10 7.434171e+09 -2.717483e+07
-2.164790e+10 -2.647562e+10 4.430043e+09
3.667998e+10 1.136681e+10 6.859698e+08
1.522921e+10 -8.013773e+10 4.037466e+09
-3.005033e+10 -2.197408e+10 -3.085789e+08
-3.947266e+10 -5.275673e+10 2.970951e+09
-3.800897e+10 1.031685e+10 -3.562773e+08
-5.104993e+10 -4.706945e+10 5.174886e+08
2.705070e+10 -2.496682e+10 -2.548730e+09
3.485086e+10 1.286357e+10 -6.581163e+07
8.381741e+10 -4.155222e+10 6.619777e+09
-9.219048e+10 3.040988e+10 5.903581e+09
-1.963421e+10 -2.483714e+10 -9.960353e+08
1.854485e+10 -2.810528e+10 3.416194e+08
3.678464e+10 7.052983e+10 -2.155126e+09
1.925911e+10 -3.396778e+10 -5.623634e+08
7.585230e+10 -5.283959e+10 5.335655e+09
-5.896572e+10 -6.646499e+10 8.466413e+09
-3.525845e+10 -7.429981e+09 9.996357e+07
-6.275784e+10 6.651722e+10 2.201497e+09
1.037046e+11 1.259586e+10 -4.765569e+09
-2.844391e+10 -9.155580e+10 1.911427e+09
-2.423163e+09 -7.787680e+10 3.115650e+09
-2.304346e+10 -3.387312e+10 -3.127188e+09
-6.853530e+10 1.112955e+10 -1.106358e+09
-3.364445e+10 -7.153174e+10 2.125882e+08
-3.095860e+10 1.684057e+10 -1.040465e+09
-3.552262e+10 9.891761e+10 4.522924e+09
-4.450721e+10 6.728488e+10 -3.507846e+08
1.951222e+10 -4.615133e+10 4.969863e+09
-3.750269e+09 3.153091e+10 -1.985963e+08
-4.288699e+10 3.160549e+10 1.729573e+08
3.317567e+10 -5.165817e+10 3.366838e+08
-3.840125e+10 6.848802e+10 -3.514634e+09
-1.407059e+10 -2.774807e+10 5.341493e+08
-2.716020e+10 -2.021010e+10 -8.734550e+08
8.929104e+09 6.640111e+10 3.361978e+09
-2.952465e+10 -6.690471e+09 2.690486e+08
-8.593010e+10 6.446520e+10 -5.812877e+09
-6.443210e+10 -1.253210e+10 2.264190e+09
7.081731e+10 2.461225e+10 2.503488e+08
-1.062503e+10 -4.646802e+10 3.333151e+09
-8.910812e+10 2.911285e+10 1.895390e+09
-3.837121e+10 -2.869066e+10 3.536325e+09
-5.670762e+10 -4.286622e+10 6.927915e+08
-1.436795e+10 -2.689301e+10 -1.262339e+09
1.295234e+10 4.258563e+10 1.234144e+09
9.215490e+10 -4.399008e+10 1.430818e+08
4.885777e+10 4.878798e+10 -5.579950e+08
3.920529e+10 -4.231833e+09 -2.875359e+09
3.110307e+10 2.055569e+10 1.102696e+08
1.976818e+10 -6.715476e+10 2.852151e+09
7.233826e+10 3.659581e+09 -1.618149e+09
6.095279e+09 -4.732996e+10 6.634853e+08
-5.210780e+09 -4.540287e+10 -2.499904e+09
-4.290883e+10 1.427453e+10 3.308098e+09
-1.402145e+10 -3.609164e+10 -9.320437e+08
-4.152512e+10 1.642084e+10 -1.111667e+09
-3.178338e+10 2.073170e+10 -7.267866e+08
-6.189294e+10 -1.739597e+10 2.245025e+09
-3.504453e+10 -7.368453e+10 -4.117409e+09
-3.446967e+10 -3.160665e+10 -6.027378e+08
2.479831e+09 4.187565e+10 2.094842e+09
4.167922e+10 -7.077096e+10 4.295433e+08
-5.231819e+09 4.304697e+10 4.049502e+07
-5.584244e+09 3.512585e+10 -6.586129e+07
5.108861e+10 -5.442690e+10 4.098825e+07
-9.719802e+09 -2.909372e+10 -3.482229e+07
7.709144e+10 -6.638876e+09 -5.256427e+09
4.909061e+09 -3.443454e+10 2.882586e+08
-3.388566e+09 -3.861034e+10 2.693515e+09
-1.074801e+10 -2.906122e+10 -8.019437e+08
-1.022787e+10 -3.753346e+10 -1.375251e+09
9.955122e+09 -3.418044e+10 3.152570e+09
-1.716350e+10 4.431733e+10 -1.655445e+09
-7.663620e+10 -9.533326e+10 8.812303e+09
-3.796960e+10 -7.488208e+10 -3.316724e+09
1.023618e+11 -2.419181e+10 -3.812270e+09
-8.821086e+09 -3.177802e+10 2.103693e+09
3.532446e+10 -1.798513e+10 2.304971e+09
8.453393e+10 -1.688775e+10 3.735192e+09
-1.700155e+10 -3.252195e+10 -1.709957e+08
-5.755062e+10 3.861852e+10 -6.659328e+08
-5.783775e+09 7.074806e+10 -9.775588e+08
3.999837e+10 8.002573e+10 -2.789314e+09
3.890393e+10 6.319335e+10 8.226820e+08
-8.622540e+10 8.331055e+09 -4.053365e+09
-2.682444e+10 2.852706e+10 3.197953e+09
1.909177e+10 -8.069165e+10 -2.740294e+09
-8.557220e+09 -3.993093e+10 1.165490e+09
5.508190e+10 -2.564566e+09 -8.155442e+07
1.336635e+09 -4.182624e+10 9.465975e+08
-1.150637e+09 -3.399378e+10 -2.855023e+08
5.435595e+10 1.035627e+10 -2.116987e+09
3.462716e+10 4.492912e+10 5.194065e+07
3.060372e+10 -3.201665e+10 -3.721938e+09
-1.332731e+10 6.514027e+10 -2.847896e+08
2.284710e+08 -3.467599e+10 -1.165823e+09
-1.276439e+09 -3.032076e+10 1.882565e+08
3.874298e+09 5.139967e+10 -2.534868e+09
-5.540934e+09 -3.458488e+10 8.847910e+08
-7.030167e+10 1.529665e+10 -2.115279e+09
-3.385864e+10 5.213555e+10 2.431318e+08
3.912929e+10 1.899096e+10 2.726907e+09
9.842230e+10 4.365967e+10 5.671361e+09
2.596459e+10 1.456786e+10 -1.129222e+09
2.543087e+10 2.333148e+10 1.108168e+09
-5.758233e+10 -3.009555e+10 1.010020e+09
8.782982e+10 -2.530254e+10 3.669267e+09
2.067143e+10 -3.359619e+10 6.808384e+08
-1.985165e+10 -3.531737e+10 -4.197708e+09
-2.370403e+09 -4.052157e+10 -8.881078e+08
-2.860323e+10 2.641208e+10 1.772004e+09
-3.155371e+10 -8.172856e+09 9.738516e+08
-9.513334e+09 8.188835e+10 -2.497637e+09
-2.797195e+10 2.366721e+10 6.238360e+08
-2.088194e+10 3.728177e+10 2.317468e+09
2.335820e+09 8.703500e+10 7.657502e+08
-2.696116e+10 -4.701718e+10 -9.994190e+08
-4.237515e+10 -4.959460e+09 1.355820e+09
3.682629e+10 3.180581e+09 1.515128e+09
3.920495e+09 -8.108339e+10 3.569801e+09
-8.562465e+08 -4.426596e+10 7.544259e+08
4.338973e+10 4.030293e+10 -8.640216e+08
-1.218770e+10 3.659260e+10 -1.775694e+09
-2.013152e+10 4.644867e+10 -1.718325e+09
3.780496e+10 1.615787e+09 1.347538e+06
6.186386e+10 -3.510567e+10 -9.105556e+08
-2.876587e+10 8.506460e+10 3.674956e+09
3.433546e+10 1.566807e+10 -3.357800e+08
2.281049e+10 7.767728e+10 -2.304903e+09
3.658554e+10 -4.580324e+10 -8.172948e+08
9.737100e+10 1.072069e+10 4.737239e+09
6.602784e+08 -3.721097e+10 1.348796e+09
1.168266e+11 -1.861010e+10 -2.909316e+09
-1.088916e+11 1.252486e+10 -4.756556e+09
2.098808e+10 2.898875e+10 3.242029e+09
-4.516258e+10 -2.029651e+10 1.727363e+09
1.733020e+10 2.922335e+10 5.370606e+08
3.880498e+10 -1.117720e+10 1.199597e+09
-7.543250e+10 3.889004e+10 4.292278e+09
-4.491302e+10 -7.634833e+10 4.703380e+09
2.827559e+10 4.038368e+10 -1.782961e+09
2.081205e+10 -4.550882e+10 1.079811e+09
1.960190e+09 -5.448661e+10 8.581473e+08
4.818962e+10 2.594794e+10 2.931881e+09
5.932602e+10 -4.555842e+10 -1.893695e+09
-4.529917e+10 -1.510564e+10 1.454239e+08
-3.501756e+10 -4.848923e+10 -2.654704e+09
3.388542e+10 5.861966e+10 1.094473e+09
-2.422571e+10 8.381528e+10 4.509295e+08
-3.252676e+10 1.030100e+11 -4.960966e+09
2.514533e+10 2.064904e+10 -7.152302e+08
3.968740e+10 -2.163403e+10 -4.292742e+08
-3.420237e+10 9.372705e+09 -4.112085e+09
6.208606e+08 -5.888737e+10 -2.510601e+08
3.028084e+10 2.013136e+10 4.625141e+08
9.760298e+09 2.841621e+10 7.075135e+08
-1.159833e+10 3.105434e+10 -2.383165e+09
-4.879258e+10 5.341298e+10 -1.822159e+09
1.623903e+10 1.078441e+11 -5.634080e+09
4.952732e+10 -3.996727e+10 5.491543e+08
-2.584952e+10 7.977928e+10 -1.371440e+09
5.942508e+10 9.451633e+10 -2.629934e+09
-4.044259e+10 7.808642e+09 7.466603e+08
3.056358e+10 -8.235679e+08 8.007330e+08
1.536452e+09 -8.684835e+10 -6.798506e+08
-2.448898e+10 6.228591e+10 -1.481681e+08
6.079478e+10 -9.393581e+09 5.619389e+08
-2.141494e+10 -2.620786e+10 5.556872e+08
2.245747e+10 -2.376284e+10 -3.718836e+09
2.406462e+09 4.836238e+10 -1.096016e+09
3.254622e+10 3.587088e+10 9.223489e+08
-1.110042e+10 -4.074782e+10 5.198665e+08
-8.973890e+09 6.212382e+10 1.850602e+09
7.711312e+10 2.415295e+10 3.149387e+09
-3.374530e+10 1.923602e+10 5.363859e+08
1.662895e+09 -8.204774e+10 1.564061e+08
2.959641e+09 -8.186791e+10 3.553066e+09
1.002390e+10 3.937981e+10 -2.951268e+09
2.791901e+10 -6.961945e+10 4.947884e+08
-1.312686e+09 3.807156e+10 1.445407e+07
-7.478269e+10 -6.004506e+10 7.862390e+09
4.916644e+10 1.191661e+10 2.918811e+09
4.947297e+08 -5.060781e+10 4.136105e+08
-3.547524e+10 2.233708e+10 1.421910e+09
3.095731e+10 2.253819e+10 -1.272250e+09
2.320458e+10 -2.734340e+10 -4.769903e+07
-4.813745e+09 -1.060834e+11 -4.067880e+09
-6.315661e+10 3.525585e+10 -3.558671e+09
-4.919741e+10 -2.874714e+09 1.901371e+08
-3.555111e+10 1.117477e+10 -2.813252e+09
2.990637e+10 3.334862e+09 -2.515222e+09
-4.161618e+10 5.437335e+10 5.834653e+08
-4.386366e+10 -9.224747e+10 6.983734e+09
-5.673057e+10 -1.483904e+09 6.977844e+08
-9.134103e+10 -1.021484e+10 8.841145e+09
-6.471169e+10 -2.827079e+10 -1.768697e+09
7.663629e+09 3.988589e+10 1.595923e+09
-1.586192e+09 -7.428680e+10 -1.251808e+09
-9.005755e+09 5.002589e+10 -1.739758e+09
-1.067400e+10 3.870243e+10 1.795208e+09
-5.011509e+10 1.346486e+10 6.184174e+08
7.065016e+08 8.321559e+10 -1.339506e+09
-2.570509e+10 9.199713e+10 1.745686e+09
5.805604e+10 4.690711e+10 6.139915e+08
4.990781e+10 1.921594e+10 4.608848e+08
-6.354346e+09 -3.923490e+10 -1.660593e+09
-2.530684e+10 7.748457e+10 -3.268218e+09
2.078254e+10 3.036616e+10 2.054297e+09
-5.240449e+08 -8.174538e+10 6.054136e+08
2.275463e+10 -3.834356e+10 -9.578396e+08
3.464245e+10 -2.556805e+10 -5.193080e+08
3.604404e+10 -1.709174e+10 1.167179e+09
-6.145029e+10 2.734534e+10 1.180343e+09
3.597917e+10 -7.612382e+10 -1.090069e+09
1.145067e+10 -4.183392e+10 -7.260809e+08
5.616166e+10 -3.166664e+10 -1.002699e+08
-1.023822e+11 -4.972105e+10 -9.486334e+08
2.960865e+10 -9.769678e+09 4.471304e+08
-2.173036e+10 8.117661e+10 1.081059e+09
-3.216736e+09 -7.136552e+10 7.111524e+07
-1.571675e+10 -3.489980e+10 6.665063e+08
5.642185e+10 -1.149916e+10 -1.313138e+09
-6.539232e+10 -3.357377e+10 2.988669e+09
-3.756590e+10 8.911348e+09 1.769115e+09
-6.686189e+10 9.108481e+09 -6.536853e+08
2.636431e+10 -4.123061e+10 5.094868e+08
-2.812666e+10 3.690457e+10 -1.118488e+09
3.932010e+10 9.599764e+09 -1.169266e+09
6.308304e+10 -1.040228e+10 1.905768e+09
9.657716e+10 8.176208e+09 -2.869075e+08
6.904296e+08 -4.409433e+10 -9.610557e+08
1.353006e+10 -3.340674e+10 8.741683e+08
6.306954e+10 4.702310e+09 -3.761556e+08
-3.939234e+10 -1.795147e+10 1.292019e+08
6.616685e+10 8.094388e+10 1.559781e+09
-3.668236e+10 -2.280787e+09 -3.615863e+09
-1.445622e+10 2.562751e+10 3.530056e+08
-3.243574e+10 4.882240e+08 1.507635e+09
-1.565164e+10 1.002435e+11 -1.093460e+10
8.326766e+10 4.807538e+10 5.737470e+08
-4.053873e+10 5.910406e+10 8.581620e+08
-6.992087e+08 -4.583490e+10 -2.693051e+09
-3.527812e+10 -4.374879e+10 -3.716351e+08
-1.105638e+10 3.608417e+10 2.457564e+09
-1.746912e+10 3.790893e+10 2.176581e+08
-1.408126e+10 1.053822e+11 -3.364337e+09
1.967760e+10 -2.187579e+10 4.124740e+08
-2.948196e+10 -3.118012e+10 -1.361493e+09
-1.192962e+10 3.812909e+10 -9.097745e+08
-8.610765e+10 7.645933e+09 -3.636034e+08
-3.927270e+10 -2.458068e+10 -1.177774e+09
7.116117e+10 1.863925e+10 3.045516e+09
4.232499e+08 -3.276970e+10 2.488793e+08
-2.086432e+10 2.363962e+10 -1.195674e+09
-6.346022e+10 1.884246e+10 1.340814e+08
3.820575e+10 -1.148772e+10 1.087235e+09
1.029676e+10 3.122187e+10 -8.772895e+08
5.696280e+09 3.461698e+10 4.448599e+08
-4.792185e+10 4.159821e+10 1.564772e+09
-2.572795e+10 -7.580054e+10 -2.559099e+09
-7.825358e+10 -6.608690e+10 -6.624062e+09
-3.313844e+10 2.531178e+10 1.102597e+09
-3.464578e+10 3.091333e+10 -1.181491e+09
7.621562e+10 -3.631112e+10 4.229912e+09
-8.316124e+10 -4.154521e+10 -1.948695e+10
-1.900090e+10 -4.296316e+10 -1.156140e+09
-1.004336e+11 4.266105e+10 -3.751828e+09
-7.641192e+10 -1.328474e+10 -6.191943e+07
7.524204e+10 -5.508371e+10 4.703371e+09
5.805092e+10 -9.210083e+10 -1.535847e+09
8.396379e+10 1.273989e+10 -9.488859e+08
3.628303e+10 -9.656099e+10 -7.665262e+08
4.461297e+10 2.214533e+10 1.684824e+09
9.677446e+09 4.465740e+10 1.762365e+09
-6.174971e+10 -3.890771e+10 6.912551e+08
3.617231e+09 -3.589013e+10 -3.119256e+09
-4.904978e+09 -4.070068e+10 3.745210e+09
-5.243750e+09 3.373669e+10 1.454249e+09
-2.033569e+08 3.146308e+10 -1.461895e+09
5.230751e+09 3.533145e+10 -4.882477e+09
-5.339416e+10 1.178363e+10 -1.353918e+09
4.475412e+08 -3.713955e+10 -5.756786e+08
-2.141119e+09 -4.177313e+10 -1.821492e+09
-2.274629e+10 -1.917923e+10 3.477123e+08
-5.024140e+10 4.398716e+10 2.408041e+09
3.743768e+10 1.328464e+10 2.962483e+08
3.692733e+10 -6.831226e+10 -2.373619e+09
-3.152988e+10 -4.720773e+10 2.854392e+09
8.285547e+10 3.485400e+10 3.720404e+09
-1.552211e+10 -2.559372e+10 7.911142e+08
3.161796e+10 8.413637e+10 -4.206512e+09
6.979662e+10 -4.396152e+10 -1.083220e+08
-3.434313e+10 6.443353e+10 1.672780e+09
6.485039e+09 4.708936e+10 7.629477e+08
6.231271e+10 -2.216920e+10 7.665711e+08
-4.521718e+10 -1.284050e+10 -7.420298e+06
6.936255e+09 3.884191e+10 6.226516e+08
-3.127591e+10 1.725617e+10 1.728424e+09
4.205633e+10 -2.674185e+09 -2.732075e+08
-3.190988e+10 4.443783e+10 9.513045e+08
8.172928e+10 -1.919538e+10 6.266140e+08
7.674683e+10 -2.829376e+10 1.402709e+08
1.306469e+10 2.795700e+10 -2.590796e+08
-1.383586e+10 4.473349e+10 -1.041525e+09
3.900276e+10 1.176836e+10 5.183523e+08
-1.324202e+10 5.535411e+10 -4.516680e+08
2.781796e+10 3.190698e+10 3.071883e+08
-3.390701e+10 2.735256e+10 1.241405e+09
-4.838163e+10 -4.645939e+09 1.650912e+09
-4.251629e+10 5.841475e+09 -1.533101e+09
1.154732e+10 -4.451387e+10 1.011622e+09
5.270466e+10 7.287664e+10 5.753018e+09
-3.194635e+10 -4.144841e+09 3.896290e+08
8.886603e+09 3.711037e+10 3.515887e+09
1.842607e+10 -2.936397e+10 5.484451e+08
-4.086703e+10 -2.910926e+10 3.785896e+08
-2.670513e+10 1.487402e+10 -4.627000e+08
-4.563501e+09 -3.928515e+10 1.987657e+09
-2.706909e+10 7.727192e+10 -3.787687e+08
3.572392e+09 -4.004418e+10 1.531666e+09
-3.220175e+09 -3.914523e+10 2.100654e+09
4.150675e+09 -3.954871e+10 8.025066e+08
-7.128339e+10 -1.681346e+10 5.602054e+09
-4.441537e+10 7.279247e+09 -7.570002e+08
7.567314e+10 3.503167e+09 -3.935456e+09
-5.820005e+10 -1.021400e+10 -1.602309e+09
-6.195918e+10 4.649288e+10 6.355554e+08
-7.269262e+10 4.632951e+10 1.439573e+08
-1.706847e+10 -2.883135e+10 2.091573e+09
6.322157e+10 8.005863e+10 -6.663024e+09
3.238458e+10 -5.474230e+10 2.395098e+08
8.249285e+09 4.466049e+10 1.740730e+09
7.506919e+10 1.967861e+10 3.025465e+08
-2.477642e+10 1.962098e+10 -1.787525e+08
2.078398e+10 7.439329e+10 -1.270545e+08
2.397074e+10 3.418114e+10 -3.075338e+09
2.509001e+10 3.184054e+10 2.929820e+09
-5.317105e+10 2.458846e+09 1.322869e+09
-3.756845e+10 1.765273e+10 1.476929e+09
3.023267e+10 4.988667e+10 -1.387368e+09
-8.321284e+10 8.817166e+09 1.026482e+10
-6.602924e+10 6.312506e+10 -2.223246e+09
-7.566010e+09 4.738516e+10 4.631648e+09
-4.233244e+09 4.759785e+10 8.514774e+08
-9.073611e+09 -8.302059e+10 4.463924e+09
5.169577e+10 -1.579410e+10 6.076641e+08
-6.937985e+10 -9.601106e+10 4.982953e+09
8.563877e+10 4.416273e+10 4.986989e+09
-2.309091e+09 3.083216e+10 9.959021e+08
3.617483e+10 6.256584e+09 -5.996157e+08
2.527235e+10 2.331112e+10 9.758143e+08
-2.961492e+10 -4.703831e+10 -5.427361e+08
-3.445471e+10 2.933798e+10 -1.210729e+08
6.131511e+10 7.484633e+09 -1.146823e+09
2.469471e+10 -1.071674e+10 -1.050954e+09
-1.247430e+10 4.633255e+10 -2.004293e+08
-3.327525e+10 1.477837e+10 -3.985676e+08
7.655958e+10 -7.858756e+10 -3.892074e+09
-3.050392e+10 6.975554e+10 1.057899e+09
-2.099187e+10 -4.026742e+10 1.532203e+09
3.259230e+10 3.147286e+10 -2.546996e+08
-5.914723e+10 2.540813e+10 5.618029e+07
2.122283e+10 -3.565208e+10 6.165738e+07
8.584060e+10 -3.975716e+10 5.397953e+09
5.171875e+10 7.752558e+09 -3.364566e+08
-2.274578e+10 4.390153e+10 -2.305899e+09
-4.241924e+10 -6.265878e+10 -8.246180e+08
3.119588e+10 -1.297051e+10 1.634781e+09
3.771635e+10 -1.369011e+10 1.288561e+09
-2.730580e+10 -2.162554e+10 4.071552e+08
-3.730217e+09 -7.912510e+10 2.936575e+08
-1.033473e+09 -1.135421e+11 -7.751191e+09
9.009434e+10 7.048514e+10 2.219634e+09
2.503563e+10 -4.130845e+10 -6.857406e+08
9.958707e+10 2.568317e+10 -2.400371e+09
-6.696642e+10 6.471979e+10 -5.132946e+09
3.901933e+10 2.277815e+10 -1.702349e+08
6.260000e+10 -7.934203e+09 -2.681522e+08
-9.236658e+10 3.512841e+10 2.880296e+09
-1.034282e+11 -5.525646e+10 -3.395561e+09
-3.987599e+10 6.734979e+09 -2.172966e+09
1.026463e+10 -3.516742e+10 -2.385313e+09
-3.185590e+10 2.167933e+10 -3.486379e+09
-1.064586e+11 3.646647e+10 2.651737e+09
-2.255869e+10 -4.232954e+10 -4.547852e+08
4.056701e+10 -7.104218e+10 8.094355e+08
-3.830362e+08 5.823631e+10 -7.556813e+08
-4.962837e+10 -6.706038e+09 -3.114336e+08
2.715374e+10 -1.071604e+11 7.429029e+09
4.615308e+10 6.892991e+10 3.022775e+09
8.476777e+10 4.620596e+10 -1.011552e+10
-8.531231e+10 3.233763e+09 1.186946e+09
-8.727625e+09 5.077013e+10 -1.833002e+07
-1.100550e+10 -3.919483e+10 -1.034166e+09
-4.513871e+10 3.714936e+10 -5.699529e+08
8.321966e+10 6.853795e+09 -1.629248e+09
2.290247e+10 -1.950583e+10 -1.637319e+08
-2.980783e+10 -1.612873e+10 2.838743e+08
3.391842e+10 -2.198050e+10 3.683102e+09
-1.005015e+11 3.938485e+10 6.107526e+08
2.279627e+10 6.261027e+10 -4.264190e+09
5.164147e+10 -4.558082e+10 1.466364e+09
-6.017222e+10 -9.799925e+10 2.942112e+09
-9.280204e+10 6.534328e+10 -1.371583e+09
2.780519e+10 -1.791209e+10 -2.516086e+08
4.216453e+10 9.574937e+09 -6.208296e+08
8.014390e+10 -5.731410e+10 2.503095e+09
-7.842183e+10 1.529495e+10 2.027424e+08
5.247530e+10 4.734468e+10 -1.680750e+09
-8.991539e+10 6.461355e+10 -4.983622e+09
-3.295734e+10 4.234967e+10 -8.394747e+08
5.448122e+10 5.150304e+10 -1.536762e+09
-2.955938e+10 -6.554491e+10 -4.724862e+09
-3.921153e+10 4.184311e+10 -3.091195e+08