# vtk DataFile Version 2.0
Electric current density generated by TTH
ASCII
DATASET UNSTRUCTURED_GRID
POINTS 10758 double
3.349861e-05 2.305632e-05 -1.225878e-22
3.186953e-05 2.361750e-05 -3.807808e-08
-6.431583e-06 3.935588e-05 4.094216e-07
-9.122520e-07 3.986751e-05 4.094216e-07
-3.782393e-05 1.263332e-05 4.094216e-07
-3.597694e-05 -1.720204e-05 4.094216e-07
-3.983084e-05 -1.937686e-06 4.094216e-07
-3.422929e-05 -2.045986e-05 4.094216e-07
-3.905767e-05 8.046670e-06 4.094216e-07
-3.950499e-05 5.441145e-06 4.094216e-07
1.339589e-05 3.741770e-05 -2.683547e-07
3.922822e-05 6.147978e-06 -2.000986e-07
3.186953e-05 -2.361750e-05 -3.807808e-08
3.922822e-05 -6.147978e-06 -2.000986e-07
-2.414465e-05 3.149094e-05 -1.272468e-07
2.549538e-05 -3.164637e-05 -1.638903e-07
1.805321e-06 -4.059862e-05 1.638903e-07
-3.544657e-06 -4.047847e-05 1.786181e-07
3.924873e-05 6.154054e-06 2.429823e-07
3.924873e-05 -6.154054e-06 2.429823e-07
2.942144e-05 -2.803356e-05 -1.640662e-07
3.610421e-05 1.675058e-05 3.423212e-07
4.406471e-06 -4.010363e-05 -4.673395e-07
-1.302157e-05 -3.747236e-05 7.094786e-08
2.322175e-05 -3.298966e-05 4.680517e-07
2.321882e-05 3.299291e-05 4.676825e-07
3.813828e-05 1.401858e-05 -1.793248e-07
3.425685e-05 -2.186281e-05 1.636344e-07
3.425685e-05 2.186281e-05 1.636344e-07
-3.957263e-05 2.942999e-06 -1.277928e-07
-3.241053e-05 -2.289653e-05 -1.296581e-07
-1.875011e-05 -3.497326e-05 -1.297476e-07
-3.131288e-05 2.543691e-05 4.682109e-07
-4.033911e-05 -5.378069e-07 4.682109e-07
3.327137e-05 -2.164173e-05 1.572276e-07
-2.691858e-05 -3.006612e-05 4.630942e-07
-1.928971e-05 -3.544698e-05 4.630942e-07
-1.178578e-05 -3.887930e-05 -1.958914e-07
-3.499628e-05 2.065843e-05 -1.637822e-07
-3.727706e-05 1.618427e-05 -1.637822e-07
6.798954e-06 4.006600e-05 -1.637822e-07
1.048016e-05 3.926419e-05 -1.637818e-07
4.063369e-05 4.832150e-07 1.700403e-07
4.063369e-05 -4.832150e-07 1.700403e-07
1.769032e-05 -3.614394e-05 -4.948367e-07
3.327137e-05 2.164173e-05 1.572276e-07
3.648559e-05 1.563643e-05 -1.698892e-07
1.387665e-05 -3.715883e-05 4.740489e-09
4.011185e-05 2.726129e-06 -4.990156e-07
4.011185e-05 -2.726129e-06 -4.990156e-07
1.924518e-05 3.468447e-05 -2.540441e-08
1.965250e-05 -3.477410e-05 4.482571e-07
3.919138e-05 -7.865462e-06 -4.618086e-07
3.919138e-05 7.865462e-06 -4.618086e-07
-1.005580e-05 -3.936849e-05 -1.809888e-07
2.802014e-05 -2.857457e-05 4.789152e-07
3.960707e-05 -2.605591e-06 1.631900e-07
-2.119970e-06 -3.996423e-05 -4.789136e-07
1.380878e-05 -3.792579e-05 4.606840e-07
2.375263e-05 3.186231e-05 -2.655604e-07
3.816362e-05 -1.391385e-05 2.083706e-07
2.638695e-05 3.088342e-05 2.083696e-07
6.257831e-06 -4.013598e-05 -2.083671e-07
2.184965e-05 -3.424398e-05 2.083671e-07
2.184965e-05 3.424398e-05 2.083671e-07
-3.370518e-05 -2.145968e-05 -4.548291e-07
-2.054785e-05 -3.426869e-05 -4.548291e-07
3.960707e-05 2.605591e-06 1.631900e-07
-3.934744e-05 6.945987e-06 -4.543133e-07
-3.869220e-05 -9.973251e-06 -4.547978e-07
-3.863636e-05 1.018742e-05 -4.547972e-07
-3.970133e-05 -4.511760e-06 -4.547952e-07
-3.773433e-05 -1.314069e-05 -4.548291e-07
-2.605053e-05 3.029722e-05 -4.547940e-07
1.663774e-06 3.992229e-05 -4.548291e-07
-2.787231e-05 -2.863026e-05 -4.548291e-07
-3.554768e-05 -1.824610e-05 -4.548291e-07
5.870640e-06 -4.021327e-05 1.615746e-07
2.929712e-05 -2.675129e-05 -8.772024e-08
-4.417498e-06 -4.038637e-05 1.939068e-07
3.002266e-05 -2.737175e-05 -1.939016e-07
3.003298e-05 2.736266e-05 -1.902913e-07
-1.987087e-05 -3.477504e-05 -4.873645e-07
-3.753908e-05 -1.396331e-05 -4.873697e-07
-3.526331e-05 -1.897694e-05 -4.857699e-07
-2.732975e-05 -2.927869e-05 -4.873697e-07
-3.300785e-05 2.267393e-05 -4.857699e-07
-3.896532e-05 -9.237378e-06 -4.857699e-07
-4.672243e-06 3.977179e-05 -4.857699e-07
2.929712e-05 2.675129e-05 -8.772024e-08
-2.039170e-05 3.446452e-05 -4.857699e-07
-3.881789e-05 9.838529e-06 -4.857699e-07
-3.332617e-05 -2.221535e-05 -4.873645e-07
4.591545e-06 3.978119e-05 -4.857699e-07
-2.639788e-05 3.011274e-05 -4.857699e-07
-3.986978e-05 -3.745099e-06 -4.857699e-07
8.877630e-07 4.003545e-05 -4.857699e-07
-4.000393e-05 1.819538e-06 -4.857699e-07
-1.768384e-05 3.593670e-05 -4.873916e-07
-2.551122e-05 3.086750e-05 -4.857699e-07
-4.283638e-06 -3.944112e-05 8.763513e-08
-3.868028e-05 -1.036635e-05 -4.857699e-07
-3.851543e-05 1.096296e-05 -4.857699e-07
-3.974404e-05 -4.902692e-06 -4.857699e-07
2.458717e-05 3.201340e-05 -4.588786e-07
-3.672773e-05 1.607804e-05 -4.951406e-07
6.587956e-06 3.954780e-05 -4.951406e-07
1.022208e-05 3.876775e-05 -4.951407e-07
2.317292e-05 3.224384e-05 -2.000559e-07
-6.959907e-07 -4.063097e-05 1.690185e-07
2.669697e-05 3.064034e-05 -1.620440e-07
3.331942e-05 2.331452e-05 -1.225878e-22
3.887408e-05 -8.030986e-06 1.697064e-07
2.738873e-05 -3.002584e-05 -1.571068e-07
2.231936e-05 3.310631e-05 4.399561e-07
2.231936e-05 -3.310631e-05 4.399561e-07
5.184995e-06 -3.959577e-05 -4.434763e-07
1.078344e-05 -3.918252e-05 -1.622589e-07
-4.060887e-05 1.569989e-06 -1.625218e-07
-9.414487e-06 3.953369e-05 -1.625218e-07
-1.123690e-05 3.905480e-05 -1.625218e-07
-3.016927e-05 2.722793e-05 -1.625218e-07
-3.675941e-05 1.732891e-05 -1.625218e-07
3.887408e-05 8.030986e-06 1.697064e-07
-4.466540e-06 4.039301e-05 -1.625218e-07
-7.571832e-06 3.992759e-05 -1.625218e-07
-2.045545e-05 3.511581e-05 -1.625218e-07
-1.538859e-05 3.761299e-05 -1.625218e-07
1.284159e-05 3.805757e-05 -5.005025e-07
1.146590e-05 -3.870130e-05 -4.595726e-07
3.363000e-05 2.104119e-05 -6.823229e-08
3.363000e-05 -2.104119e-05 -6.823229e-08
1.592273e-05 -3.710223e-05 -4.548812e-07
1.996860e-05 -3.537412e-05 2.079333e-07
3.529934e-05 -1.809259e-05 -2.442219e-08
3.721191e-05 1.632405e-05 -1.743787e-07
3.942984e-05 4.527484e-06 -1.518590e-07
3.942984e-05 -4.527484e-06 -1.518590e-07
-3.649644e-05 -1.667592e-05 4.988959e-07
-2.218280e-05 -3.343650e-05 4.988959e-07
-2.860944e-05 2.813496e-05 4.988959e-07
-3.983980e-05 4.781918e-06 4.988959e-07
-2.927229e-05 -2.744466e-05 4.988959e-07
2.772687e-05 2.968633e-05 2.083587e-07
2.449179e-05 3.241797e-05 1.879634e-07
3.529934e-05 1.809259e-05 -2.442219e-08
2.448530e-05 -3.241745e-05 1.982984e-07
3.070226e-06 -4.051633e-05 -1.809252e-07
2.663260e-05 -3.037902e-05 4.422082e-07
1.141578e-07 -4.040009e-05 -4.422081e-07
2.646172e-05 -3.084366e-05 -1.622170e-07
5.496174e-07 -4.063560e-05 1.622170e-07
-1.533822e-05 -3.666700e-05 2.721925e-07
2.876412e-05 2.870859e-05 1.620769e-07
3.695797e-05 -1.690168e-05 1.620433e-07
3.566210e-05 -1.805901e-05 -4.622425e-07
3.739509e-05 1.322950e-05 -3.063514e-08
3.566092e-05 1.805825e-05 -4.616624e-07
3.828800e-05 -1.037408e-05 5.656707e-08
3.828800e-05 1.037408e-05 5.656707e-08
3.942879e-05 8.225027e-06 -4.878746e-07
3.942879e-05 -8.225027e-06 -4.878746e-07
2.083765e-05 3.375569e-05 -6.304424e-08
4.021976e-05 -5.790006e-06 1.759503e-07
4.021976e-05 5.790006e-06 1.759503e-07
3.631563e-05 1.596573e-05 7.010297e-08
-4.061436e-05 7.202964e-07 2.086946e-07
9.941483e-06 -3.843576e-05 1.846576e-07
8.648996e-06 3.970842e-05 -1.618637e-07
-3.620644e-05 -1.845691e-05 -1.618637e-07
-3.820645e-05 1.385030e-05 -1.618637e-07
-3.400162e-05 2.225879e-05 -1.618637e-07
-2.842943e-05 -2.904016e-05 -1.618637e-07
-3.932491e-05 1.025257e-05 -1.618637e-07
-3.179416e-05 2.531196e-05 -1.618637e-07
-3.932491e-05 -1.025257e-05 -1.618637e-07
-1.362862e-05 3.828609e-05 -1.618637e-07
-1.880582e-05 3.602645e-05 -1.618637e-07
1.434553e-05 -3.709265e-05 -3.064067e-07
-2.658079e-05 3.074127e-05 -1.618637e-07
-4.062851e-05 -9.421484e-07 -1.618637e-07
-1.962222e-06 4.059204e-05 -1.618637e-07
4.934516e-06 4.033874e-05 -1.618637e-07
-3.841596e-05 -1.325812e-05 -1.618637e-07
-3.561866e-05 1.956719e-05 -1.618637e-07
-4.036667e-05 -4.700619e-06 -1.618637e-07
1.805352e-06 4.059932e-05 -1.618637e-07
-3.434159e-05 -2.173060e-05 -1.618637e-07
-2.099588e-05 -3.479564e-05 -1.618637e-07
1.548905e-05 -3.663567e-05 -3.131623e-07
-3.999910e-05 7.185805e-06 -1.618637e-07
-3.994594e-05 -7.796142e-07 -4.532517e-07
-3.116599e-05 2.499933e-05 -4.532517e-07
-2.973833e-05 2.668595e-05 -4.545454e-07
4.978603e-06 3.964441e-05 -4.542994e-07
-3.993073e-05 1.430067e-06 -4.545454e-07
-3.752536e-05 1.372425e-05 -4.545432e-07
-4.267323e-06 3.972734e-05 -4.543360e-07
-1.502478e-05 3.702383e-05 -4.545454e-07
-2.001347e-05 3.458279e-05 -4.545454e-07
1.438199e-05 3.708082e-05 -3.091418e-07
-2.042712e-06 3.990407e-05 -4.545432e-07
-7.556198e-06 3.923534e-05 -4.545454e-07
-3.410677e-05 2.206296e-05 2.086745e-07
3.470081e-05 1.954690e-05 3.688050e-07
3.470081e-05 -1.954690e-05 3.688050e-07
-7.905057e-06 -3.958894e-05 -4.567581e-07
1.963135e-05 -3.527743e-05 4.561304e-07
9.706170e-06 -3.927602e-05 -4.066790e-07
2.905980e-05 2.782875e-05 -4.956024e-07
2.639608e-05 3.087935e-05 -2.020634e-07
1.551373e-05 3.663082e-05 -3.194834e-07
-3.035528e-05 -2.673446e-05 -4.122453e-07
4.507587e-06 -4.037109e-05 -2.060285e-07
2.333813e-05 -3.324823e-05 2.068630e-07
2.333813e-05 3.324823e-05 2.068630e-07
4.055190e-05 -2.667748e-06 1.614996e-07
4.055190e-05 2.667748e-06 1.614996e-07
-3.396468e-05 2.191736e-05 4.297397e-07
-4.041684e-05 6.715483e-07 4.297262e-07
3.812332e-05 -1.159798e-05 -3.870233e-07
-3.919061e-05 -6.222125e-06 -1.260724e-07
3.313824e-05 2.357133e-05 -1.225878e-22
-1.180989e-05 -3.794605e-05 2.652089e-07
-3.854731e-06 3.967145e-05 3.948676e-07
5.364127e-06 3.949569e-05 3.948676e-07
-1.836694e-05 3.537426e-05 3.948676e-07
1.213608e-05 3.796575e-05 3.948630e-07
1.949848e-05 3.565666e-05 -1.609735e-07
1.949848e-05 -3.565666e-05 -1.609735e-07
3.781853e-05 1.487883e-05 -1.597815e-07
1.560756e-05 -3.735117e-05 -3.888641e-07
1.558092e-05 3.736617e-05 -3.859347e-07
-3.178460e-05 -2.499819e-05 -4.205226e-07
3.635773e-05 -1.585865e-05 2.338997e-08
-2.369666e-05 -3.276642e-05 -4.205226e-07
-2.318739e-05 3.312877e-05 -4.205226e-07
3.181722e-05 -2.466612e-05 -4.918334e-07
3.181722e-05 2.466612e-05 -4.918334e-07
3.536607e-05 -2.000512e-05 1.820496e-07
3.536607e-05 2.000512e-05 1.820496e-07
-3.291251e-05 -2.349602e-05 -4.195131e-07
-3.994594e-05 -6.294317e-06 -4.195131e-07
[...]
POINT_DATA 10758
VECTORS 10.000GHz_fone_imag double
4.509714e+10 -6.564675e+10 1.734996e+09
4.945157e+10 -6.741612e+10 2.001329e+08
8.015175e+10 1.408479e+10 7.136038e+08
8.079791e+10 2.258369e+09 1.295840e+09
2.676713e+10 7.783704e+10 -9.380222e+08
-3.495426e+10 7.400982e+10 1.444421e+09
-3.196255e+09 8.209709e+10 -8.449420e+08
-4.147045e+10 7.035700e+10 1.294950e+09
1.588892e+10 8.082883e+10 9.397787e+08
1.126356e+10 8.102278e+10 -4.094674e+08
7.581991e+10 -2.895388e+10 1.347804e+09
1.182381e+10 -8.135237e+10 3.794707e+08
-4.945254e+10 -6.741750e+10 -2.000684e+08
-1.182767e+10 -8.136549e+10 -3.790494e+08
6.536042e+10 4.957641e+10 -8.386111e+08
-5.932434e+10 -4.746622e+10 3.130119e+07
-7.731528e+10 -3.616143e+09 2.529904e+08
-7.725652e+10 6.161028e+09 5.752891e+08
1.291653e+10 -8.154605e+10 8.953937e+07
-1.291829e+10 -8.155924e+10 -8.498632e+07
-5.411679e+10 -5.566409e+10 -1.180391e+09
3.493335e+10 -7.522843e+10 5.097724e+07
-7.790594e+10 -8.751598e+09 -1.702854e+09
-7.930694e+10 2.613484e+10 -9.502761e+08
-6.532495e+10 -4.465955e+10 -1.706095e+09
6.516947e+10 -4.462656e+10 1.436747e+09
2.798416e+10 -7.400323e+10 7.338465e+08
-4.199569e+10 -6.676166e+10 -1.140858e+08
4.199945e+10 -6.676609e+10 1.153709e+08
6.884978e+09 8.367206e+10 1.505731e+09
-4.894414e+10 6.803482e+10 -1.665877e+09
-7.268908e+10 3.933008e+10 8.750668e+08
4.813132e+10 6.008626e+10 -2.125174e+08
-1.581084e+09 7.694405e+10 -2.226280e+08
-4.651581e+10 -7.026978e+10 -8.123684e+08
-6.025661e+10 5.469340e+10 1.520408e+09
-7.136567e+10 3.770884e+10 1.549128e+09
-7.680725e+10 2.172005e+10 -1.134249e+08
3.978736e+10 6.908985e+10 7.536661e+08
3.155506e+10 7.299489e+10 -7.417984e+08
7.747689e+10 -1.224531e+10 1.125019e+09
7.591383e+10 -2.035607e+10 6.130828e+08
6.043298e+08 -7.889002e+10 -1.348141e+08
-6.930181e+08 -7.827573e+10 2.469561e+08
-7.244545e+10 -3.728051e+10 5.385624e+08
4.651442e+10 -7.026740e+10 8.130698e+08
3.270349e+10 -7.453452e+10 -8.522319e+08
-7.774847e+10 -3.008927e+10 4.526872e+08
5.111416e+09 -7.955658e+10 1.703822e+09
-5.166299e+09 -7.944843e+10 -1.703297e+09
7.397524e+10 -4.011072e+10 3.035756e+08
-7.194794e+10 -4.034324e+10 -1.047276e+09
-1.588161e+10 -8.038679e+10 -6.650972e+07
1.597418e+10 -8.107177e+10 9.382813e+07
-7.745637e+10 1.879774e+10 -5.747475e+08
-5.821669e+10 -5.777644e+10 -7.612701e+08
-5.211379e+09 -8.186975e+10 2.646311e+08
-8.264641e+10 5.270393e+09 -7.679877e+08
-7.466459e+10 -2.665861e+10 -1.618120e+09
6.580175e+10 -4.702673e+10 -2.136713e+08
-2.850689e+10 -7.363989e+10 -3.541927e+08
5.841800e+10 -5.169264e+10 -8.385438e+08
-7.767374e+10 -1.093628e+10 1.422877e+09
-6.738092e+10 -4.398191e+10 -9.279822e+06
6.640452e+10 -4.406834e+10 -7.210346e+08
-4.219254e+10 6.806319e+10 1.171558e+09
-6.927200e+10 4.175322e+10 2.007522e+09
5.194473e+09 -8.188056e+10 -3.069055e+08
1.557188e+10 7.933024e+10 1.207554e+09
-2.177306e+10 7.907642e+10 -1.132773e+09
1.959065e+10 8.035320e+10 -1.335426e+09
-9.639891e+09 8.092785e+10 -1.614648e+09
-2.649260e+10 7.636572e+10 2.008204e+09
6.108240e+10 5.514957e+10 -3.547002e+08
7.934272e+10 -4.991357e+09 1.395863e+09
-5.668032e+10 5.649716e+10 1.164463e+09
-3.623760e+10 7.150858e+10 1.109617e+09
-7.305402e+10 -1.095815e+10 -6.187029e+08
-5.508806e+10 -5.997567e+10 1.404455e+09
-7.765711e+10 1.038402e+10 -9.796522e+08
-5.244275e+10 -5.957394e+10 8.081297e+08
5.291179e+10 -5.804009e+10 -6.578306e+08
-7.105636e+10 4.082892e+10 -3.457292e+08
-2.806787e+10 7.634779e+10 -3.945952e+08
-4.034615e+10 7.286486e+10 -3.322313e+08
-5.865780e+10 5.540155e+10 -1.692872e+08
4.630250e+10 6.801433e+10 3.032407e+08
-1.907330e+10 7.887289e+10 -3.062448e+08
8.129587e+10 8.962583e+09 -1.927902e+08
5.532320e+10 -5.979594e+10 -1.044931e+09
7.124905e+10 4.101066e+10 8.537639e+08
2.109143e+10 7.887512e+10 3.401878e+08
-4.448100e+10 6.754761e+10 -1.407018e+08
8.111640e+10 -9.985813e+09 -1.817386e+08
6.159840e+10 5.262382e+10 1.117084e+09
-6.925762e+09 8.313573e+10 3.019757e+08
8.115913e+10 -2.221312e+09 3.800818e+08
2.717522e+09 8.153691e+10 -3.425327e+08
7.303985e+10 3.691641e+10 1.185426e+08
6.211084e+10 5.113876e+10 -7.166866e+08
-8.444439e+10 8.960486e+09 2.470731e+08
-2.053018e+10 7.853896e+10 -9.054141e+07
2.363216e+10 7.924303e+10 3.187748e+08
-9.359150e+09 7.939191e+10 7.137257e+08
6.372010e+10 -4.622538e+10 -1.065209e+09
3.230575e+10 7.649695e+10 1.488243e+09
7.821638e+10 -1.485087e+10 -9.426370e+08
7.602179e+10 -2.098129e+10 -1.282081e+09
6.544932e+10 -4.939970e+10 -1.981988e+08
-7.299174e+10 1.511365e+09 -2.559198e+09
5.970118e+10 -5.108704e+10 2.048991e+09
4.485145e+10 -6.470574e+10 2.714615e+08
-1.581870e+10 -8.060918e+10 9.001288e+08
-5.572189e+10 -5.131842e+10 -1.662524e+09
6.952049e+10 -4.709181e+10 -1.003145e+08
-6.881333e+10 -4.596355e+10 -1.051035e+08
-8.255900e+10 -1.058920e+10 9.847662e+08
-7.324675e+10 -2.105662e+10 1.961827e+08
3.862495e+09 7.819836e+10 -4.755162e+08
7.754195e+10 1.729979e+10 -1.291638e+08
7.485166e+10 2.067965e+10 5.834322e+08
5.253977e+10 5.830378e+10 5.599933e+08
3.316372e+10 7.140648e+10 -5.173046e+08
1.634268e+10 -8.139972e+10 -5.761558e+08
7.855833e+10 8.699782e+09 1.317733e+08
7.743181e+10 1.406556e+10 6.017197e+08
6.648419e+10 3.941166e+10 -4.600179e+07
7.267919e+10 2.960704e+10 -6.470387e+08
7.694197e+10 -2.557617e+10 1.481401e+09
-7.630019e+10 -2.401848e+10 -2.203325e+09
4.347686e+10 -7.127885e+10 -5.737223e+08
-4.348501e+10 -7.129347e+10 5.702876e+08
-7.513491e+10 -3.108835e+10 1.119492e+09
-6.860338e+10 -3.788249e+10 1.503365e+08
-3.693321e+10 -7.555005e+10 1.670643e+08
3.119791e+10 -7.059996e+10 -7.562679e+08
1.137946e+10 -8.194421e+10 -1.026399e+08
-1.137745e+10 -8.194822e+10 9.906964e+07
-3.238735e+10 7.314373e+10 -9.251521e+08
-6.665607e+10 4.503953e+10 2.043358e+08
5.686501e+10 5.697494e+10 -2.208480e+08
8.955457e+09 7.988969e+10 -1.963716e+08
-5.451504e+10 5.898042e+10 -3.350128e+08
5.866973e+10 -5.228508e+10 6.978544e+08
6.296999e+10 -4.807122e+10 1.085206e+09
3.685654e+10 -7.540226e+10 1.193408e+09
-6.224658e+10 -4.756121e+10 -1.123706e+09
-7.787701e+10 -5.598330e+09 -7.294088e+08
-5.947182e+10 -5.244729e+10 -2.260823e+09
-7.902305e+10 -8.298158e+07 -2.145669e+09
-5.908176e+10 -4.984231e+10 -7.198578e+07
-7.712547e+10 -1.728180e+09 2.400699e+07
-7.915124e+10 3.328880e+10 -9.439814e+07
5.316079e+10 -5.462657e+10 5.256451e+08
-3.336205e+10 -7.003288e+10 1.474580e+09
-3.668057e+10 -7.442519e+10 2.207965e+09
2.854856e+10 -7.761675e+10 3.007030e+08
3.690981e+10 -7.258853e+10 1.910123e+08
-2.187321e+10 -8.050169e+10 2.320936e+08
2.165548e+10 -8.139594e+10 -1.327556e+08
1.489576e+10 -7.986528e+10 -2.586251e+08
-1.419491e+10 -7.893280e+10 4.864699e+08
6.954350e+10 -4.173322e+10 2.478258e+09
-1.115837e+10 -7.724351e+10 -3.633187e+08
1.115722e+10 -7.724800e+10 3.646203e+08
3.334476e+10 -7.691883e+10 3.891251e+08
4.646191e+08 8.038980e+10 1.219721e+09
-8.080445e+10 -2.049045e+10 3.523171e+08
7.773509e+10 -1.662376e+10 1.829073e+08
-3.484533e+10 6.957451e+10 1.688841e+09
2.627044e+10 7.424518e+10 -6.441422e+08
4.249298e+10 6.551313e+10 -2.156568e+09
-5.510523e+10 5.396889e+10 1.694077e+09
1.905908e+10 7.527130e+10 -3.826232e+08
4.916455e+10 6.211146e+10 -8.921834e+08
-1.951970e+10 7.655284e+10 -4.762278e+08
7.400307e+10 2.658484e+10 -8.988553e+08
6.905564e+10 3.615032e+10 -1.457258e+09
-7.730892e+10 -2.882244e+10 -4.649068e+08
5.898054e+10 5.182243e+10 -1.330035e+08
-2.068989e+09 7.915838e+10 -8.739335e+08
7.830374e+10 3.845923e+09 4.352838e+08
7.846165e+10 -9.589784e+09 1.808575e+08
-2.571071e+10 7.417831e+10 2.251734e+09
3.865216e+10 6.864824e+10 6.180294e+08
-9.315297e+09 7.766339e+10 -1.398220e+09
7.819032e+10 -3.637332e+09 1.379649e+09
-4.123566e+10 6.519054e+10 1.703779e+09
-6.726554e+10 4.050100e+10 2.179918e+09
-7.685273e+10 -3.210852e+10 2.867455e+08
1.463097e+10 7.750016e+10 1.224338e+09
-2.400498e+09 8.300058e+10 -5.295734e+08
5.132232e+10 6.520511e+10 -5.238716e+08
5.372169e+10 6.046210e+10 1.338515e+08
8.247889e+10 -1.030753e+10 -1.595763e+08
4.093472e+09 8.206167e+10 9.521240e+08
2.694223e+10 7.533587e+10 -6.440109e+08
8.265018e+10 9.010970e+09 -2.045152e+08
7.524827e+10 2.999559e+10 -8.951402e+07
7.064098e+10 4.153329e+10 -6.858549e+08
7.752741e+10 -3.012148e+10 7.335297e+08
8.052695e+10 4.826930e+09 -1.522279e+07
7.869534e+10 1.467911e+10 5.986427e+08
4.197331e+10 6.751447e+10 2.105583e+08
4.061959e+10 -7.243040e+10 9.902952e+08
-4.062126e+10 -7.242261e+10 -9.950325e+08
-7.765842e+10 1.590685e+10 -2.491659e+08
-6.973590e+10 -3.776810e+10 1.227194e+09
-7.632174e+10 -1.955633e+10 1.367406e+08
5.643646e+10 -5.856417e+10 7.248189e+08
6.025823e+10 -5.090123e+10 2.106495e+08
7.613811e+10 -3.125921e+10 -6.636804e+08
-5.196295e+10 5.815069e+10 -5.704040e+08
-7.691783e+10 -9.823579e+09 -1.484128e+09
-6.523754e+10 -4.393095e+10 -1.138859e+09
6.548398e+10 -4.446188e+10 1.525866e+09
-5.403311e+09 -7.593995e+10 2.796418e+08
5.409811e+09 -7.584482e+10 -3.257027e+08
4.367728e+10 6.764517e+10 1.003327e+09
1.410461e+09 8.019674e+10 8.420213e+08
-2.337719e+10 -7.702040e+10 -8.711790e+08
-1.303636e+10 8.232008e+10 -1.046856e+08
4.498346e+10 -6.367149e+10 -1.743903e+08
-7.856458e+10 2.290194e+10 3.551481e+08
8.209882e+10 7.349679e+09 8.272177e+08
8.172945e+10 -1.171915e+10 8.398506e+08
7.276312e+10 3.845659e+10 -8.526125e+08
7.955196e+10 -2.442504e+10 -6.448041e+08
6.847904e+10 -3.709448e+10 1.758861e+08
-7.004655e+10 -3.828364e+10 4.248169e+08
2.719443e+10 -7.447398e+10 6.399072e+08
-7.479044e+10 -3.212278e+10 -9.790481e+08
7.419389e+10 -3.097341e+10 6.821209e+08
-4.842188e+10 6.203467e+10 -1.515885e+09
-3.223904e+10 -7.791014e+10 6.658510e+08
-6.336624e+10 4.633772e+10 -1.613424e+09
6.496036e+10 4.520129e+10 1.636856e+09
-4.872691e+10 -6.495578e+10 -1.894176e+08
4.872852e+10 -6.495825e+10 1.893262e+08
-3.788961e+10 -6.871628e+10 9.149682e+08
3.788658e+10 -6.870490e+10 -9.156278e+08
-4.595698e+10 6.519106e+10 -1.079210e+09
-1.269233e+10 7.628196e+10 -1.319247e+09
5.857639e+09 7.890114e+10 1.074267e+09
5.495404e+10 5.619142e+10 4.787460e+08
6.102992e+10 -5.668056e+10 -2.062975e+08
6.169318e+10 4.751797e+10 1.720564e+09
-7.009035e+10 3.728845e+10 -7.266177e+08
-5.395680e+10 5.723400e+10 5.719996e+08
-3.225750e+10 7.202846e+10 1.046021e+09
-4.974726e+10 -5.818283e+10 -6.965169e+08
4.976186e+10 -5.818714e+10 7.146144e+08
8.507155e+09 7.773982e+10 2.043114e+09
-6.466785e+10 4.390296e+10 -2.052159e+09
-6.116340e+10 4.976259e+10 1.930508e+09
7.516192e+10 2.447414e+10 1.005633e+09
-8.360294e+10 -8.294520e+09 -1.026655e+09
2.189864e+10 -7.991823e+10 -1.341283e+09
-1.983674e+10 -7.911425e+10 1.675191e+09
-7.676333e+10 -2.404371e+10 -1.067185e+09
-7.443933e+10 2.360115e+10 -1.838096e+08
5.561513e+10 -5.539168e+10 -8.306023e+08
7.872316e+10 -2.569540e+08 -2.007942e+09
7.873419e+10 1.112976e+10 -2.012593e+09
7.902247e+10 -8.110532e+09 -2.389135e+09
7.152053e+10 3.410257e+10 2.274232e+09
-7.202017e+10 3.981676e+10 2.040822e+09
-6.650928e+10 -4.799571e+10 6.206644e+08
-2.949010e+10 7.663676e+10 1.899270e+09
1.257792e+10 7.831292e+10 7.232493e+08
8.078820e+10 -1.704330e+09 1.085847e+09
-4.562472e+10 6.732540e+10 1.541496e+09
-5.989922e+10 5.499878e+10 1.565982e+09
7.150016e+10 3.587196e+10 -1.272609e+09
-1.878925e+10 7.830584e+10 -9.491829e+08
6.121894e+10 5.008666e+10 -1.076354e+09
-3.849927e+10 7.254823e+10 1.032364e+09
-8.364623e+09 8.110019e+10 -9.634250e+08
6.726802e+10 -4.795865e+10 6.437476e+08
4.652126e+10 6.680953e+10 -2.077044e+09
2.181126e+10 7.784448e+10 -1.192509e+09
3.571231e+10 -7.190939e+10 1.618044e+08
-3.552390e+10 -7.180936e+10 -9.876988e+07
-7.910636e+09 -8.354240e+10 4.307353e+08
7.907950e+09 -8.352416e+10 -4.321865e+08
-1.684035e+10 8.072613e+10 2.847941e+08
8.201159e+10 1.177117e+10 -7.839060e+08
1.811762e+10 8.045496e+10 -3.375005e+08
8.238795e+10 2.596399e+08 -3.587992e+08
6.814478e+10 -4.478507e+10 5.350783e+08
7.476062e+10 3.479359e+10 1.153259e+08
4.864431e+10 6.708453e+10 8.158220e+08
6.999488e+10 4.399357e+10 -3.897786e+08
2.471449e+10 7.876877e+10 3.427883e+08
8.178430e+10 -7.518530e+09 -2.023639e+09
-5.655987e+09 8.267765e+10 8.707751e+08
-2.350285e+10 7.904045e+10 -3.460548e+08
-4.107258e+10 7.166933e+10 -5.278111e+08
-7.542449e+10 -2.895343e+10 -1.236901e+09
-2.153747e+10 -8.117882e+10 -6.626555e+08
-6.826694e+10 -4.435142e+10 -4.266819e+08
2.149782e+10 -7.905973e+10 9.096302e+08
-3.717956e+10 -7.573738e+10 -8.405017e+08
-8.244715e+10 1.639845e+10 -4.102481e+08
7.413047e+10 3.749656e+10 -3.476347e+08
7.596960e+10 -3.507197e+10 1.270497e+09
-7.321314e+10 -2.713106e+10 3.229525e+08
-3.270103e+10 -7.296241e+10 -1.491442e+09
-7.434896e+10 3.512588e+10 1.038633e+09
-1.474914e+10 -7.949217e+10 1.512378e+09
1.488238e+10 -8.016913e+10 -1.408938e+09
-8.114266e+10 -1.372780e+10 -1.424551e+08
2.409143e+10 -7.552200e+10 -9.785539e+08
-3.814790e+10 -6.823270e+10 -2.062499e+09
3.814350e+10 -6.825369e+10 2.070236e+09
7.233834e+10 -3.302082e+10 1.971332e+08
-8.103956e+10 1.747556e+10 -6.332166e+08
-6.153322e+10 5.143730e+10 -6.110622e+08
7.098481e+10 -3.783977e+10 -1.312929e+07
1.745198e+10 7.893700e+10 -4.001194e+08
-5.407928e+10 5.773344e+10 -1.295331e+08
-3.962441e+10 6.852001e+10 -1.299086e+08
6.309383e+10 -5.188754e+10 6.761891e+08
-6.632812e+10 4.310291e+10 4.005392e+08
5.535060e+10 5.644096e+10 9.552126e+06
-3.334545e+10 7.225090e+10 -1.813325e+08
-2.281591e+10 7.580113e+10 -1.398191e+08
2.450101e+10 7.695128e+10 4.156357e+08
1.010278e+10 7.838564e+10 -4.243599e+08
-4.842946e+09 8.049455e+10 4.888641e+08
7.910676e+10 1.405129e+09 -3.425741e+08
4.792293e+10 6.493722e+10 5.014732e+08
7.228587e+10 3.211537e+10 3.748807e+08
4.732179e+10 -6.479382e+10 -1.323369e+09
-2.751648e+10 -7.789678e+10 8.914374e+07
7.872185e+10 1.198387e+10 -4.969124e+08
7.889705e+10 -5.509394e+09 -3.837483e+08
-7.414225e+10 2.089358e+10 1.340151e+09
-8.189306e+10 1.333205e+10 -4.730077e+08
4.717869e+10 6.795445e+10 9.890021e+08
7.864816e+10 -2.324957e+10 -5.626570e+08
8.162700e+10 -1.437479e+10 2.478604e+08
7.896514e+10 2.427229e+10 2.504938e+08
2.035609e+10 7.577148e+10 4.188663e+08
2.068027e+10 7.646142e+10 4.222756e+08
1.202041e+10 -8.226409e+10 5.978416e+08
-1.933516e+10 7.638756e+10 -4.444016e+08
-1.954810e+10 7.628372e+10 -8.037249e+08
-1.574185e+10 7.846740e+10 3.449303e+07
6.795764e+10 4.452814e+10 -8.684866e+07
5.671318e+10 -5.865619e+10 -6.933368e+08
-2.403664e+10 -7.808284e+10 8.159899e+08
-4.465493e+10 6.686162e+10 -4.126509e+08
8.034756e+10 -8.320448e+08 -9.606678e+06
7.246726e+10 3.502388e+10 1.065803e+08
-7.832416e+10 -1.797724e+10 -3.243860e+08
-1.202639e+10 -8.226429e+10 -6.022935e+08
8.602209e+09 -8.021735e+10 -1.453052e+08
-8.600209e+09 -8.021873e+10 1.433780e+08
6.286432e+09 8.017440e+10 2.243306e+08
-7.568301e+10 2.592255e+10 5.552194e+08
6.764126e+10 4.345988e+10 -9.864994e+07
-1.575988e+10 7.883273e+10 1.312042e+08
7.689975e+10 2.421564e+10 8.447155e+07
2.394109e+10 -7.605859e+10 2.101208e+08
7.688108e+10 -2.115220e+10 -5.152225e+08
6.455198e+09 -8.021227e+10 -3.952014e+08
-7.613459e+10 3.227455e+10 6.650228e+08
-6.458643e+09 -8.021333e+10 3.842284e+08
-3.328193e+10 7.289623e+10 -4.054216e+08
5.581980e+10 5.710871e+10 -5.468239e+08
-5.463349e+10 5.832212e+10 -1.253976e+08
-3.655579e+10 -7.171394e+10 7.309810e+08
3.635346e+10 -7.184753e+10 1.612278e+08
-4.486995e+10 -6.687991e+10 1.667246e+08
4.487000e+10 -6.687958e+10 -1.662091e+08
2.812597e+10 -7.547248e+10 1.203744e+08
-6.528366e+10 4.647317e+10 1.039685e+08
3.287223e+10 -7.497371e+10 -6.069938e+08
-5.090328e+10 -6.161022e+10 7.465587e+07
5.090376e+10 -6.161084e+10 -7.380902e+07
7.445845e+10 3.112168e+10 5.012269e+08
2.699835e+10 7.584631e+10 4.599327e+08
8.064022e+10 3.275278e+09 -5.543353e+08
7.917814e+10 1.453683e+10 -5.458275e+08
5.462634e+10 5.938908e+10 -5.588812e+08
7.075189e+10 3.809382e+10 -1.813176e+08
-7.817029e+10 1.764043e+10 9.641511e+07
6.182180e+10 5.080865e+10 -3.126426e+08
-7.738472e+10 -2.544476e+10 -2.572294e+08
1.559187e+10 -7.886882e+10 -4.023694e+08
-1.608812e+10 -7.853328e+10 8.232374e+07
2.485708e+10 -7.616217e+10 1.466324e+08
-5.858990e+10 -5.438641e+10 1.728608e+08
-9.687416e+09 7.937077e+10 -2.547659e+08
-7.726482e+10 2.105297e+10 2.909076e+08
1.475741e+10 7.925295e+10 -1.829314e+08
-4.980382e+09 -8.043750e+10 -3.616144e+08
5.044319e+09 -8.074190e+10 3.048687e+08
3.084798e+10 -7.389759e+10 -3.751293e+08
-8.324500e+10 5.967520e+09 1.094397e+09
6.459524e+10 -4.823275e+10 4.305538e+08
7.984727e+10 6.665581e+09 7.627044e+08
4.984406e+10 6.359770e+10 2.267304e+07
-2.492747e+09 8.075941e+10 2.425559e+07
-7.647869e+10 -2.538978e+10 -1.874180e+08
-5.669925e+10 -5.709930e+10 -6.455665e+06
-8.006497e+10 5.751407e+09 3.567348e+07
-7.104520e+10 3.735061e+10 -1.496359e+08
-5.121949e+10 -6.355226e+10 3.519823e+08
5.121884e+10 -6.355239e+10 -3.509134e+08
-5.984981e+10 -5.955582e+10 9.896600e+08
-8.031358e+10 -8.812803e+08 -5.758248e+08
-6.079693e+10 -5.246963e+10 -6.739624e+08
-2.641822e+10 7.624303e+10 6.732457e+08
-6.909116e+10 4.165820e+10 6.741822e+08
-8.112212e+10 5.272823e+09 1.539996e+08
-4.673005e+10 6.556570e+10 -3.011752e+08
-7.960422e+10 9.141987e+09 -4.180051e+08
-8.003167e+10 -1.961314e+09 1.968641e+08
-6.111283e+10 -5.149840e+10 6.597553e+07
7.901150e+10 -1.396087e+10 -1.445976e+08
-6.489310e+10 -5.449870e+10 -1.437172e+09
-1.201702e+10 7.937724e+10 -1.003000e+08
3.024057e+10 7.484961e+10 -4.733432e+08
-7.647104e+10 -2.467172e+10 -3.947689e+06
3.693227e+10 7.168837e+10 2.404820e+08
-5.012586e+10 6.291820e+10 -9.024900e+07
-7.315730e+10 -3.223018e+10 -4.434004e+08
7.020198e+10 -3.973479e+10 1.608258e+08
-6.404874e+10 4.887505e+10 -8.394590e+08
3.860756e+10 -7.056393e+10 -1.858236e+08
-3.861016e+10 -7.056235e+10 1.860196e+08
-8.401797e+10 -2.323601e+09 -9.847034e+08
2.140144e+09 8.011183e+10 -5.869521e+08
5.250035e+10 -6.022709e+10 1.084538e+09
-5.249330e+10 -6.023386e+10 -1.081694e+09
6.184307e+10 -5.124152e+10 -6.662071e+08
4.400448e+10 6.731120e+10 -6.232178e+08
-7.338990e+10 3.371597e+10 4.765590e+06
-2.386164e+10 -7.612438e+10 5.587673e+08
-8.011940e+10 1.954693e+09 -9.020893e+07
3.300050e+10 -7.352054e+10 -7.363591e+06
-7.940872e+10 -1.174902e+10 -8.900118e+08
4.543603e+10 -6.287507e+10 -3.338247e+08
2.348528e+10 -7.699431e+10 -3.173176e+08
-5.514709e+10 -5.794152e+10 1.960883e+08
-6.982418e+10 4.049151e+10 -6.852047e+08
6.043729e+10 -5.276094e+10 2.317707e+08
1.249550e+10 -7.937328e+10 4.217124e+08
-1.249831e+10 -7.937305e+10 -4.208172e+08
-5.850268e+10 -5.597725e+10 1.609263e+08
-8.068373e+10 3.585664e+09 1.553689e+08
-7.055656e+10 -3.866145e+10 3.858284e+08
-7.984720e+10 -1.348483e+10 3.689338e+08
-6.725174e+10 -4.410511e+10 -3.416097e+08
-2.302198e+10 -7.862434e+10 2.713270e+08
-1.664227e+10 7.845843e+10 4.249197e+08
6.810675e+10 4.239572e+10 -4.793257e+08
7.724791e+10 2.317454e+10 -1.359283e+08
7.663037e+10 -2.358230e+10 1.772754e+08
4.427807e+10 -6.677286e+10 2.910614e+07
-4.427753e+10 -6.677303e+10 -2.862591e+07
-2.813992e+10 -7.542732e+10 6.775140e+07
8.031071e+10 -3.643334e+09 4.861568e+08
-3.668201e+10 7.223218e+10 4.274895e+08
-5.751743e+10 5.640590e+10 4.699896e+08
-8.021207e+10 -1.365538e+10 1.296898e+09
-4.300994e+10 6.811890e+10 4.724318e+08
7.953123e+10 -1.178452e+10 -4.463253e+08
-5.273888e+10 6.054514e+10 1.821154e+06
7.939899e+10 1.119195e+10 -1.534902e+07
7.975296e+10 -7.410790e+09 -1.295319e+08
-2.426564e+10 -7.651009e+10 -6.255022e+08
-8.031198e+10 -6.980907e+09 -3.237254e+07
6.716795e+10 -4.388279e+10 3.195023e+08
1.092395e+07 8.090197e+10 4.261521e+08
-7.537146e+10 -2.812786e+10 2.582706e+07
6.303440e+10 -5.072649e+10 5.365682e+08
-7.704286e+10 2.272056e+10 -6.447389e+08
-3.823732e+10 -7.068645e+10 -1.642902e+08
3.823165e+10 -7.069277e+10 1.622868e+08
6.535833e+10 4.687753e+10 -2.541389e+08
3.727168e+09 8.031126e+10 3.897942e+08
-6.440076e+10 -4.792891e+10 6.145322e+07
7.179113e+10 -3.669019e+10 -4.433766e+08
-4.800544e+10 -6.439850e+10 1.393299e+08
4.800570e+10 -6.439760e+10 -1.392524e+08
-7.722552e+10 -2.131734e+10 6.742011e+08
-7.670466e+10 2.732283e+10 -9.034739e+08
5.696788e+10 -5.756139e+10 -9.026005e+07
-2.010378e+10 7.800514e+10 1.922674e+08