# vtk DataFile Version 2.0
Electric current density generated by TTH
ASCII
DATASET UNSTRUCTURED_GRID
POINTS 10294 double
4.066633e-05 -9.960379e-21 -1.225878e-22
4.056800e-05 2.826289e-06 -1.225878e-22
2.933284e-05 2.816620e-05 -1.225878e-22
3.635773e-05 -1.585865e-05 2.338997e-08
2.321882e-05 3.299291e-05 4.676825e-07
3.813828e-05 1.401858e-05 -1.793248e-07
3.425685e-05 -2.186281e-05 1.636344e-07
3.425685e-05 2.186281e-05 1.636344e-07
-3.957263e-05 2.942999e-06 -1.277928e-07
-3.241053e-05 -2.289653e-05 -1.296581e-07
-1.875011e-05 -3.497326e-05 -1.297476e-07
-3.131288e-05 2.543691e-05 4.682109e-07
-4.033911e-05 -5.378069e-07 4.682109e-07
-2.691858e-05 -3.006612e-05 4.630942e-07
2.757004e-05 2.851870e-05 3.274307e-08
-1.928971e-05 -3.544698e-05 4.630942e-07
-1.178578e-05 -3.887930e-05 -1.958914e-07
-3.499628e-05 2.065843e-05 -1.637822e-07
-3.727706e-05 1.618427e-05 -1.637822e-07
6.798954e-06 4.006600e-05 -1.637822e-07
1.048016e-05 3.926419e-05 -1.637818e-07
4.063369e-05 4.832150e-07 1.700403e-07
4.063369e-05 -4.832150e-07 1.700403e-07
1.769032e-05 -3.614394e-05 -4.948367e-07
3.648559e-05 1.563643e-05 -1.698892e-07
3.698155e-06 -3.949403e-05 -3.827186e-08
1.387665e-05 -3.715883e-05 4.740489e-09
4.011185e-05 2.726129e-06 -4.990156e-07
4.011185e-05 -2.726129e-06 -4.990156e-07
1.924518e-05 3.468447e-05 -2.540441e-08
1.965250e-05 -3.477410e-05 4.482571e-07
3.919138e-05 -7.865462e-06 -4.618086e-07
3.919138e-05 7.865462e-06 -4.618086e-07
-1.005580e-05 -3.936849e-05 -1.809888e-07
2.802014e-05 -2.857457e-05 4.789152e-07
-2.119970e-06 -3.996423e-05 -4.789136e-07
2.334508e-05 -3.206964e-05 3.827186e-08
1.380878e-05 -3.792579e-05 4.606840e-07
2.375263e-05 3.186231e-05 -2.655604e-07
3.816362e-05 -1.391385e-05 2.083706e-07
2.638695e-05 3.088342e-05 2.083696e-07
6.257831e-06 -4.013598e-05 -2.083671e-07
2.184965e-05 -3.424398e-05 2.083671e-07
2.184965e-05 3.424398e-05 2.083671e-07
-3.370518e-05 -2.145968e-05 -4.548291e-07
-2.054785e-05 -3.426869e-05 -4.548291e-07
-3.934744e-05 6.945987e-06 -4.543133e-07
2.334508e-05 3.206964e-05 3.827186e-08
-3.869220e-05 -9.973251e-06 -4.547978e-07
-3.863636e-05 1.018742e-05 -4.547972e-07
-3.970133e-05 -4.511760e-06 -4.547952e-07
-3.773433e-05 -1.314069e-05 -4.548291e-07
-2.605053e-05 3.029722e-05 -4.547940e-07
1.663774e-06 3.992229e-05 -4.548291e-07
-2.787231e-05 -2.863026e-05 -4.548291e-07
-3.554768e-05 -1.824610e-05 -4.548291e-07
5.870640e-06 -4.021327e-05 1.615746e-07
-4.417498e-06 -4.038637e-05 1.939068e-07
2.145736e-05 3.347874e-05 -2.995553e-07
3.002266e-05 -2.737175e-05 -1.939016e-07
3.003298e-05 2.736266e-05 -1.902913e-07
-1.987087e-05 -3.477504e-05 -4.873645e-07
-3.753908e-05 -1.396331e-05 -4.873697e-07
-3.526331e-05 -1.897694e-05 -4.857699e-07
-2.732975e-05 -2.927869e-05 -4.873697e-07
-3.300785e-05 2.267393e-05 -4.857699e-07
-3.896532e-05 -9.237378e-06 -4.857699e-07
-4.672243e-06 3.977179e-05 -4.857699e-07
-2.039170e-05 3.446452e-05 -4.857699e-07
2.145736e-05 -3.347874e-05 -2.995553e-07
-3.881789e-05 9.838529e-06 -4.857699e-07
-3.332617e-05 -2.221535e-05 -4.873645e-07
4.591545e-06 3.978119e-05 -4.857699e-07
-2.639788e-05 3.011274e-05 -4.857699e-07
-3.986978e-05 -3.745099e-06 -4.857699e-07
8.877630e-07 4.003545e-05 -4.857699e-07
-4.000393e-05 1.819538e-06 -4.857699e-07
-1.768384e-05 3.593670e-05 -4.873916e-07
-2.551122e-05 3.086750e-05 -4.857699e-07
-3.868028e-05 -1.036635e-05 -4.857699e-07
6.046525e-06 -3.929235e-05 2.856690e-07
-3.851543e-05 1.096296e-05 -4.857699e-07
-3.974404e-05 -4.902692e-06 -4.857699e-07
2.458717e-05 3.201340e-05 -4.588786e-07
-3.672773e-05 1.607804e-05 -4.951406e-07
6.587956e-06 3.954780e-05 -4.951406e-07
1.022208e-05 3.876775e-05 -4.951407e-07
2.317292e-05 3.224384e-05 -2.000559e-07
-6.959907e-07 -4.063097e-05 1.690185e-07
2.669697e-05 3.064034e-05 -1.620440e-07
2.738873e-05 -3.002584e-05 -1.571068e-07
2.588367e-05 3.017417e-05 -2.856051e-07
2.231936e-05 3.310631e-05 4.399561e-07
2.231936e-05 -3.310631e-05 4.399561e-07
5.184995e-06 -3.959577e-05 -4.434763e-07
1.078344e-05 -3.918252e-05 -1.622589e-07
-4.060887e-05 1.569989e-06 -1.625218e-07
-9.414487e-06 3.953369e-05 -1.625218e-07
-1.123690e-05 3.905480e-05 -1.625218e-07
-3.016927e-05 2.722793e-05 -1.625218e-07
-3.675941e-05 1.732891e-05 -1.625218e-07
-4.466540e-06 4.039301e-05 -1.625218e-07
3.729937e-05 -1.369812e-05 -2.549771e-07
-7.571832e-06 3.992759e-05 -1.625218e-07
-2.045545e-05 3.511581e-05 -1.625218e-07
-1.538859e-05 3.761299e-05 -1.625218e-07
1.284159e-05 3.805757e-05 -5.005025e-07
1.146590e-05 -3.870130e-05 -4.595726e-07
3.363000e-05 2.104119e-05 -6.823229e-08
3.363000e-05 -2.104119e-05 -6.823229e-08
1.592273e-05 -3.710223e-05 -4.548812e-07
1.996860e-05 -3.537412e-05 2.079333e-07
3.721191e-05 1.632405e-05 -1.743787e-07
2.911429e-05 2.839205e-05 -1.225878e-22
3.937721e-05 5.668648e-06 3.225735e-07
3.942984e-05 4.527484e-06 -1.518590e-07
3.942984e-05 -4.527484e-06 -1.518590e-07
-3.649644e-05 -1.667592e-05 4.988959e-07
-2.218280e-05 -3.343650e-05 4.988959e-07
-2.860944e-05 2.813496e-05 4.988959e-07
-3.983980e-05 4.781918e-06 4.988959e-07
-2.927229e-05 -2.744466e-05 4.988959e-07
2.772687e-05 2.968633e-05 2.083587e-07
2.449179e-05 3.241797e-05 1.879634e-07
2.448530e-05 -3.241745e-05 1.982984e-07
3.937721e-05 -5.668648e-06 3.225735e-07
3.070226e-06 -4.051633e-05 -1.809252e-07
2.663260e-05 -3.037902e-05 4.422082e-07
1.141578e-07 -4.040009e-05 -4.422081e-07
2.646172e-05 -3.084366e-05 -1.622170e-07
5.496174e-07 -4.063560e-05 1.622170e-07
-1.533822e-05 -3.666700e-05 2.721925e-07
2.876412e-05 2.870859e-05 1.620769e-07
3.695797e-05 -1.690168e-05 1.620433e-07
3.566210e-05 -1.805901e-05 -4.622425e-07
3.566092e-05 1.805825e-05 -4.616624e-07
-1.514520e-05 -3.673490e-05 2.538709e-07
3.828800e-05 -1.037408e-05 5.656707e-08
3.828800e-05 1.037408e-05 5.656707e-08
3.942879e-05 8.225027e-06 -4.878746e-07
3.942879e-05 -8.225027e-06 -4.878746e-07
2.083765e-05 3.375569e-05 -6.304424e-08
4.021976e-05 -5.790006e-06 1.759503e-07
4.021976e-05 5.790006e-06 1.759503e-07
3.631563e-05 1.596573e-05 7.010297e-08
-4.061436e-05 7.202964e-07 2.086946e-07
8.648996e-06 3.970842e-05 -1.618637e-07
3.642373e-05 1.593517e-05 -2.886980e-07
-3.620644e-05 -1.845691e-05 -1.618637e-07
-3.820645e-05 1.385030e-05 -1.618637e-07
-3.400162e-05 2.225879e-05 -1.618637e-07
-2.842943e-05 -2.904016e-05 -1.618637e-07
-3.932491e-05 1.025257e-05 -1.618637e-07
-3.179416e-05 2.531196e-05 -1.618637e-07
-3.932491e-05 -1.025257e-05 -1.618637e-07
-1.362862e-05 3.828609e-05 -1.618637e-07
-1.880582e-05 3.602645e-05 -1.618637e-07
-2.658079e-05 3.074127e-05 -1.618637e-07
1.212628e-05 -3.786099e-05 2.866101e-07
-4.062851e-05 -9.421484e-07 -1.618637e-07
-1.962222e-06 4.059204e-05 -1.618637e-07
4.934516e-06 4.033874e-05 -1.618637e-07
-3.841596e-05 -1.325812e-05 -1.618637e-07
-3.561866e-05 1.956719e-05 -1.618637e-07
-4.036667e-05 -4.700619e-06 -1.618637e-07
1.805352e-06 4.059932e-05 -1.618637e-07
-3.434159e-05 -2.173060e-05 -1.618637e-07
-2.099588e-05 -3.479564e-05 -1.618637e-07
-3.999910e-05 7.185805e-06 -1.618637e-07
-1.918143e-06 -3.972349e-05 3.060070e-07
-3.994594e-05 -7.796142e-07 -4.532517e-07
-3.116599e-05 2.499933e-05 -4.532517e-07
-2.973833e-05 2.668595e-05 -4.545454e-07
4.978603e-06 3.964441e-05 -4.542994e-07
-3.993073e-05 1.430067e-06 -4.545454e-07
-3.752536e-05 1.372425e-05 -4.545432e-07
-4.267323e-06 3.972734e-05 -4.543360e-07
-1.502478e-05 3.702383e-05 -4.545454e-07
-2.001347e-05 3.458279e-05 -4.545454e-07
-2.042712e-06 3.990407e-05 -4.545432e-07
2.770952e-05 -2.852749e-05 -3.060162e-07
-7.556198e-06 3.923534e-05 -4.545454e-07
-3.410677e-05 2.206296e-05 2.086745e-07
3.470081e-05 1.954690e-05 3.688050e-07
3.470081e-05 -1.954690e-05 3.688050e-07
-7.905057e-06 -3.958894e-05 -4.567581e-07
1.963135e-05 -3.527743e-05 4.561304e-07
9.706170e-06 -3.927602e-05 -4.066790e-07
2.905980e-05 2.782875e-05 -4.956024e-07
2.639608e-05 3.087935e-05 -2.020634e-07
-3.035528e-05 -2.673446e-05 -4.122453e-07
2.523726e-05 -3.077151e-05 -3.383886e-07
4.507587e-06 -4.037109e-05 -2.060285e-07
2.333813e-05 -3.324823e-05 2.068630e-07
2.333813e-05 3.324823e-05 2.068630e-07
4.055190e-05 -2.667748e-06 1.614996e-07
4.055190e-05 2.667748e-06 1.614996e-07
-3.396468e-05 2.191736e-05 4.297397e-07
-4.041684e-05 6.715483e-07 4.297262e-07
3.812332e-05 -1.159798e-05 -3.870233e-07
-3.919061e-05 -6.222125e-06 -1.260724e-07
-3.854731e-06 3.967145e-05 3.948676e-07
1.420355e-06 -3.977170e-05 3.383886e-07
5.364127e-06 3.949569e-05 3.948676e-07
-1.836694e-05 3.537426e-05 3.948676e-07
1.213608e-05 3.796575e-05 3.948630e-07
1.949848e-05 3.565666e-05 -1.609735e-07
1.949848e-05 -3.565666e-05 -1.609735e-07
3.781853e-05 1.487883e-05 -1.597815e-07
1.560756e-05 -3.735117e-05 -3.888641e-07
1.558092e-05 3.736617e-05 -3.859347e-07
-3.178460e-05 -2.499819e-05 -4.205226e-07
-2.369666e-05 -3.276642e-05 -4.205226e-07
3.825029e-05 1.114445e-05 3.805439e-07
-2.318739e-05 3.312877e-05 -4.205226e-07
3.181722e-05 -2.466612e-05 -4.918334e-07
3.181722e-05 2.466612e-05 -4.918334e-07
3.536607e-05 -2.000512e-05 1.820496e-07
3.536607e-05 2.000512e-05 1.820496e-07
-3.291251e-05 -2.349602e-05 -4.195131e-07
-3.994594e-05 -6.294317e-06 -4.195131e-07
-4.031267e-05 3.191422e-06 -4.195131e-07
-2.890284e-05 2.828289e-05 -4.195131e-07
-2.470185e-05 3.201742e-05 -4.195131e-07
2.889400e-05 2.861621e-05 -1.225878e-22
3.826584e-05 -1.109000e-05 3.803209e-07
-1.892810e-05 -3.573546e-05 -4.195131e-07
-2.943200e-05 -2.773182e-05 -4.195131e-07
-3.673939e-05 -1.689715e-05 -4.195131e-07
3.043921e-05 -2.690779e-05 -1.938488e-07
3.043921e-05 2.690779e-05 -1.938488e-07
-4.011272e-05 5.059022e-06 -4.248043e-07
-2.214870e-05 -3.382395e-05 -4.248043e-07
-2.530114e-05 -3.154729e-05 -4.188452e-07
-1.205933e-05 3.879079e-05 2.057753e-07
3.855314e-05 1.016897e-05 -4.049593e-07
7.148964e-06 -3.922982e-05 4.079664e-07
3.855314e-05 -1.016897e-05 -4.049593e-07
1.276761e-05 -3.762297e-05 2.466783e-07
-1.178920e-05 -3.888037e-05 1.910764e-07
2.863220e-05 2.845197e-05 4.592523e-07
-4.600233e-07 4.042915e-05 -4.240018e-07
-6.061602e-06 3.997481e-05 -4.240018e-07
[...]
POINT_DATA 10294
VECTORS 10.000GHz_fone_imag double
8.588269e-05 1.098051e-05 2.355637e-02
-2.995724e-05 5.972121e-05 2.333060e-02
-3.636069e-04 9.211934e-05 2.333715e-02
-1.045553e-03 5.473765e-04 -2.588195e-02
-1.307628e-02 -1.886574e-02 7.577587e-03
8.169030e-03 3.044563e-03 2.163543e-02
-6.771282e-03 4.359016e-03 2.205187e-02
-6.771881e-03 -4.359078e-03 2.205205e-02
-6.501638e-03 4.162725e-04 -2.494142e-02
-5.366424e-03 -3.708780e-03 -2.492189e-02
-3.069438e-03 -5.693103e-03 -2.488550e-02
1.773177e-02 -1.431515e-02 7.724371e-03
2.278666e-02 3.673468e-04 7.722243e-03
1.498691e-02 1.679707e-02 8.896536e-03
-1.224098e-03 -1.286612e-03 -2.572553e-02
1.066840e-02 1.991808e-02 8.732345e-03
-2.835364e-03 -9.100639e-03 2.163742e-02
-7.037954e-03 4.013756e-03 2.214249e-02
-7.223122e-03 3.317057e-03 2.217145e-02
1.239729e-03 7.753785e-03 2.202964e-02
1.989091e-03 7.858926e-03 2.205107e-02
-8.291375e-03 -3.019320e-05 2.187280e-02
-8.262910e-03 1.715765e-05 2.186708e-02
1.082518e-02 -2.177727e-02 2.841617e-03
7.799323e-03 3.408380e-03 -2.401915e-02
2.458211e-04 -2.031168e-03 -2.574272e-02
-2.291139e-04 3.220080e-05 -2.550271e-02
2.413820e-02 1.747863e-03 1.509011e-03
2.413222e-02 -1.759125e-03 1.509863e-03
7.661231e-04 1.175251e-03 -2.578199e-02
-1.078530e-02 1.948595e-02 -1.165861e-02
2.236279e-02 -4.411871e-03 -1.039262e-02
2.239698e-02 4.392891e-03 -1.038791e-02
-2.153437e-03 -8.546815e-03 2.169917e-02
-1.672312e-02 1.692825e-02 -8.281847e-03
-1.393496e-03 -2.379041e-02 -8.261767e-03
-1.099480e-03 1.630719e-03 -2.564990e-02
-7.831582e-03 2.094473e-02 8.780832e-03
7.790575e-03 1.046605e-02 -2.174997e-02
-9.175910e-03 3.428314e-03 2.133223e-02
-6.437108e-03 -7.664167e-03 2.104596e-02
1.596643e-03 -9.846717e-03 2.112341e-02
-5.406365e-03 8.242336e-03 2.146101e-02
-5.370432e-03 -8.277475e-03 2.132161e-02
-1.907053e-02 -1.185014e-02 -1.075871e-02
-1.172925e-02 -1.911692e-02 -1.082228e-02
-2.198887e-02 4.034563e-03 -1.087930e-02
-9.206794e-04 -1.572472e-03 -2.559133e-02
-2.181186e-02 -5.813706e-03 -1.095075e-02
-2.192629e-02 5.519336e-03 -1.086824e-02
-2.238349e-02 -2.740943e-03 -1.084546e-02
-2.124726e-02 -7.163431e-03 -1.079770e-02
-1.492329e-02 1.697218e-02 -1.085985e-02
1.145483e-03 2.239950e-02 -1.080648e-02
-1.582471e-02 -1.591123e-02 -1.075943e-02
-2.008808e-02 -9.958682e-03 -1.074888e-02
-1.198172e-03 7.340691e-03 2.175602e-02
1.080794e-03 9.068757e-03 2.145471e-02
8.062632e-03 1.263004e-02 -2.068394e-02
6.897202e-03 -5.996972e-03 2.158131e-02
6.592470e-03 5.867723e-03 2.133105e-02
-1.195044e-02 -2.097272e-02 -6.000507e-03
-2.258687e-02 -8.424702e-03 -5.990371e-03
-2.104039e-02 -1.149209e-02 -6.408937e-03
-1.647594e-02 -1.750811e-02 -6.030446e-03
-1.976932e-02 1.374925e-02 -6.288872e-03
-2.332935e-02 -5.551573e-03 -6.317944e-03
-2.849536e-03 2.385835e-02 -6.331729e-03
-1.228831e-02 2.067697e-02 -6.241727e-03
8.264922e-03 -1.254578e-02 -2.051230e-02
-2.325535e-02 6.036639e-03 -6.277045e-03
-2.007216e-02 -1.326075e-02 -6.066189e-03
2.719248e-03 2.386676e-02 -6.332700e-03
-1.579899e-02 1.809579e-02 -6.194561e-03
-2.392128e-02 -2.115871e-03 -6.394958e-03
3.953599e-04 2.399734e-02 -6.377058e-03
-2.401748e-02 9.682028e-04 -6.304949e-03
-1.071439e-02 2.165084e-02 -5.994613e-03
-1.519322e-02 1.845266e-02 -6.283186e-03
-2.313913e-02 -6.238877e-03 -6.375046e-03
-2.108262e-03 1.394769e-02 -2.127869e-02
-2.298520e-02 6.695482e-03 -6.410127e-03
-2.375559e-02 -2.992044e-03 -6.311977e-03
1.345208e-02 1.772352e-02 9.337426e-03
-2.206383e-02 9.761578e-03 -4.399870e-03
4.032310e-03 2.365587e-02 -4.358062e-03
6.265831e-03 2.312640e-02 -4.249076e-03
5.774014e-03 7.954656e-03 -2.335205e-02
1.841345e-05 7.920855e-03 2.148097e-02
4.863698e-03 5.736619e-03 2.201122e-02
4.914147e-03 -5.469406e-03 2.179207e-02
9.082200e-03 1.079151e-02 -2.125317e-02
-1.230494e-02 -1.822997e-02 -1.241574e-02
-1.222661e-02 1.818141e-02 -1.245952e-02
2.871242e-03 -2.192485e-02 -1.211329e-02
2.097453e-03 -7.481446e-03 2.196640e-02
-7.719533e-03 3.517857e-04 2.216341e-02
-1.733577e-03 7.844215e-03 2.211443e-02
-2.185022e-03 7.586222e-03 2.193130e-02
-6.013594e-03 5.292568e-03 2.204953e-02
-7.225479e-03 3.441990e-03 2.204552e-02
-9.265785e-04 7.598892e-03 2.218150e-02
1.206672e-02 -4.313621e-03 -2.217453e-02
-1.511879e-03 7.941247e-03 2.206552e-02
-3.958265e-03 6.627342e-03 2.209654e-02
-2.930080e-03 7.458790e-03 2.206399e-02
7.684593e-03 2.331132e-02 -4.454578e-04
6.481142e-03 -2.139501e-02 9.052993e-03
2.759497e-03 1.798168e-03 -2.565206e-02
2.757763e-03 -1.797563e-03 -2.565297e-02
8.623961e-03 -2.043251e-02 9.599486e-03
-4.859116e-03 8.649341e-03 2.130828e-02
7.684488e-03 3.408078e-03 2.163792e-02
-3.747691e-04 -3.508539e-04 2.346891e-02
-1.599586e-02 -2.230004e-03 -1.992043e-02
7.881267e-03 1.033304e-03 -2.446114e-02
7.881745e-03 -1.032501e-03 -2.446157e-02
2.231382e-02 1.011908e-02 -2.483756e-03
1.363275e-02 2.037495e-02 -2.447403e-03
1.748617e-02 -1.718520e-02 -2.541490e-03
2.434520e-02 -2.835341e-03 -2.443084e-03
1.786706e-02 1.678692e-02 -2.507602e-03
-6.664277e-03 -7.154273e-03 2.119460e-02
-5.723348e-03 -7.215411e-03 2.154298e-02
-5.846493e-03 7.778801e-03 2.134155e-02
-1.599874e-02 2.230722e-03 -1.992221e-02
6.901767e-04 -8.956371e-03 2.163592e-02
-1.429242e-02 1.580711e-02 1.076848e-02
-2.547464e-04 -2.132522e-02 1.076656e-02
5.114994e-03 -5.976603e-03 2.189643e-02
-1.108074e-04 7.845965e-03 2.189902e-02
5.270808e-03 1.271923e-02 -2.176491e-02
-5.478191e-03 -5.422623e-03 2.186458e-02
-6.926690e-03 3.300641e-03 2.191237e-02
2.021478e-02 -1.049053e-02 -1.020736e-02
2.011569e-02 1.027777e-02 -1.006348e-02
4.863746e-03 1.190492e-02 -2.219510e-02
-2.676313e-03 7.890454e-04 -2.565564e-02
-2.814905e-03 -7.248613e-04 -2.563402e-02
2.341429e-02 4.695065e-03 4.798130e-03
2.338486e-02 -4.751091e-03 4.770605e-03
1.855275e-03 2.441591e-03 -2.516601e-02
-8.285233e-03 1.270615e-03 2.170552e-02
-8.283208e-03 -1.270270e-03 2.170819e-02
-2.559399e-03 -1.217296e-03 -2.567377e-02
1.006417e-02 -6.533971e-05 2.124420e-02
1.748194e-03 7.776811e-03 2.218472e-02
1.347815e-02 5.909594e-03 -2.109270e-02
-7.065880e-03 -3.929190e-03 2.194114e-02
-7.561679e-03 2.757779e-03 2.207477e-02
-6.656076e-03 4.628417e-03 2.192558e-02
-5.480142e-03 -5.841462e-03 2.192833e-02
-7.488231e-03 2.037981e-03 2.207534e-02
-6.158321e-03 5.222366e-03 2.211018e-02
-7.593789e-03 -1.904151e-03 2.212035e-02
-2.578507e-03 7.577352e-03 2.207276e-02
-3.500420e-03 7.021321e-03 2.204506e-02
-5.016030e-03 5.839313e-03 2.217303e-02
-4.364684e-03 1.358766e-02 -2.093803e-02
-8.079033e-03 6.415217e-05 2.211185e-02
-4.443617e-04 7.976339e-03 2.204836e-02
8.330553e-04 7.586381e-03 2.219068e-02
-7.527205e-03 -2.841108e-03 2.198033e-02
-6.872052e-03 3.747980e-03 2.216503e-02
-7.874145e-03 -7.997733e-04 2.195466e-02
2.072065e-04 8.026690e-03 2.199603e-02
-6.684887e-03 -4.431548e-03 2.193664e-02
-3.966143e-03 -7.008450e-03 2.198363e-02
-7.875913e-03 1.355665e-03 2.209743e-02
7.786825e-04 1.569550e-02 -2.042297e-02
-2.238409e-02 -5.727181e-04 -1.132428e-02
-1.754314e-02 1.389388e-02 -1.132412e-02
-1.655354e-02 1.503312e-02 -1.106763e-02
2.768302e-03 2.243470e-02 -1.116204e-02
-2.254804e-02 1.008760e-03 -1.101901e-02
-2.104154e-02 7.581408e-03 -1.101532e-02
-2.481880e-03 2.247205e-02 -1.115941e-02
-8.523086e-03 2.069621e-02 -1.106778e-02
-1.145476e-02 1.943669e-02 -1.101370e-02
-1.060008e-03 2.232038e-02 -1.102972e-02
1.099896e-02 -1.129606e-02 -2.041405e-02
-4.140543e-03 2.200021e-02 -1.100551e-02
8.371025e-03 -5.384630e-03 2.128822e-02
-1.608620e-02 -8.888050e-03 -1.756300e-02
-1.608322e-02 8.888200e-03 -1.756096e-02
-4.323929e-03 -2.172283e-02 9.629797e-03
-1.061233e-02 1.925061e-02 9.640793e-03
4.615173e-03 -1.899907e-02 1.332208e-02
1.752453e-02 1.683136e-02 2.729323e-03
6.380762e-03 7.190497e-03 2.133718e-02
-1.480275e-02 -1.315348e-02 1.300326e-02
1.105157e-02 -1.316971e-02 -1.883156e-02
1.079272e-03 -9.786919e-03 2.112130e-02
-5.739948e-03 8.019437e-03 2.123759e-02
-5.719783e-03 -8.093784e-03 2.114956e-02
-7.803100e-03 6.330206e-04 2.189476e-02
-7.803084e-03 -6.408142e-04 2.187275e-02
1.735288e-02 -1.128187e-02 1.200768e-02
2.085236e-02 -1.653107e-04 1.181325e-02
1.842770e-02 -5.561865e-03 -1.627932e-02
-6.166277e-03 -9.232473e-04 -2.496012e-02
2.008375e-03 -1.958043e-02 -1.590056e-02
-3.769279e-04 1.718085e-02 -1.880822e-02
-2.562265e-03 -1.950891e-02 -1.591954e-02
8.968024e-03 -1.749484e-02 -1.591233e-02
-6.105658e-03 -1.873675e-02 -1.593572e-02
3.638100e-03 6.777000e-03 2.207573e-02
3.901481e-03 -6.958845e-03 2.213966e-02
7.146428e-03 2.731769e-03 2.205631e-02
7.163676e-03 -1.740946e-02 1.473014e-02
7.188922e-03 1.733352e-02 1.473124e-02
-1.611827e-02 -1.241461e-02 1.242909e-02
-1.209575e-02 -1.635026e-02 1.243864e-02
-1.807827e-02 -5.281424e-03 -1.720196e-02
-1.182116e-02 1.655993e-02 1.251221e-02
1.910388e-02 -1.481936e-02 3.623707e-03
1.910497e-02 1.482008e-02 3.623750e-03
-7.735562e-03 4.306891e-03 2.160488e-02
-7.736508e-03 -4.306093e-03 2.160144e-02
-1.649957e-02 -1.168241e-02 1.274556e-02
-1.997396e-02 -2.899976e-03 1.256797e-02
-2.011892e-02 1.536175e-03 1.272851e-02
-1.466581e-02 1.398763e-02 1.252513e-02
-1.251223e-02 1.589110e-02 1.254090e-02
3.073885e-04 -1.356961e-04 2.349780e-02
-1.845240e-02 5.530384e-03 -1.652923e-02
-9.754751e-03 -1.777977e-02 1.263115e-02
-1.453493e-02 -1.408236e-02 1.256519e-02
-1.837668e-02 -8.609742e-03 1.251014e-02
6.822540e-03 -6.088876e-03 2.136878e-02
6.820053e-03 6.097748e-03 2.136403e-02
-2.045713e-02 2.253119e-03 1.209736e-02
-1.154217e-02 -1.703056e-02 1.208497e-02
-1.246596e-02 -1.589398e-02 1.271482e-02
2.854482e-03 -9.517069e-03 2.128061e-02
1.951273e-02 5.246929e-03 -1.524376e-02
-3.767462e-03 2.020199e-02 -1.474763e-02
1.948290e-02 -5.252857e-03 -1.518593e-02
-3.702396e-03 1.156427e-02 -2.228366e-02
2.735653e-03 9.129170e-03 2.131944e-02
-1.559814e-02 -1.563205e-02 9.078171e-03
1.125144e-04 2.057276e-02 1.215707e-02
-2.818489e-03 2.037423e-02 1.218410e-02
1.983392e-03 2.049625e-02 1.216870e-02
-8.832218e-03 1.860169e-02 1.218169e-02
-1.075644e-02 -1.896557e-02 1.023732e-02
-2.040516e-02 -7.638859e-03 1.022844e-02
1.275926e-02 1.554229e-02 -1.529999e-02
-2.164849e-02 3.480205e-03 9.933641e-03
3.989385e-04 2.184616e-02 1.019459e-02
-1.816956e-02 -1.214615e-02 1.012283e-02
-1.487841e-02 -1.598488e-02 1.012861e-02
-9.608673e-03 1.948465e-02 1.021272e-02
-2.124804e-02 -5.045079e-03 1.014643e-02
-1.391766e-02 1.687431e-02 9.952779e-03
-1.925755e-02 -1.047636e-02 1.006552e-02
-2.181245e-02 -1.990433e-03 1.010119e-02
-1.785113e-02 1.234060e-02 1.032197e-02
6.968441e-03 1.857267e-02 -1.577924e-02
-2.109186e-02 6.045400e-03 9.978955e-03
2.011977e-02 1.028495e-02 -9.804892e-03
2.011864e-02 -1.034305e-02 -9.804324e-03
-1.359814e-02 1.400213e-03 -2.167460e-02
-1.359670e-02 -1.399736e-03 -2.167248e-02
5.353607e-03 1.349885e-03 -2.503857e-02
5.933884e-04 -5.490149e-03 -2.503503e-02
5.358660e-03 -1.412460e-03 -2.501668e-02
-1.926381e-04 -5.550400e-03 -2.500970e-02
2.496741e-03 -4.971794e-03 -2.501627e-02
-4.494314e-03 1.940142e-02 -1.573371e-02
4.584935e-03 -3.062727e-03 -2.505248e-02
2.734126e-03 -4.806872e-03 -2.506801e-02
5.340331e-03 -1.464024e-03 -2.501914e-02
-6.705989e-04 -5.402820e-03 -2.502926e-02
5.491678e-03 6.027780e-04 -2.505266e-02
5.249849e-03 1.369153e-03 -2.503098e-02
4.834882e-03 2.531378e-03 -2.503775e-02
-7.094858e-03 1.877681e-02 1.289926e-02
2.134818e-02 -5.517535e-03 -1.206710e-02
2.131153e-02 5.390856e-03 -1.204796e-02
2.328219e-02 1.252178e-03 -9.690810e-03
-2.246399e-02 1.047425e-02 -2.568546e-03
-6.750538e-04 -4.556579e-03 -2.534824e-02
-9.029643e-03 1.809207e-02 -1.536790e-02
-5.595368e-03 -1.301169e-02 -2.132454e-02
6.899204e-03 -1.789391e-02 1.402377e-02
-2.242257e-02 9.702490e-03 -4.959725e-04
-2.582484e-03 -5.177446e-03 -2.498796e-02
2.289455e-02 -4.676105e-03 -8.293962e-03
2.289525e-02 4.595359e-03 -8.299956e-03
1.862796e-02 5.851263e-03 1.378009e-02
2.320655e-02 -1.383364e-03 -9.771419e-03
-1.899309e-02 1.095850e-02 9.394777e-03
-1.899560e-02 -1.095687e-02 9.396788e-03
9.336620e-03 1.998688e-02 9.474160e-03
-2.721198e-03 -1.277073e-02 -2.208901e-02
-1.354029e-02 -1.637517e-02 1.125301e-02
-1.105947e-02 -2.153173e-02 3.051792e-03
2.140001e-02 -4.534293e-03 1.002976e-02
1.561157e-02 1.517876e-02 1.002666e-02
1.870654e-02 1.120031e-02 1.002458e-02
1.188335e-02 1.829407e-02 9.785832e-03
9.981328e-03 -1.993725e-02 -1.164048e-02
1.579985e-02 -1.503602e-02 9.954587e-03
1.967822e-02 9.443197e-03 9.985444e-03
2.078106e-02 6.597294e-03 1.005582e-02
2.078447e-02 -6.811457e-03 1.001683e-02
2.162169e-02 -2.813454e-03 9.784323e-03
2.184047e-02 1.186649e-03 9.992707e-03
4.124304e-04 -2.174380e-02 9.821413e-03
1.753133e-02 -1.309453e-02 9.989919e-03
8.820003e-03 -1.988101e-02 9.807653e-03
3.427276e-03 -2.159252e-02 9.862457e-03
-6.350463e-03 -1.302546e-02 -2.109010e-02
-1.565953e-03 -2.170512e-02 9.873093e-03
-1.951438e-03 -7.497412e-03 2.201084e-02
-5.870766e-04 -3.814589e-03 -2.550340e-02
-1.846218e-02 1.275091e-02 -1.127242e-02
-2.462396e-03 -8.674338e-03 -2.398684e-02
-1.532777e-03 -8.992398e-03 -2.399813e-02
2.654040e-03 -8.654496e-03 -2.403872e-02
9.907737e-03 -2.704192e-03 2.091554e-02
9.902741e-03 -2.764166e-03 2.099793e-02
9.931392e-03 2.539490e-03 2.095717e-02
1.734554e-02 -1.058359e-02 -1.502376e-02
9.984572e-03 2.666008e-03 2.090230e-02
-2.359952e-02 -4.560863e-03 -5.806830e-03
-1.311789e-02 2.020618e-02 -5.727593e-03
1.712201e-02 1.697716e-02 -6.140992e-03
-1.990206e-02 6.106135e-03 -1.416161e-02
-4.504148e-05 1.090388e-04 2.337148e-02
-3.351084e-04 2.345788e-04 -2.577220e-02
1.734540e-02 1.058258e-02 -1.502421e-02
-3.355136e-04 -2.349884e-04 -2.577377e-02
-7.359434e-04 -3.464678e-04 -2.583471e-02
-6.910350e-04 2.769961e-04 -2.583268e-02
-9.145280e-03 -2.197072e-02 -7.624225e-03
4.876415e-03 2.001091e-02 -1.488937e-02
1.786426e-02 -1.233076e-02 -1.298135e-02
1.786453e-02 1.233064e-02 -1.298135e-02
1.966503e-02 1.322380e-02 -7.650955e-03
-2.201186e-04 -2.019429e-04 2.352746e-02
1.966504e-02 -1.322394e-02 -7.650863e-03
5.206344e-03 2.299198e-02 -7.707981e-03
3.851024e-03 2.046807e-02 -1.424442e-02
-4.495227e-04 -2.518532e-03 -2.557629e-02
1.627855e-02 1.274726e-02 -1.456772e-02
1.804397e-02 1.372846e-02 -1.111257e-02
1.627636e-02 -1.274665e-02 -1.456703e-02
1.804298e-02 -1.372802e-02 -1.111228e-02
-2.255744e-02 1.146571e-03 -1.162880e-02
-2.376483e-02 5.615746e-04 -7.755377e-03
-2.846636e-04 -1.295882e-04 2.342485e-02
-2.243249e-02 -1.278100e-03 -1.174626e-02
-2.373515e-02 -5.512723e-04 -7.731013e-03
-6.038953e-03 2.172134e-02 -1.046138e-02
1.008913e-02 2.114504e-02 -8.533630e-03
7.119808e-03 -2.245693e-02 -7.856083e-03
-5.861236e-03 -1.744228e-02 -1.782000e-02
6.706892e-03 2.097326e-02 -1.228957e-02
-4.894590e-03 -1.772957e-02 -1.734973e-02
5.738903e-03 2.104847e-02 -1.225400e-02
-4.244587e-03 -1.886009e-02 -1.654689e-02
9.268128e-05 -3.696022e-04 2.345923e-02
4.791321e-03 2.137301e-02 -1.233844e-02
-9.717829e-03 -2.092660e-02 -9.505498e-03
1.772708e-02 -4.623584e-03 -1.750376e-02
-2.103359e-02 5.654512e-03 -1.270834e-02
1.469178e-02 -1.016979e-02 -1.833652e-02
-1.882932e-02 1.237343e-02 -1.094971e-02
-1.262511e-02 -1.912756e-02 -8.906361e-03
-2.134726e-02 -8.921954e-03 -9.523270e-03
1.717227e-02 -6.438356e-03 -1.789443e-02
-2.039352e-02 7.529069e-03 -1.232023e-02
1.218637e-04 1.177363e-04 2.336066e-02
8.249537e-03 -1.636306e-02 -1.786211e-02
-1.002265e-02 1.956472e-02 -1.230749e-02
-2.186934e-02 -6.611283e-03 -9.376295e-03
1.816095e-02 1.194504e-04 -1.753451e-02
-2.189162e-02 -5.782034e-05 -1.248290e-02
-1.595127e-02 1.676214e-02 -9.518652e-03
-2.183228e-02 7.085396e-03 -9.255353e-03
1.583341e-02 -8.226756e-03 -1.838404e-02
-1.932116e-02 1.040746e-02 -1.219766e-02
6.404268e-03 -1.832369e-02 -1.657197e-02
1.966283e-04 7.382455e-05 2.351187e-02
-7.165812e-03 2.066723e-02 -1.244083e-02
1.401195e-02 -1.154714e-02 -1.752939e-02
-1.683559e-02 1.397425e-02 -1.248033e-02
1.994605e-03 2.293960e-02 -8.267843e-03
-1.730740e-02 -1.510237e-02 -9.537519e-03
9.073858e-03 -1.546303e-02 -1.829228e-02
-1.094006e-02 1.891816e-02 -1.235734e-02
-2.288697e-02 1.851287e-03 -9.472709e-03
1.219352e-02 -1.378521e-02 -1.746631e-02
-1.404568e-02 1.653358e-02 -1.262297e-02
2.455462e-05 3.200558e-04 2.345005e-02
-1.329407e-02 -1.855110e-02 -9.519737e-03
-2.263756e-03 -1.820283e-02 -1.787280e-02
3.015566e-03 2.178222e-02 -1.234604e-02
6.750158e-03 -1.705756e-02 -1.785947e-02
-8.121687e-03 2.019211e-02 -1.235735e-02
1.980349e-03 -1.823011e-02 -1.786199e-02
-2.111043e-03 2.186876e-02 -1.240106e-02
-3.403539e-03 2.290505e-02 -8.289705e-03
-1.156355e-04 2.306285e-02 -8.218584e-03
-9.633513e-03 2.095625e-02 -8.265657e-03
1.019153e-04 -1.807640e-04 2.337744e-02
-4.182379e-04 -3.351949e-04 2.366134e-02
-3.300485e-03 -1.819849e-02 -1.726788e-02
3.932906e-03 2.155828e-02 -1.215075e-02
-1.867412e-02 -1.335958e-02 -9.543123e-03
1.648807e-02 -9.994920e-03 -1.662231e-02
-1.869166e-02 1.122330e-02 -1.254071e-02
-1.413511e-02 1.822140e-02 -9.619835e-03
1.031140e-03 -1.834146e-02 -1.795202e-02
-1.221529e-03 2.169266e-02 -1.227510e-02
1.835530e-02 1.632258e-03 -1.747122e-02
-2.168900e-02 -2.362615e-03 -1.261050e-02
-1.180342e-04 3.844817e-05 2.347350e-02
4.680091e-03 -1.870787e-02 -1.670024e-02
-5.142088e-03 2.123120e-02 -1.234291e-02
-2.276534e-02 2.789406e-03 -8.910571e-03
-1.241683e-02 1.935919e-02 -9.402628e-03
3.617319e-03 -1.800041e-02 -1.788423e-02
-4.189315e-03 2.135920e-02 -1.230454e-02
-1.667718e-02 -1.586528e-02 -1.002638e-02
-4.453721e-04 -1.840638e-02 -1.756625e-02
7.663952e-04 2.172677e-02 -1.267720e-02
5.216052e-03 -1.770602e-02 -1.733104e-02
-3.115463e-04 -4.429102e-04 2.357234e-02
-6.080655e-03 2.098829e-02 -1.211792e-02
1.606462e-02 -7.592964e-03 -1.843810e-02
-1.978084e-02 9.310762e-03 -1.238185e-02
-2.080501e-02 -9.562803e-03 -1.017739e-02
-1.652049e-02 1.596934e-02 -1.003791e-02
-2.292819e-02 -1.342598e-03 -9.265250e-03
-2.243788e-02 4.816625e-03 -9.257868e-03
1.782190e-02 4.390534e-03 -1.746089e-02
-2.116593e-02 -5.280374e-03 -1.275118e-02
1.643072e-02 -6.845262e-03 -1.825541e-02
4.679619e-05 -1.372826e-04 2.333924e-02
-2.020164e-02 8.493192e-03 -1.243706e-02
1.723196e-02 6.396765e-03 -1.751243e-02
-2.051587e-02 -7.174209e-03 -1.264267e-02
-1.444582e-02 -1.806885e-02 -9.602936e-03
1.536590e-02 1.013647e-02 -1.755585e-02
-1.827471e-02 -1.171175e-02 -1.266834e-02
1.809104e-02 -3.004425e-03 -1.761597e-02
-2.125902e-02 3.556692e-03 -1.245445e-02
-1.327665e-02 1.890561e-02 -9.720599e-03
-2.286397e-02 -3.498909e-03 -9.555177e-03
-4.568801e-05 7.483685e-05 2.354276e-02
1.373568e-02 -1.213645e-02 -1.787370e-02
-1.621225e-02 1.447740e-02 -1.235724e-02
-1.844979e-02 1.364895e-02 -9.272350e-03
1.787794e-02 -8.040112e-04 -1.827902e-02
-2.184204e-02 7.872590e-04 -1.237791e-02
-1.787200e-02 -1.417303e-02 -9.568181e-03
-1.534449e-02 -1.736874e-02 -9.429386e-03
-1.977332e-02 -1.144598e-02 -9.390269e-03
-2.253889e-02 -4.495918e-03 -9.419884e-03
1.613251e-02 8.840555e-03 -1.754794e-02
-8.823581e-05 -3.375898e-04 2.340527e-02
-1.926900e-02 -9.954130e-03 -1.257738e-02
1.263195e-02 1.339847e-02 -1.756021e-02
-1.508079e-02 -1.559595e-02 -1.266949e-02
9.115661e-03 1.593660e-02 -1.750225e-02
-1.114533e-02 -1.864908e-02 -1.265343e-02
-1.065305e-02 -2.022046e-02 -9.488455e-03
2.193397e-02 -7.452530e-03 -9.417623e-03
-4.299731e-04 2.371073e-02 -7.222546e-03
1.536019e-02 -1.806880e-02 -7.247058e-03
1.612897e-02 -1.686194e-02 -8.238066e-03
3.807231e-04 4.660061e-05 2.349779e-02
7.730664e-04 2.333940e-02 -8.251448e-03
2.121695e-02 9.044731e-03 -9.248864e-03
-2.328509e-02 2.786822e-03 -8.822700e-03
-2.328372e-02 -2.787294e-03 -8.822327e-03
1.118054e-02 -2.031448e-02 -9.270754e-03
1.109228e-02 2.031092e-02 -9.163665e-03
9.322990e-03 2.161782e-02 -8.132585e-03
1.002842e-02 2.154158e-02 -7.566556e-03
1.055921e-02 2.137022e-02 -7.487322e-03
1.109267e-02 2.087525e-02 -7.487497e-03
-3.671081e-05 2.899469e-04 2.347012e-02
1.150036e-02 2.060561e-02 -7.899039e-03
2.392614e-02 2.882703e-03 -6.183692e-03
2.392607e-02 -2.881701e-03 -6.183024e-03
-2.233914e-02 -1.008859e-02 -4.930398e-03