# vtk DataFile Version 2.0
Electric current density generated by TTH
ASCII
DATASET UNSTRUCTURED_GRID
POINTS 1967 double
1.483666e-06 -1.601131e-05 -5.217365e-22
-1.060214e-05 -5.415729e-06 -5.980289e-07
-1.322385e-05 -1.957125e-06 2.049143e-06
-1.468783e-05 -6.216823e-06 7.343156e-07
-1.104366e-05 -4.296252e-06 3.580236e-07
6.353582e-07 1.192913e-05 7.229630e-07
-6.374789e-06 1.066169e-05 1.484569e-06
-1.253490e-05 -8.267618e-06 1.844144e-06
-1.078820e-05 -1.168619e-05 -8.465204e-07
1.324640e-05 -5.843924e-06 -2.063558e-06
1.324640e-05 5.843924e-06 -2.063558e-06
2.466522e-06 -1.588960e-05 -5.217365e-22
1.091739e-05 -1.053429e-05 1.745271e-06
1.091739e-05 1.053429e-05 1.745271e-06
1.097273e-05 8.700349e-06 -2.129474e-06
1.097273e-05 -8.700349e-06 -2.129474e-06
-4.074802e-06 -1.197595e-05 -1.687811e-06
5.901011e-06 -1.167094e-05 -1.943583e-06
8.360039e-06 1.356807e-05 -7.674812e-07
-5.892149e-06 1.024682e-05 4.615268e-08
-1.089105e-05 1.040994e-05 1.814306e-06
6.386583e-06 1.180298e-05 2.063249e-06
3.440022e-06 -1.570762e-05 -5.217365e-22
-1.120936e-05 4.326560e-06 -8.920120e-07
-1.018683e-05 7.938302e-06 1.861748e-06
-5.888356e-06 1.396205e-05 1.757803e-06
-1.290070e-05 8.111277e-06 1.695845e-06
-1.133011e-05 3.644726e-06 5.864217e-07
-1.103049e-05 1.144507e-05 -8.673453e-07
-2.216494e-07 1.590370e-05 -8.447442e-07
-1.950667e-06 1.271128e-05 1.830346e-06
-9.688538e-06 6.939658e-06 6.383364e-07
-5.131746e-06 -1.324822e-05 -2.114511e-06
4.400473e-06 -1.546606e-05 -5.217365e-22
-1.243006e-05 1.893104e-06 -1.625786e-06
1.154130e-05 6.644056e-06 2.034035e-06
1.154130e-05 -6.644056e-06 2.034035e-06
1.171716e-05 -2.976739e-06 -1.037550e-06
1.171716e-05 2.976739e-06 -1.037550e-06
-6.821721e-06 -1.171988e-05 2.094315e-06
-5.740754e-06 1.061580e-05 -9.994317e-07
-1.573331e-05 -2.497471e-06 7.841869e-07
-7.923958e-06 1.034066e-05 1.920205e-06
6.420834e-06 -9.944241e-06 2.718812e-07
5.344232e-06 -1.516583e-05 -5.217365e-22
1.130703e-05 -1.020954e-05 -1.699263e-06
1.130703e-05 1.020954e-05 -1.699263e-06
1.492122e-05 -5.531814e-06 8.250462e-07
1.492122e-05 5.531814e-06 8.250462e-07
4.591842e-06 -1.209172e-05 1.872510e-06
-8.925256e-07 -1.510263e-05 1.773966e-06
-5.551372e-06 -1.490518e-05 -8.443528e-07
-4.383612e-06 1.454391e-05 1.731731e-06
1.236918e-05 1.771604e-06 -1.556416e-06
1.236918e-05 -1.771604e-06 -1.556416e-06
6.267718e-06 -1.480807e-05 -5.217365e-22
8.763324e-06 8.370050e-06 -1.087841e-06
8.770919e-06 -8.364653e-06 -1.090812e-06
-9.574900e-06 -1.181533e-05 1.718884e-06
-2.369037e-07 -1.595892e-05 7.026478e-07
3.769665e-07 1.237732e-05 1.443266e-06
1.308947e-05 -4.103532e-06 -2.117465e-06
1.308947e-05 4.103532e-06 -2.117465e-06
-7.376651e-06 -9.547946e-06 -9.937077e-07
-6.568738e-06 9.826402e-06 2.550976e-08
-1.018994e-05 6.907225e-06 1.360116e-06
7.167428e-06 -1.439414e-05 -5.217365e-22
-2.556929e-06 1.472166e-05 -1.884903e-06
-1.259198e-05 -2.751689e-06 -1.847330e-06
-7.799580e-06 -1.090372e-05 -2.059620e-06
-4.579827e-06 1.107866e-05 -8.300575e-07
-8.092059e-06 -8.892873e-06 -9.094604e-07
1.311568e-05 -2.088557e-06 2.022430e-06
1.311568e-05 2.088557e-06 2.022430e-06
-8.614546e-06 -1.228325e-05 -1.851566e-06
1.077183e-05 1.174059e-05 7.762731e-07
-9.484509e-06 1.159793e-05 -1.863190e-06
8.039950e-06 -1.392560e-05 -5.217365e-22
-1.463562e-05 -4.504940e-07 -2.014339e-06
7.837555e-06 9.103048e-06 8.851079e-07
7.814227e-06 -9.123251e-06 8.853900e-07
-9.849354e-06 1.251861e-05 7.880701e-07
-6.660307e-06 1.452782e-05 -6.390641e-07
1.054081e-05 -5.958484e-06 -1.070886e-06
1.054081e-05 5.958484e-06 -1.070886e-06
-1.498736e-05 5.421821e-06 7.646784e-07
-1.378882e-05 8.006792e-06 -7.462397e-07
-1.488070e-05 -5.655249e-06 -8.119568e-07
8.881973e-06 -1.340424e-05 -5.217365e-22
-1.179631e-05 9.008185e-06 -1.934038e-06
8.514789e-06 -1.343255e-05 8.477749e-07
-1.209794e-05 -8.006423e-06 -2.055878e-06
7.985316e-06 -1.279417e-05 -1.804538e-06
6.117420e-06 1.388822e-05 1.741924e-06
9.994291e-06 -1.100099e-05 -1.924469e-06
1.001597e-05 1.099910e-05 -1.918153e-06
7.302226e-06 -9.616343e-06 -1.010670e-06
-1.196439e-05 8.920419e-07 -8.524396e-07
8.516321e-06 1.061917e-05 -2.103251e-06
9.690304e-06 -1.283204e-05 -5.217365e-22
8.533966e-06 -1.059860e-05 -2.102446e-06
-1.274390e-05 9.572461e-06 7.628853e-07
3.469917e-06 -1.390944e-05 -2.094892e-06
-1.313269e-06 -1.343322e-05 2.081537e-06
-8.588130e-06 8.133935e-06 1.961286e-07
1.073378e-06 1.297246e-05 1.914974e-06
-5.962079e-06 -1.021773e-05 -2.100112e-07
-4.794571e-06 1.084517e-05 4.012034e-07
1.575454e-05 -2.311584e-06 -8.018417e-07
1.575454e-05 2.311584e-06 -8.018417e-07
1.046188e-05 -1.221115e-05 -5.217365e-22
-3.744400e-06 -1.206823e-05 1.676605e-06
-1.282008e-05 -9.465775e-06 7.696930e-07
-4.188295e-06 1.322521e-05 -2.128752e-06
-1.535176e-05 4.329247e-06 -7.310847e-07
-1.345189e-05 -3.501192e-06 -2.129571e-06
-1.284446e-05 9.409028e-06 -8.048437e-07
1.101418e-05 -4.344833e-06 -2.953690e-07
1.101418e-05 4.344833e-06 -2.953690e-07
1.560157e-05 6.514385e-07 -1.328127e-06
1.560157e-05 -6.514385e-07 -1.328127e-06
1.119376e-05 -1.154395e-05 -5.217365e-22
4.693153e-08 1.457890e-05 -2.035095e-06
-9.124040e-06 8.301370e-06 -1.389697e-06
3.283910e-06 -1.451354e-05 1.916089e-06
-1.185297e-05 -5.849881e-06 2.000501e-06
-1.569214e-05 2.719017e-06 7.950498e-07
1.416951e-05 -5.574129e-06 1.705136e-06
1.416951e-05 5.574129e-06 1.705136e-06
1.590395e-05 1.435699e-06 6.794825e-07
1.590395e-05 -1.435699e-06 6.794825e-07
5.802869e-06 1.133480e-05 -1.749038e-06
1.188319e-05 -1.083296e-05 -5.217365e-22
-9.627896e-06 1.023173e-05 2.127820e-06
1.054493e-05 6.119009e-06 1.202853e-06
1.054493e-05 -6.119009e-06 1.202853e-06
-1.400389e-05 7.583716e-06 7.962020e-07
-1.503909e-05 -1.774147e-06 1.764309e-06
-7.188197e-06 -1.419999e-05 -8.200774e-07
-1.385444e-05 -7.918323e-06 -7.113683e-07
-1.172773e-05 -1.982023e-06 -5.582016e-07
-1.352407e-05 -5.545499e-06 -2.022988e-06
-1.286755e-06 -1.196225e-05 -9.257048e-07
1.252754e-05 -1.008087e-05 -5.217365e-22
-7.191214e-06 -1.318871e-05 -1.840696e-06
-1.590768e-05 1.474063e-06 6.576856e-07
1.288334e-05 -7.245137e-06 1.961344e-06
1.288334e-05 7.245137e-06 1.961344e-06
3.358021e-06 1.265538e-05 -1.950403e-06
4.917709e-06 -1.437855e-05 -1.727346e-06
7.195526e-06 1.315947e-05 -1.854240e-06
-3.023250e-06 1.565055e-05 7.595564e-07
4.168633e-06 -1.213425e-05 -1.812308e-06
-2.162958e-06 -1.576880e-05 8.183003e-07
1.312436e-05 -9.290545e-06 -5.217365e-22
-1.389901e-05 2.473980e-06 2.123537e-06
-8.003795e-06 -8.698797e-06 6.962512e-08
8.522339e-06 1.347934e-05 7.392775e-07
-1.195048e-05 8.929050e-07 8.200996e-07
-9.650409e-06 -7.242147e-06 9.937730e-07
-1.540727e-05 -4.035064e-06 -7.927667e-07
1.443474e-05 4.375384e-06 -1.803505e-06
1.443474e-05 -4.375384e-06 -1.803505e-06
-7.897720e-06 9.230198e-06 -1.136108e-06
7.971524e-06 1.274053e-05 -1.836597e-06
1.367141e-05 -8.464976e-06 -5.217365e-22
-1.019563e-05 -9.971370e-06 -2.107273e-06
-1.080252e-05 -1.061032e-05 1.765397e-06
-1.579000e-05 2.451062e-06 -6.474929e-07
1.145830e-05 -9.879226e-06 1.773843e-06
1.145830e-05 9.879226e-06 1.773843e-06
-1.205446e-05 -1.042835e-05 -7.611504e-07
-5.435823e-06 -1.501658e-05 6.749187e-07
5.363071e-06 -1.245045e-05 -2.093520e-06
-7.253616e-06 1.333241e-05 -1.740469e-06
-3.047929e-06 1.160301e-05 -8.502778e-07
1.416659e-05 -7.607297e-06 -5.217365e-22
1.220989e-05 -9.459048e-06 -1.516937e-06
1.220989e-05 9.459048e-06 -1.516937e-06
-7.395564e-07 -1.592296e-05 -7.589164e-07
-1.463988e-05 -2.452225e-06 1.933430e-06
-1.071415e-05 5.061541e-06 -3.560779e-07
2.291905e-06 -1.339750e-05 -2.099916e-06
-4.490041e-06 -1.276794e-05 2.089270e-06
1.229463e-05 -2.187632e-06 1.549213e-06
1.229463e-05 2.187632e-06 1.549213e-06
-1.206375e-05 -4.024477e-06 -1.737439e-06
1.460803e-05 -6.720760e-06 -5.217365e-22
1.084447e-05 -1.170863e-05 7.069874e-07
1.253155e-05 -8.236359e-06 -1.855554e-06
1.253155e-05 8.236359e-06 -1.855554e-06
-1.248827e-05 7.344872e-06 2.061009e-06
-1.130165e-05 7.723856e-06 -2.114116e-06
5.324345e-06 1.501349e-05 7.858569e-07
-1.491175e-05 2.133971e-06 -1.815689e-06
1.164670e-05 -2.055894e-06 1.745146e-07
1.164670e-05 2.055894e-06 1.745146e-07
8.975093e-06 1.255129e-05 1.531726e-06
1.499406e-05 -5.808730e-06 -5.217365e-22
-1.590122e-06 -1.178472e-05 5.488255e-07
7.039932e-06 9.498060e-06 -1.129769e-07
9.591343e-06 -9.401893e-06 -2.065999e-06
9.591343e-06 9.401893e-06 -2.065999e-06
-8.613155e-06 1.261679e-05 1.666556e-06
-3.743698e-06 1.550709e-05 7.253643e-07
-2.906421e-06 1.385564e-05 2.120026e-06
-5.102543e-06 -1.100716e-05 -1.111093e-06
-6.457918e-06 -1.180811e-05 -2.072776e-06
-1.202664e-05 -9.063051e-06 1.818435e-06
1.532321e-05 -4.874665e-06 -5.217365e-22
-6.084682e-06 1.212506e-05 2.095327e-06
5.745033e-06 1.490229e-05 -6.713485e-07
1.522657e-05 -4.685533e-06 -7.819543e-07
1.522657e-05 4.685533e-06 -7.819543e-07
2.786803e-06 -1.162351e-05 7.417526e-07
-8.607702e-06 -1.056878e-05 2.106097e-06
-1.473006e-05 6.171827e-06 6.730030e-07
-9.582586e-07 1.517612e-05 1.720034e-06
-1.206256e-05 -3.287350e-06 -1.562996e-06
1.210307e-05 -1.037972e-05 7.476759e-07
1.559424e-05 -3.922108e-06 -5.217365e-22
1.210307e-05 1.037972e-05 7.476759e-07
-9.873774e-06 1.161148e-05 1.693423e-06
3.552777e-06 -1.218395e-05 1.718731e-06
-1.118260e-05 7.855932e-06 2.111201e-06
7.992757e-06 1.195108e-05 -2.086762e-06
-6.638003e-06 -1.079016e-05 -1.701738e-06
-1.484621e-05 -2.912341e-06 -1.773839e-06
-1.296625e-05 -7.949171e-06 -1.718108e-06
-4.456283e-06 -1.452905e-05 1.726748e-06
8.675288e-06 -1.244315e-05 1.746838e-06
1.580611e-05 -2.954674e-06 -5.217365e-22
-8.176314e-06 -1.277023e-05 1.750549e-06
1.752230e-06 1.480323e-05 -1.903161e-06
1.002124e-05 -1.245343e-05 -6.294341e-07
1.002124e-05 1.245343e-05 -6.294341e-07
-2.157684e-06 -1.493605e-05 -1.798573e-06
-2.752147e-06 -1.497396e-05 1.706413e-06
-2.868633e-06 1.239787e-05 1.743144e-06
5.774532e-06 -1.490579e-05 -6.279696e-07
7.441156e-06 1.153001e-05 2.118013e-06
-9.611012e-06 1.269042e-05 -8.118745e-07
1.595802e-05 -1.976031e-06 -5.217365e-22
[...]
POINT_DATA 1967
VECTORS 10.000GHz_fone_imag double
-3.373811e+10 -3.111499e+09 2.925071e+09
-4.392723e+10 8.052577e+10 3.183417e+09
-1.017257e+10 5.453345e+10 2.515743e+09
-1.333859e+10 3.371257e+10 -8.609190e+08
-3.716936e+10 8.140368e+10 -3.219599e+08
9.105899e+10 -1.277156e+09 -9.133263e+08
6.092831e+10 4.554889e+10 3.643026e+09
-2.823293e+10 4.424772e+10 -2.624772e+08
-2.290214e+10 2.053710e+10 1.016232e+09
-2.326319e+10 -4.770639e+10 -8.136214e+08
2.320237e+10 -4.761114e+10 8.326455e+08
-3.128913e+10 -5.614977e+09 -2.136670e+09
-2.982165e+10 -2.628004e+10 1.695511e+09
3.066839e+10 -2.928688e+10 9.662479e+08
3.548662e+10 -3.776749e+10 2.124936e+09
-3.558412e+10 -3.846289e+10 -2.113308e+09
-7.280147e+10 3.055895e+10 3.359573e+09
-5.576081e+10 -3.307261e+10 -2.372806e+09
3.415649e+10 -1.889326e+10 -3.840159e+08
6.630200e+10 3.641173e+10 -3.975531e+09
2.933225e+10 3.207683e+10 5.664922e+08
5.453889e+10 -3.285634e+10 -4.966309e+08
-2.826218e+10 -5.671130e+09 -1.414138e+08
2.993129e+10 6.480822e+10 5.027125e+08
4.537280e+10 5.534869e+10 -1.231068e+09
4.218291e+10 1.576914e+10 7.900383e+08
1.858359e+10 3.095760e+10 -1.062521e+09
2.828901e+10 8.517718e+10 5.451778e+09
2.738976e+10 2.721900e+10 2.916193e+09
2.883304e+10 2.630133e+08 -3.199049e+07
6.201448e+10 1.141510e+10 -9.717382e+07
5.855845e+10 7.618738e+10 -5.514900e+09
-4.946097e+10 2.023797e+10 -8.976521e+08
-2.777774e+10 -8.172467e+09 1.373886e+07
7.189539e+09 6.167429e+10 -2.063684e+09
2.915981e+10 -4.440067e+10 -2.280393e+07
-2.947035e+10 -4.440759e+10 -4.534219e+07
-2.491099e+10 -9.286412e+10 -9.192054e+08
2.290104e+10 -9.412679e+10 3.531302e+09
-4.382869e+10 2.538413e+10 1.497330e+09
7.075931e+10 3.876387e+10 2.175884e+09
-5.759249e+09 3.502627e+10 -2.423730e+09
5.091370e+10 4.162502e+10 -1.326526e+08
-9.065843e+10 -5.761214e+10 -6.670597e+08
-2.568654e+10 -8.501181e+09 1.164398e+09
-2.369059e+10 -2.528229e+10 1.223875e+08
2.536834e+10 -2.666894e+10 8.822460e+08
-1.070957e+10 -3.108145e+10 3.203401e+08
1.108592e+10 -3.192989e+10 3.180205e+08
-5.533707e+10 -2.329818e+10 1.784986e+09
-5.022633e+10 3.699619e+09 6.664863e+08
-3.505182e+10 1.306822e+10 1.886735e+09
3.920204e+10 1.233606e+10 1.191464e+09
4.989555e+09 -5.681251e+10 2.250109e+09
-5.247689e+09 -7.023497e+10 -5.334044e+09
-2.879339e+10 -1.337410e+10 -2.186601e+09
4.788081e+10 -5.108794e+10 3.277115e+09
-5.441088e+10 -5.793579e+10 -4.279963e+08
-3.536455e+10 2.777613e+10 7.960160e+08
-2.852140e+10 -3.252384e+08 -1.061418e+09
6.632422e+10 -5.584139e+08 -2.199389e+09
-1.537645e+10 -5.201467e+10 -2.366749e+09
1.591488e+10 -5.598892e+10 1.141404e+09
-5.369940e+10 4.517599e+10 -1.557521e+09
6.402882e+10 4.272201e+10 -3.219855e+09
3.949222e+10 7.014681e+10 6.853951e+09
-2.358209e+10 -1.245775e+10 8.517381e+08
4.277735e+10 5.838301e+09 5.774592e+07
-1.772580e+10 6.575035e+10 4.858864e+09
-5.000864e+10 4.046895e+10 2.800753e+08
7.957069e+10 3.918228e+10 -5.365617e+09
-7.640907e+10 6.558295e+10 -1.519667e+09
-1.626133e+10 -6.887846e+10 -3.229603e+08
1.232899e+10 -5.898478e+10 -1.875434e+08
-2.937739e+10 2.075923e+10 1.568739e+09
2.294173e+10 -2.122188e+10 -2.646157e+08
2.835982e+10 2.253772e+10 -2.574623e+08
-2.856683e+10 -1.584063e+10 -4.022139e+09
1.881635e+09 5.230886e+10 -1.796487e+09
5.553831e+10 -4.716129e+10 3.060406e+09
-6.224722e+10 -5.563866e+10 4.153648e+09
2.678324e+10 2.171907e+10 2.284087e+09
3.324727e+10 1.645897e+10 3.127218e+09
-3.282703e+10 -5.688864e+10 -6.035892e+08
3.267924e+10 -5.679125e+10 5.562751e+08
1.049696e+10 2.922613e+10 2.941812e+08
1.892309e+10 3.025468e+10 -2.565331e+09
-1.268639e+10 3.294635e+10 3.273227e+09
-2.552725e+10 -1.676368e+10 7.567984e+08
2.215555e+10 2.772912e+10 1.530748e+09
-3.139076e+10 -1.774118e+10 1.423833e+09
-2.164352e+10 3.450029e+10 5.257004e+08
-3.696381e+10 -1.916085e+10 6.582991e+07
3.538242e+10 -1.844918e+10 1.620825e+09
-3.261160e+10 -3.347299e+10 -1.084657e+08
3.171411e+10 -2.740189e+10 -4.164114e+08
-6.251390e+10 -4.529742e+10 -3.575590e+09
8.879755e+09 8.474044e+10 6.656035e+09
6.088281e+10 -4.700374e+10 7.739722e+08
-3.193298e+10 -2.337398e+10 1.185151e+09
-3.931136e+10 -2.943806e+10 -2.980995e+09
2.406339e+10 3.137782e+10 1.094996e+08
-3.813582e+10 -7.974509e+09 -3.239901e+09
-6.133645e+10 8.289274e+09 1.342078e+09
5.020689e+10 5.681011e+10 5.904654e+08
6.119249e+10 -3.621160e+09 2.582145e+08
-7.719561e+10 4.501773e+10 -4.686609e+07
6.690339e+10 3.273500e+10 4.533904e+09
-3.878334e+09 -2.950324e+10 1.641559e+08
3.647627e+09 -3.504241e+10 -8.675394e+08
-2.154197e+10 -1.858766e+10 1.049772e+08
-6.867451e+10 2.666069e+10 -5.180700e+09
-2.608170e+10 3.378692e+10 -7.644317e+08
5.706194e+10 2.022657e+10 2.486763e+08
8.947011e+09 2.986538e+10 2.582565e+08
-1.103876e+10 4.584186e+10 -7.217315e+07
2.276223e+10 2.932102e+10 1.881044e+09
-3.108358e+10 -6.991667e+10 -1.409367e+09
3.107527e+10 -6.974595e+10 1.411052e+09
-1.852760e+08 -4.350039e+10 -2.238669e+09
3.187660e+06 -4.364191e+10 1.933534e+09
-2.710705e+10 -2.706982e+10 2.373795e+09
5.730600e+10 8.261201e+08 -3.406440e+07
5.060978e+10 4.517959e+10 1.702827e+09
-3.690580e+10 -7.190573e+09 8.084035e+08
-2.534196e+10 4.986733e+10 4.181470e+08
6.138767e+09 3.419636e+10 2.769871e+09
-1.523083e+10 -4.179986e+10 -6.061450e+08
1.537913e+10 -4.189793e+10 4.865356e+08
2.158493e+09 -3.067577e+10 2.879883e+09
-2.497101e+09 -3.421826e+10 -1.748339e+09
6.308457e+10 -2.971651e+10 -2.354390e+08
-2.069015e+10 -2.244180e+10 1.081127e+09
3.571560e+10 3.815071e+10 -1.892791e+09
3.749624e+10 -6.144200e+10 -6.540482e+09
-3.739127e+10 -6.146703e+10 6.734300e+09
1.507700e+10 2.875559e+10 -6.389010e+07
-2.253018e+09 4.342237e+10 -2.140527e+08
-2.348913e+10 1.205156e+10 7.052341e+08
-1.356366e+10 2.590425e+10 -6.804698e+08
-1.090364e+10 6.304274e+10 2.922594e+08
-1.648221e+10 3.894849e+10 1.084484e+07
-8.757525e+10 1.151842e+10 1.733811e+09
-2.166552e+10 -2.654823e+10 -3.014660e+09
-3.733803e+10 2.100594e+10 1.425218e+09
1.839488e+09 2.771139e+10 -9.368846e+08
-2.692329e+10 -4.559620e+10 1.680597e+09
2.694633e+10 -4.571139e+10 -1.666605e+09
5.605971e+10 -1.503076e+10 -2.363338e+09
-3.275870e+10 -1.166854e+10 7.682840e+08
3.361556e+10 -1.951011e+10 2.007343e+08
3.536442e+10 4.972054e+09 4.296200e+08
-8.133192e+10 -2.784154e+10 -9.753426e+08
-2.777953e+10 3.941750e+09 2.291112e+08
-2.304941e+10 -3.032858e+10 -1.572209e+09
8.837374e+09 4.318256e+10 8.338645e+08
-6.362019e+10 5.683715e+10 -1.130165e+10
3.097009e+10 -1.937416e+10 -4.571338e+08
3.183046e+09 7.417222e+10 -3.318178e+09
-4.001379e+10 5.593294e+10 -8.431631e+08
-8.476027e+09 2.949785e+10 -9.018169e+08
1.118147e+10 -4.070316e+10 3.606810e+08
-1.259690e+10 -4.076127e+10 -1.575573e+09
6.270732e+10 5.508417e+10 4.473602e+09
3.225673e+10 -2.000299e+10 -1.346217e+09
-1.510445e+10 -2.634415e+10 4.570217e+08
-3.235882e+10 3.158466e+10 -1.907985e+07
-2.576737e+10 2.868773e+10 1.541307e+09
4.989262e+09 3.481405e+10 -3.472733e+09
-2.587399e+10 -3.429274e+10 -1.961112e+09
2.566756e+10 -3.665891e+10 1.128826e+09
-2.074975e+10 2.250713e+10 2.179793e+08
-2.992193e+10 1.099123e+10 -4.339062e+09
-5.775035e+10 -2.678935e+10 2.953269e+09
3.900586e+10 2.477511e+10 2.065372e+09
8.323631e+10 2.306095e+10 -2.900110e+09
-1.613570e+10 -2.890153e+10 4.446860e+09
-2.205792e+10 -3.286062e+10 1.935323e+09
2.158073e+10 -3.179268e+10 -1.997702e+09
-3.353468e+10 3.020399e+09 1.011157e+09
-5.416446e+09 3.495203e+10 -7.818575e+08
3.676317e+10 7.483971e+10 7.268740e+09
-5.621624e+10 -1.421446e+10 7.005056e+08
-6.225951e+10 1.935150e+10 -6.751730e+07
-1.153817e+10 -7.257164e+10 5.222364e+09
1.261710e+10 -8.411480e+10 -3.594988e+09
-1.787363e+10 7.332246e+10 1.348185e+07
-1.320635e+10 -2.973200e+10 -2.079307e+09
-2.649284e+10 -2.033139e+10 3.306868e+09
-2.856240e+10 -3.658526e+10 -1.278002e+09
2.846512e+10 -3.632047e+10 1.201363e+09
2.433602e+10 3.860788e+10 -8.605983e+08
3.916253e+10 5.171129e+10 1.598822e+09
3.983406e+10 -1.454692e+10 -1.893739e+09
3.864530e+09 3.311291e+10 -1.588121e+09
-2.089931e+10 -9.424213e+10 -1.023059e+10
1.822728e+10 -7.866690e+10 8.176749e+08
2.590757e+10 -2.013989e+10 1.192992e+09
-9.725283e+09 -2.786469e+10 -4.822059e+08
-7.711407e+10 8.198266e+09 7.011904e+09
5.426946e+10 -3.840179e+10 -2.512590e+09
-3.301342e+10 -3.693477e+10 2.694879e+09
3.667697e+10 -3.816952e+10 -8.481879e+08
3.286223e+10 2.073522e+10 6.793330e+08
3.988460e+10 1.099195e+10 -1.944243e+09
5.356682e+10 5.292198e+09 2.404606e+06
-6.027895e+10 2.855005e+10 9.104554e+08
-4.184548e+10 2.768101e+10 6.800686e+08
-2.848513e+10 3.542313e+10 8.329254e+08
-1.215356e+10 -3.059420e+10 1.785108e+09
4.181306e+10 1.879890e+10 2.351031e+09
3.468148e+10 -1.567854e+10 -5.316468e+07
-9.313459e+09 -2.636502e+10 7.986606e+08
9.536360e+09 -2.650044e+10 -8.296635e+08
-8.870228e+10 -2.321299e+10 -1.718540e+09
-3.833194e+10 3.117806e+10 -1.702004e+08
1.484352e+10 3.698089e+10 -1.488790e+09
4.927031e+10 1.685940e+09 1.428043e+09
-2.066602e+10 7.910117e+10 2.079213e+09
-2.116592e+10 -2.381797e+10 9.651953e+08
-9.368932e+09 -3.625080e+10 6.844847e+08
2.145433e+10 -2.432816e+10 -1.303181e+09
3.163537e+10 2.676501e+10 -2.544067e+09
-6.997229e+10 -1.588432e+10 -7.116720e+09
4.155784e+10 5.687236e+10 -1.335845e+09
5.220030e+10 -3.439219e+10 3.170062e+08
-6.666986e+10 3.496746e+10 -4.068413e+09
-5.761143e+09 4.048431e+10 -1.108819e+09
-2.409487e+10 4.324486e+10 -2.620201e+09
-4.882071e+10 1.260697e+10 -1.296617e+09
-2.783209e+10 -2.023390e+10 -8.677543e+08
-5.885234e+09 -3.460431e+10 -2.322758e+09
-4.211876e+10 2.662603e+10 -2.645307e+08
4.092957e+10 -4.570682e+09 -1.996968e+08
-2.508309e+10 -2.060350e+10 1.815982e+09
2.927186e+10 -2.326616e+10 1.206181e+09
-3.551782e+10 4.955770e+09 -1.212609e+09
-4.764421e+10 1.130489e+10 1.834081e+09
6.888649e+10 2.337697e+10 5.320517e+09
-3.689155e+10 -1.379924e+10 -1.928055e+09
4.381215e+10 -3.171044e+10 -1.232346e+09
3.133637e+10 2.452382e+10 -7.694487e+06
-3.691190e+09 -3.301802e+10 -4.943849e+08
-6.466039e+10 2.082095e+10 -7.652995e+08
-8.864406e+10 2.312599e+10 7.817916e+08
-2.924111e+10 5.179682e+09 8.281922e+08
5.375345e+10 -2.980381e+09 1.047256e+09
7.889602e+09 -8.062910e+10 1.771879e+09
-2.975838e+09 -5.747938e+10 6.671174e+08
5.359261e+10 -2.189091e+10 -5.446287e+08
4.169309e+10 4.190150e+09 -1.363774e+09
-3.098276e+10 -6.208823e+09 6.688778e+08
-3.492182e+10 1.400928e+10 -3.247487e+09
-3.049657e+09 -3.024564e+10 -4.437446e+08
3.663640e+10 -1.697795e+10 -1.137012e+09
2.344360e+10 7.177900e+10 -3.022404e+07
-4.895792e+10 1.491966e+09 -1.189389e+09
2.365590e+10 -2.051844e+10 7.126072e+08
-6.682342e+10 2.649485e+08 -1.655617e+09
-1.581020e+10 -2.326789e+10 1.043809e+09
1.572801e+10 -2.323360e+10 -1.094672e+09
-2.239600e+10 4.405751e+10 -9.013076e+08
-4.565195e+10 -2.612500e+10 -9.420484e+06
4.028022e+10 -1.207544e+10 8.620113e+08
7.839851e+08 -4.554561e+10 -1.343376e+09
2.388992e+10 1.461032e+10 1.805349e+08
4.344763e+10 -3.911035e+10 1.165379e+09
-5.014241e+10 -4.431008e+10 -5.935806e+08
-1.812894e+10 -3.713778e+10 -4.335433e+08
1.812968e+10 -3.710145e+10 4.742253e+08
2.046039e+10 3.512170e+10 2.792274e+09
-4.289999e+10 -6.490500e+10 2.977263e+09
4.235306e+10 -6.396953e+10 -4.850545e+09
-1.445549e+10 3.869969e+10 3.549851e+09
-3.572619e+10 -8.312088e+10 -2.931043e+09
-1.311279e+09 -3.769015e+10 5.281261e+08
3.581668e+10 -8.256364e+10 2.704476e+09
-7.732789e+08 5.883130e+10 1.025058e+09
4.743022e+10 -3.039607e+10 7.821421e+07
-6.477277e+10 -1.065792e+10 1.605060e+09
1.951694e+10 9.067652e+10 2.290377e+09
1.418487e+10 -7.412437e+10 2.650226e+09
-1.416553e+10 -7.603324e+10 1.344245e+09
1.399133e+10 8.003686e+10 1.747720e+08
1.785615e+10 -5.852995e+10 -5.690183e+08
-1.290965e+10 -5.990747e+10 2.764798e+09
-1.220867e+09 -4.539393e+10 6.075672e+07
1.016803e+10 -4.547889e+10 1.496754e+09
-1.028254e+10 -4.935150e+10 -1.860739e+09
4.402949e+10 3.629806e+10 -2.588132e+09
-2.367002e+10 4.689345e+10 2.923939e+08
4.426492e+10 6.507429e+09 -7.544588e+08
5.975600e+10 2.589106e+10 1.860246e+09
-5.577791e+10 3.651242e+10 5.625352e+08
-2.268779e+10 -3.530027e+10 -2.315024e+09
2.255946e+10 -3.522530e+10 2.499895e+09
-7.158850e+10 -6.425449e+09 -4.222628e+09
6.305646e+09 -6.279827e+10 1.320631e+09
1.274237e+10 3.876277e+10 3.429098e+08
-2.915163e+10 -2.347847e+10 4.489918e+09
8.596825e+10 2.338589e+10 -3.448656e+09
-1.038727e+10 8.728519e+10 -1.141391e+10
3.142395e+10 9.899026e+09 1.022929e+09
-1.228433e+10 2.993950e+10 -1.110934e+07
-4.597724e+10 5.165468e+10 -2.295171e+09
1.885056e+10 3.354686e+10 1.841501e+09
6.720838e+10 2.214842e+09 -8.368971e+08
-3.318584e+10 6.820249e+10 -3.343856e+09
-3.065433e+09 -6.795393e+10 -2.716016e+09
-2.594742e+10 2.169820e+10 -1.120077e+09
-3.522376e+09 3.617381e+10 -1.946458e+09
-3.481430e+10 -8.093195e+10 6.309389e+08
3.486453e+10 -8.100334e+10 -6.148902e+08
6.547666e+10 -3.072512e+10 1.109249e+09
4.104865e+10 8.171377e+10 -2.236451e+09
-9.026332e+09 -3.259727e+10 -1.142232e+09
6.321617e+09 -3.262470e+10 -1.769621e+09
-4.185924e+10 4.927575e+09 -5.309901e+08
-2.296897e+09 5.330450e+10 3.111866e+09
-1.195972e+09 -8.098572e+10 -1.236422e+09
4.041271e+10 -9.029369e+09 -1.491735e+09
7.940606e+10 -3.680449e+10 -7.973432e+09
-7.631699e+09 -4.432953e+10 -9.286749e+08
7.002715e+09 -3.637999e+10 2.033337e+09
6.961771e+10 -3.336473e+10 4.019437e+09
3.425502e+10 5.897166e+10 -2.925026e+08
2.243536e+10 -6.419451e+10 -2.558658e+08
-2.245165e+10 -6.433860e+10 5.870957e+08
-1.402648e+10 4.825461e+10 -2.692770e+09
-4.853275e+10 2.585138e+09 2.065293e+09
-9.644777e+08 -1.127936e+11 1.827842e+09
-7.856892e+09 3.570530e+10 1.760442e+09
3.686892e+10 -1.169691e+10 -9.046940e+08
4.537189e+09 4.035093e+10 -3.023098e+09
-1.990927e+10 -4.616461e+10 -1.932015e+09
2.015320e+10 -4.759630e+10 1.467662e+09
5.242748e+10 5.787301e+10 4.857980e+09
-3.825112e+10 9.389759e+09 1.110680e+09
6.450513e+10 3.063777e+10 -2.263521e+09
-2.779936e+10 2.645309e+10 2.173377e+09
5.370720e+10 3.616462e+10 8.151627e+08
1.275559e+09 -7.130725e+10 -1.348807e+09
5.975644e+10 -1.851365e+10 -6.365404e+07
3.957187e+10 -1.940084e+10 -2.399970e+09
-5.872332e+09 4.816114e+10 -1.169839e+09
7.302832e+10 -1.612323e+10 -3.373952e+09
-2.033007e+10 4.404174e+10 2.992402e+08
-6.877515e+10 4.427758e+10 1.100696e+09
5.962892e+10 -4.738607e+10 4.221632e+09
-5.247416e+10 -4.096967e+10 -8.196927e+08
4.060566e+09 -1.052934e+11 -3.816772e+09
2.370992e+09 -9.638250e+10 1.186893e+10
-1.795842e+09 -6.809500e+10 2.501375e+09
6.183678e+10 -9.564810e+10 -2.873949e+09
-6.162747e+10 -9.536656e+10 2.909467e+09
-2.874011e+10 3.350060e+10 -1.398381e+08
4.586004e+10 -7.514972e+10 -3.095692e+09
-4.581448e+10 -7.508361e+10 3.059308e+09
2.521280e+10 2.339126e+10 -1.646969e+09
-2.993607e+10 4.663217e+10 -1.028091e+09
-4.933222e+09 9.315005e+10 3.665378e+09
5.780540e+10 5.530722e+10 -4.832986e+09
-2.586511e+10 6.424247e+10 -2.570054e+09
-1.666534e+09 -6.003086e+10 1.089953e+09
-7.622836e+10 -2.399480e+10 1.603930e+09
-3.608252e+10 9.553649e+09 -9.156251e+07
-8.826432e+10 -1.347090e+10 7.249979e+09
-2.850184e+10 9.626279e+09 3.485740e+09
9.793120e+10 1.576508e+09 -6.481796e+08
-4.509477e+10 -3.535647e+10 9.398547e+08
-3.803571e+10 3.996099e+10 2.200182e+09
-3.768841e+10 2.000712e+10 1.923847e+09
-5.218996e+10 -7.764820e+08 2.760240e+09
3.852394e+10 -6.589460e+10 -4.431636e+09
2.082050e+08 -3.859320e+10 1.004447e+09
-3.897854e+10 -6.636508e+10 4.437948e+09
-3.576264e+10 6.622549e+07 -1.265746e+09
2.341251e+10 -5.782310e+10 2.974101e+08
-2.339072e+10 -5.830221e+10 -4.231253e+08
3.125724e+10 -7.500895e+10 3.674853e+09
-3.126581e+10 -7.499187e+10 -3.663334e+09
-7.230186e+10 -4.291360e+10 3.243073e+09
6.926734e+09 -3.045550e+10 2.206570e+08
-6.362469e+09 -2.913277e+10 3.584166e+08
7.221976e+10 -1.181986e+10 9.947122e+08
7.285371e+07 -4.454447e+10 2.785118e+08
-6.724254e+10 1.428366e+10 1.374286e+09
-3.534110e+10 -2.490190e+10 -4.506682e+08
2.459125e+10 -4.884887e+10 4.412887e+08
-2.458311e+10 -4.885927e+10 -4.390866e+08
-4.745711e+10 -2.147492e+10 -2.893711e+09
3.079116e+10 6.031281e+10 -5.318615e+07
2.369796e+10 3.366940e+10 9.031241e+08
-2.474200e+09 -3.957769e+10 -3.097433e+09
3.719002e+09 -3.729477e+10 -9.771145e+08
-2.017722e+10 -3.016813e+10 -2.081444e+09
-1.925266e+08 -3.944716e+10 -3.453658e+07
2.026285e+10 -3.010809e+10 2.108728e+09
-2.803428e+10 3.227623e+10 -1.777677e+09
3.859866e+10 -1.158007e+10 -3.669921e+08
-3.116388e+10 -4.380675e+10 3.687621e+08
2.614673e+10 -5.245225e+10 -4.544135e+08
3.962638e+10 -7.970706e+07 9.829375e+08
8.350913e+10 -4.481237e+10 -9.206421e+09
-5.357670e+10 6.033235e+10 2.114399e+09
-3.331813e+10 1.516287e+10 4.582539e+08
3.571441e+10 -1.641361e+10 2.115146e+09
4.871108e+10 -3.074120e+10 -1.076981e+09
-6.079784e+10 1.320974e+09 2.390460e+09
3.909722e+10 4.459980e+10 1.375386e+08
1.816097e+10 7.535671e+10 -1.038541e+10
-1.882547e+10 2.863628e+10 -3.922255e+08
-2.406742e+10 3.796062e+10 -3.161530e+09
7.076158e+10 -7.903299e+09 9.462566e+08
-3.431381e+10 2.021154e+10 -2.845214e+09
-5.796041e+10 6.550331e+10 1.235185e+09
-7.561200e+10 3.192310e+10 1.339641e+09
-1.457339e+09 -4.045396e+10 -9.345107e+07
-5.128312e+10 -2.616905e+10 2.045494e+09
1.528614e+09 -4.290775e+10 3.808775e+08
-1.942663e+10 8.838109e+10 -6.303833e+09
2.922330e+10 1.667451e+10 -5.217646e+09
3.476067e+10 -5.339599e+10 2.042193e+07
-3.519779e+10 -5.318735e+10 -8.626645e+06
4.063342e+10 1.565263e+10 -1.701272e+09
4.601380e+10 -3.686029e+10 -1.062646e+08
4.377257e+10 1.414843e+10 -8.067976e+07
-3.870696e+10 4.594255e+10 -7.537055e+08
-2.995658e+10 5.529899e+08 -3.144313e+09
-3.750864e+10 1.075164e+10 -1.771770e+09
-4.765069e+10 7.205870e+10 9.010503e+08
-8.828009e+10 2.565203e+10 6.146164e+09
7.986959e+09 4.725799e+10 -1.852114e+09
-4.013655e+09 -5.274779e+10 -1.905101e+09
-9.080716e+08 -4.198781e+10 2.893630e+09
-2.924538e+10 8.367033e+10 5.122046e+09
-9.134988e+08 2.592929e+10 -6.464166e+08
6.630854e+10 2.823310e+10 -2.074776e+09
3.426463e+10 -1.371677e+09 -3.274227e+09
2.863406e+10 3.131391e+10 -2.378949e+09
-1.216284e+10 2.893293e+10 7.051925e+07
-1.480924e+10 4.455377e+10 4.392351e+08
1.300590e+10 -3.174419e+10 1.460745e+09
-1.299603e+10 -3.170713e+10 -1.445910e+09
-4.584753e+10 -4.120046e+09 5.476140e+08
6.792099e+10 -4.543654e+10 1.804412e+09
-5.457491e+10 -3.501144e+10 -2.945073e+09
-6.411660e+10 4.922347e+10 6.522093e+07
5.337279e+10 5.297138e+10 -1.987006e+09
4.836826e+10 -1.122717e+10 5.059137e+08
-4.356262e+10 1.640258e+10 -1.156812e+09
1.473680e+10 2.361026e+10 -8.459437e+08
7.520329e+10 4.661794e+10 2.022192e+08
2.896618e+10 1.505638e+10 -4.952318e+09
-2.798663e+10 -3.390157e+10 -1.148861e+09
2.775477e+10 -3.353602e+10 1.172124e+09
2.534897e+10 6.405069e+10 -2.217381e+09
-9.199936e+10 -4.834972e+09 7.084704e+09
6.714373e+10 -5.630154e+09 7.431241e+08
-3.883436e+10 -2.730349e+09 -1.118236e+09
4.372781e+10 1.170349e+10 -6.055018e+08
7.282036e+10 -3.749590e+10 -3.403848e+09
4.698399e+10 1.303854e+10 -4.346389e+08
5.283543e+10 -2.494994e+10 1.624740e+09
-3.696650e+09 -6.212098e+10 1.016635e+09
-3.748811e+09 -6.745425e+10 2.417784e+09
-3.862011e+09 1.005065e+11 -5.109395e+09
-5.219470e+10 6.709093e+09 -1.702540e+09
-8.957997e+09 -2.617257e+10 -6.151859e+08
1.085791e+10 -3.009641e+10 -1.135602e+09
6.714439e+10 -2.954172e+10 8.976473e+07
2.214434e+10 -2.673001e+10 -1.693052e+09
-2.181280e+10 -2.558132e+10 1.598743e+09
1.288639e+10 8.907369e+10 -1.509280e+09
-1.923562e+10 -3.493571e+10 1.907176e+09
1.924037e+10 -3.510959e+10 -1.833351e+09
2.905098e+10 6.904245e+10 1.645847e+09
-9.277931e+10 4.677595e+10 3.258884e+08
-8.623854e+10 -3.408733e+09 -3.989355e+09
2.459140e+10 -2.042726e+10 9.261459e+08
5.931021e+10 4.527600e+10 7.992989e+08
2.252804e+10 2.791373e+10 -1.479123e+09
-6.749716e+10 -2.824587e+10 1.987490e+09
3.877420e+10 -1.114221e+10 -4.722583e+08
-6.361982e+10 6.883605e+10 2.160970e+09
-4.460721e+10 -2.053697e+10 -1.812316e+09
4.192787e+10 7.924232e+10 -1.345278e+09
1.471443e+10 -8.148524e+10 -3.474447e+08
-1.855537e+10 -7.806773e+10 -3.901626e+09
-4.805299e+10 3.614279e+09 -7.047772e+08
4.233696e+10 -1.115369e+10 1.073298e+09