# vtk DataFile Version 2.0
Electric current density generated by TTH
ASCII
DATASET UNSTRUCTURED_GRID
POINTS 2938 double
2.950653e-05 -7.227016e-21 -3.037616e-22
2.867757e-05 6.944958e-06 -3.037616e-22
-2.548825e-05 1.486556e-05 -3.037616e-22
8.070157e-06 2.582945e-05 2.912844e-07
2.645062e-05 -7.970789e-06 -1.061811e-06
1.827397e-05 2.266740e-05 9.033001e-07
1.785072e-05 2.306486e-05 -8.539882e-07
-1.277821e-06 -2.910229e-05 -8.897202e-07
2.077675e-05 2.050430e-05 8.267756e-07
-2.907497e-05 2.012305e-06 8.757163e-07
-2.439336e-05 -1.198226e-05 -5.935543e-07
-1.233948e-05 2.437330e-05 -8.002513e-07
1.776774e-05 -2.124817e-05 1.102297e-06
-2.587177e-05 1.418757e-05 -3.037616e-22
1.640573e-05 2.156786e-05 -4.170290e-07
8.147624e-07 2.709306e-05 -4.360307e-07
-8.775163e-06 2.653287e-05 1.198204e-06
2.234373e-05 1.628067e-05 1.073924e-06
-2.876675e-05 4.643416e-06 8.811170e-07
-6.807388e-08 2.915762e-05 8.623021e-07
2.008027e-05 1.882641e-05 9.945892e-07
1.322918e-05 -2.459792e-05 -1.193644e-06
-1.845741e-05 -1.975128e-05 1.314012e-07
2.727581e-06 -2.897661e-05 9.139127e-07
-2.623726e-05 1.349969e-05 -3.037616e-22
-2.005808e-05 -1.969103e-05 1.230061e-06
-1.208964e-05 2.651626e-05 8.779740e-07
-2.505898e-05 1.514560e-05 -7.139873e-07
2.806821e-05 -7.934173e-06 8.514597e-07
1.776394e-05 -2.304822e-05 9.186982e-07
1.268198e-05 -2.623661e-05 -8.793301e-07
-2.625755e-05 1.265294e-05 -8.730836e-07
5.255027e-06 -2.678206e-05 -7.682634e-07
-2.783524e-05 -2.793384e-06 -1.205510e-06
-1.493310e-05 2.484765e-05 1.007384e-06
-2.658447e-05 1.280240e-05 -3.037616e-22
-1.185770e-05 -2.660505e-05 8.920896e-07
1.938781e-05 -2.172751e-05 8.996771e-07
-2.331271e-05 -1.528758e-05 1.177893e-06
2.402368e-05 1.254106e-05 4.218981e-07
2.229153e-05 -1.642597e-05 1.098046e-06
-2.411924e-05 1.368618e-05 -1.119065e-06
-2.616085e-05 -9.490310e-06 -1.160554e-06
1.867175e-05 -2.023014e-05 9.978487e-07
9.461990e-06 -2.603405e-05 -1.103444e-06
-2.746257e-05 5.193500e-06 -1.199003e-06
-2.691315e-05 1.209620e-05 -3.037616e-22
2.561568e-05 1.172233e-05 -1.236492e-06
9.067715e-07 -2.706554e-05 3.639326e-07
2.321686e-05 -1.524367e-05 1.138268e-06
-1.756305e-05 -2.054820e-05 -1.127669e-07
9.622188e-06 -2.749900e-05 -8.862847e-07
-1.267264e-05 -2.397768e-05 4.746807e-07
-2.835184e-05 6.730813e-06 -8.803803e-07
-4.371056e-06 2.754993e-05 1.183159e-06
1.560979e-05 -2.343209e-05 1.235233e-06
-1.256323e-05 2.476915e-05 1.137906e-06
-2.722307e-05 1.138156e-05 -3.037616e-22
1.383474e-05 -2.324148e-05 -2.291504e-07
-2.588496e-05 -1.334160e-05 8.987407e-07
2.718370e-05 5.750737e-06 -1.143126e-06
2.587930e-05 -1.324156e-05 9.443973e-07
2.245213e-05 -1.843998e-05 -9.580087e-07
1.629196e-05 2.404728e-05 9.640618e-07
1.126312e-05 2.467545e-05 4.839463e-07
2.707891e-05 7.306739e-06 -1.220722e-06
2.022809e-05 -1.792440e-05 4.686136e-08
2.557587e-05 -8.818276e-06 -2.586797e-07
-2.751402e-05 1.065899e-05 -3.037616e-22
-2.253659e-05 1.850940e-05 8.565176e-07
-2.876474e-05 4.918552e-06 -8.362023e-07
-1.575517e-07 2.916275e-05 -8.566034e-07
3.220890e-06 -2.714452e-05 -8.189060e-07
2.703686e-05 1.074061e-05 -9.252766e-07
-1.561529e-05 -2.306448e-05 1.169412e-06
-2.678197e-05 -3.746603e-06 -2.023973e-07
-1.953288e-05 -2.170298e-05 -8.180192e-07
-1.045420e-05 2.724263e-05 8.390350e-07
1.363914e-05 2.428765e-05 1.170097e-06
-2.778580e-05 9.928991e-06 -3.037616e-22
-2.248678e-05 1.662843e-05 -1.203567e-06
2.609146e-05 8.589435e-06 9.498763e-07
2.682155e-05 1.140226e-05 8.756466e-07
-2.696591e-05 1.874229e-06 1.094444e-07
-1.629166e-05 2.415691e-05 8.830296e-07
-2.707652e-05 7.753082e-06 -1.236027e-06
-2.645157e-05 -5.570710e-06 -1.184569e-07
-1.896356e-05 2.217778e-05 8.386651e-07
-2.888801e-05 -3.934529e-06 -8.653660e-07
-1.151661e-05 2.567317e-05 1.233537e-06
-2.803821e-05 9.192073e-06 -3.037616e-22
2.657133e-05 -9.628240e-06 -1.240193e-06
-5.261653e-06 2.875589e-05 -7.765636e-07
-5.649903e-06 2.711772e-05 -1.103366e-06
8.973549e-06 -2.776676e-05 8.377961e-07
-2.877126e-06 2.710242e-05 -7.174311e-07
2.320350e-05 1.772706e-05 -8.160956e-07
1.695985e-05 -2.113260e-05 4.119653e-07
6.392156e-06 -2.629011e-05 2.707444e-07
2.116540e-05 1.717478e-05 7.207438e-07
-1.668326e-05 2.408339e-05 -6.891104e-07
-2.827108e-05 8.448749e-06 -3.037616e-22
2.140899e-05 -1.807676e-05 1.215469e-06
-1.044563e-05 -2.725172e-05 8.330921e-07
-6.458914e-06 -2.632579e-05 4.393008e-07
-2.047725e-05 1.763881e-05 -3.931317e-08
2.760544e-05 9.455526e-06 8.387314e-07
1.302124e-05 2.610933e-05 8.427746e-07
-2.606794e-06 2.896515e-05 -9.340401e-07
1.093608e-05 -2.702211e-05 -8.689705e-07
-2.649508e-05 6.287559e-06 6.826545e-07
-2.654091e-05 1.212893e-05 8.375450e-07
2.848425e-05 7.699536e-06 -3.037616e-22
-2.848425e-05 7.699536e-06 -3.037616e-22
-2.527152e-05 1.007555e-05 6.432673e-07
2.749609e-05 9.686919e-06 -8.675843e-07
1.481220e-05 2.392291e-05 1.233469e-06
1.996159e-05 1.885906e-05 -9.435056e-07
2.332785e-05 1.373765e-05 3.353889e-07
2.846873e-05 6.400289e-06 -8.393820e-07
-1.894654e-05 -2.065164e-05 1.216710e-06
-7.815673e-06 2.810549e-05 8.473116e-07
9.478986e-07 -2.742786e-05 -9.285726e-07
1.028566e-05 -2.729037e-05 8.553733e-07
-2.867757e-05 6.944958e-06 -3.037616e-22
-2.500138e-05 1.247519e-05 1.196768e-06
2.802858e-05 -2.423422e-06 -1.233030e-06
2.802858e-05 2.423422e-06 -1.233030e-06
4.320899e-06 -2.781786e-05 1.234868e-06
1.423323e-05 2.399905e-05 -1.185576e-06
-2.417934e-07 -2.778361e-05 1.142842e-06
-1.845139e-05 -2.266718e-05 -7.835767e-07
-1.890504e-05 -2.075203e-05 -1.224910e-06
-2.243792e-05 -1.880244e-05 -7.223939e-07
2.341103e-05 -1.394282e-05 7.085455e-07
-2.885090e-05 6.185540e-06 -3.037616e-22
-1.374223e-05 2.573781e-05 -8.421424e-07
2.600155e-05 1.049638e-05 -1.219416e-06
-2.781556e-05 -8.864609e-06 -8.231803e-07
-2.407388e-05 1.649030e-05 8.384578e-07
2.687143e-05 -1.133521e-05 -8.553497e-07
-2.284662e-05 -1.595948e-05 -1.174783e-06
-2.693825e-05 -1.122282e-05 -8.358541e-07
-4.322160e-06 2.770246e-05 -1.218928e-06
2.794274e-05 -8.353691e-06 -8.549884e-07
1.464340e-05 2.271547e-05 -2.121656e-08
-2.900413e-05 5.421811e-06 -3.037616e-22
1.565070e-05 2.460953e-05 -8.551243e-07
1.641741e-05 2.411339e-05 -8.476138e-07
2.605548e-05 1.313801e-05 -8.382096e-07
-1.295649e-06 2.797294e-05 -1.211907e-06
-2.759303e-05 9.657298e-06 -7.754506e-07
4.900316e-06 2.677525e-05 -6.657657e-07
2.090675e-05 -2.028230e-05 -8.915882e-07
-2.908414e-05 2.251850e-06 -8.481386e-07
-2.516860e-05 1.010785e-05 -4.791847e-07
2.474104e-05 1.090294e-05 -1.630008e-07
-2.913714e-05 4.654304e-06 -3.037616e-22
-2.721873e-05 1.052901e-05 8.340027e-07
2.396996e-05 -1.658866e-05 8.698336e-07
2.388384e-05 1.671772e-05 8.667363e-07
5.743808e-06 -2.724989e-05 1.167753e-06
8.559701e-06 2.644479e-05 -1.147391e-06
4.419067e-06 -2.671254e-05 3.467627e-07
-1.946786e-05 2.030782e-05 -1.232896e-06
8.226787e-06 2.801727e-05 8.161592e-07
1.018935e-05 -2.508395e-05 -3.428948e-07
9.712039e-06 2.753823e-05 8.155728e-07
-2.924985e-05 3.883552e-06 -3.037616e-22
1.195897e-05 -2.539921e-05 1.225162e-06
2.175324e-05 -1.625858e-05 -5.560681e-07
-1.470162e-05 -2.290400e-05 6.600607e-07
7.362822e-06 -2.680211e-05 1.147163e-06
-1.053846e-06 2.917859e-05 -8.190250e-07
2.364115e-05 1.519952e-05 -1.229752e-06
1.714757e-05 2.150790e-05 -9.804816e-07
-6.757346e-06 -2.642057e-05 -7.398996e-07
-2.618188e-05 -6.718788e-06 1.006557e-07
-2.238694e-05 1.883338e-05 -7.483904e-07
-2.934217e-05 3.110095e-06 -3.037616e-22
-6.163015e-06 2.750230e-05 1.237490e-06
-2.792205e-05 1.185407e-06 -1.198438e-06
-2.542406e-05 1.152128e-05 -1.188736e-06
1.547493e-05 -2.481766e-05 7.591404e-07
8.657886e-06 -2.634235e-05 1.117589e-06
1.304821e-05 -2.608605e-05 8.521479e-07
2.828253e-05 2.124028e-06 1.236492e-06
2.828253e-05 -2.124028e-06 1.236492e-06
2.767178e-05 -9.360255e-06 8.023566e-07
1.143432e-06 -2.912710e-05 -8.706607e-07
-2.941404e-05 2.334470e-06 -3.037616e-22
-2.718866e-05 -8.312971e-06 -1.229203e-06
-2.458478e-05 -1.256254e-05 1.051354e-06
-1.588795e-05 2.215908e-05 7.335217e-07
5.726892e-06 2.685581e-05 -9.419874e-07
2.519733e-05 1.470541e-05 -8.445333e-07
6.103979e-06 2.640792e-05 4.330259e-07
2.818300e-05 -6.859437e-07 -1.237932e-06
2.819751e-05 8.225688e-07 -1.238898e-06
-2.335273e-05 -1.759727e-05 -7.673739e-07
-2.680418e-05 -1.162822e-05 7.954932e-07
-2.946541e-05 1.557218e-06 -3.037616e-22
2.665827e-05 -9.121208e-06 1.236872e-06
1.705937e-05 -2.124986e-05 -7.111798e-07
-2.563281e-05 -1.399013e-05 8.138580e-07
-1.374070e-05 2.338417e-05 4.791542e-07
3.916734e-06 -2.871941e-05 -1.010564e-06
-1.121640e-05 -2.468736e-05 4.633104e-07
-2.432859e-05 1.358419e-05 1.173178e-06
8.701671e-06 2.778744e-05 -9.014828e-07
-2.495595e-06 -2.716665e-05 -7.531895e-07
1.934732e-05 1.933591e-05 8.391970e-07
-2.949625e-05 7.788802e-07 -3.037616e-22
-2.583262e-05 1.373672e-05 7.449753e-07
7.441059e-06 2.670681e-05 -1.115360e-06
-2.895620e-05 -3.631269e-06 8.353559e-07
2.908679e-05 2.316070e-06 8.398769e-07
2.908679e-05 -2.316070e-06 8.398769e-07
1.548069e-05 2.258820e-05 8.714569e-07
-2.905832e-05 2.876024e-06 8.159627e-07
2.492394e-06 -2.721089e-05 -8.072213e-07
-1.766002e-05 -2.236615e-05 -1.218420e-06
2.907452e-05 3.398950e-06 -7.250374e-07
2.827108e-05 8.448749e-06 -3.037616e-22
-2.950653e-05 2.263736e-19 -3.037616e-22
2.904354e-05 -3.465864e-06 -7.558270e-07
-1.909010e-05 -2.213268e-05 7.828907e-07
1.147174e-05 -2.684568e-05 8.230929e-07
-2.168317e-05 -1.689225e-05 9.643516e-07
-8.396479e-06 2.801545e-05 -7.596625e-07
8.029262e-06 -2.805933e-05 8.325670e-07
2.139080e-05 1.785677e-05 1.173301e-06
4.965320e-06 2.763150e-05 1.225211e-06
9.219680e-06 2.660603e-05 1.235477e-06
1.963079e-05 2.019262e-05 -1.235822e-06
-2.949625e-05 -7.788802e-07 -3.037616e-22
1.005232e-05 -2.584025e-05 1.116625e-06
-2.566139e-05 8.744263e-06 -4.491348e-07
-2.322017e-05 -1.618492e-05 1.239623e-06
1.481934e-05 -2.273469e-05 5.150631e-07
6.332551e-06 2.632542e-05 -3.493712e-07
4.919725e-08 2.817184e-05 1.236599e-06
5.007751e-06 -2.747698e-05 -1.193610e-06
-1.984906e-05 -1.851276e-05 -5.241891e-07
[...]
POINT_DATA 2938
VECTORS 10.000GHz_fone_imag double
7.491543e-05 2.134265e-06 1.746452e-02
1.230382e-04 1.124071e-04 1.745329e-02
1.570191e-05 5.180056e-04 1.740038e-02
-1.298386e-03 -4.853685e-03 -2.397403e-02
1.786532e-02 -5.805882e-03 -1.228245e-02
-8.641177e-03 -1.076773e-02 1.262597e-02
8.225308e-03 1.002328e-02 1.313476e-02
-5.820047e-04 -1.349538e-02 1.254775e-02
-8.345977e-03 -8.376717e-03 1.381017e-02
1.310769e-02 -5.933521e-04 1.273239e-02
-1.030163e-02 -4.790002e-03 -2.080788e-02
-6.533678e-03 1.280393e-02 -1.780323e-02
-1.271458e-02 1.453315e-02 -1.035972e-02
-2.253801e-04 -2.120597e-04 1.764162e-02
4.462878e-03 5.683378e-03 -2.317439e-02
1.693476e-04 7.837097e-03 -2.298519e-02
6.562661e-03 -1.968984e-02 -6.349942e-03
-1.554619e-02 -1.125655e-02 -1.166521e-02
1.310616e-02 -2.184950e-03 1.283579e-02
-2.204458e-04 -1.246559e-02 1.326397e-02
-1.320197e-02 -1.226610e-02 -1.447974e-02
9.896806e-03 -1.803873e-02 -6.723621e-03
2.013620e-03 1.913820e-03 -2.417502e-02
-1.272222e-03 1.405814e-02 1.188144e-02
2.400211e-04 3.275005e-05 1.767281e-02
1.470632e-02 1.479863e-02 -3.632290e-03
5.563265e-03 -1.223595e-02 1.266800e-02
-9.168264e-03 5.675455e-03 1.457943e-02
-1.246176e-02 3.581674e-03 1.302291e-02
-8.454607e-03 1.150572e-02 1.163900e-02
6.062045e-03 -1.219304e-02 1.221126e-02
-1.180326e-02 5.772131e-03 1.295383e-02
2.724543e-03 -1.420579e-02 -1.866066e-02
-2.102931e-02 -2.152529e-03 -5.924115e-03
8.244277e-03 -1.354533e-02 1.011117e-02
-4.568669e-04 2.907009e-04 1.757457e-02
5.546211e-03 1.262440e-02 1.194847e-02
-8.361470e-03 9.890136e-03 1.281597e-02
1.701639e-02 1.123485e-02 -7.396831e-03
-7.508199e-03 -3.354268e-03 -2.250378e-02
-1.533602e-02 1.166329e-02 -1.071499e-02
-1.707869e-02 9.866477e-03 -9.845736e-03
-1.921967e-02 -6.895572e-03 -8.768816e-03
-1.200299e-02 1.355699e-02 -1.389968e-02
6.703945e-03 -1.837723e-02 -1.081037e-02
-2.032067e-02 3.953048e-03 -5.818567e-03
-7.183955e-05 -1.476404e-05 1.751164e-02
1.880204e-02 8.722969e-03 -2.518793e-03
4.357230e-05 6.009436e-03 -2.332154e-02
-1.665226e-02 1.111614e-02 -9.382960e-03
-1.234508e-03 -1.586186e-03 -2.455720e-02
4.635496e-03 -1.287267e-02 1.221907e-02
3.704766e-03 7.427766e-03 -2.255876e-02
-1.269911e-02 3.155998e-03 1.267291e-02
2.932866e-03 -2.027313e-02 -7.884741e-03
-1.149301e-02 1.731544e-02 -2.867772e-03
9.027626e-03 -1.791892e-02 -9.425484e-03
-1.332626e-04 -1.964053e-04 1.744685e-02
1.855406e-03 -4.198490e-03 -2.373239e-02
1.269987e-02 6.344741e-03 1.189146e-02
1.919841e-02 4.452632e-03 -9.377353e-03
-1.258307e-02 6.140025e-03 1.210757e-02
1.167921e-02 -9.522703e-03 1.127514e-02
-8.237447e-03 -1.229239e-02 1.168818e-02
-3.961744e-03 -7.703210e-03 -2.225403e-02
2.011857e-02 5.512311e-03 -3.704286e-03
-1.049189e-03 6.347677e-04 -2.434513e-02
4.978097e-03 -1.266674e-03 -2.358705e-02
4.674318e-04 1.958047e-05 1.744203e-02
9.806510e-03 -8.044807e-03 1.326457e-02
-1.241738e-02 2.265694e-03 1.340676e-02
2.843615e-05 1.365226e-02 1.242662e-02
1.449487e-03 -1.459704e-02 -1.801813e-02
1.297554e-02 5.097638e-03 1.197582e-02
1.159173e-02 1.703867e-02 -7.591991e-03
-4.430918e-03 -5.091436e-04 -2.434144e-02
-7.898675e-03 -9.083671e-03 1.330917e-02
4.152220e-03 -1.155716e-02 1.346202e-02
-1.008307e-02 -1.787893e-02 -7.627184e-03
-1.329184e-04 6.172235e-05 1.746856e-02
-1.647584e-02 1.235569e-02 -5.053656e-03
-1.647027e-02 -5.637669e-03 -1.516850e-02
-1.264314e-02 -5.221534e-03 1.249483e-02
2.139718e-03 6.288625e-05 -2.420548e-02
7.642057e-03 -1.127675e-02 1.225800e-02
-2.000592e-02 5.848928e-03 -2.634503e-03
-2.458301e-03 -1.107244e-04 -2.423002e-02
8.213499e-03 -9.178848e-03 1.323197e-02
-1.296204e-02 -1.814638e-03 1.295269e-02
8.720714e-03 -1.916641e-02 -3.062420e-03
5.702640e-05 -1.636266e-04 1.741538e-02
1.953592e-02 -7.136564e-03 -9.857894e-04
-2.206948e-03 1.164411e-02 1.392112e-02
-3.588927e-03 1.893866e-02 -1.089696e-02
-4.101265e-03 1.198878e-02 1.320074e-02
-1.808424e-03 1.289629e-02 -1.971295e-02
9.812242e-03 7.315894e-03 1.345428e-02
-4.639450e-03 6.599019e-03 -2.267170e-02
-1.764151e-03 5.274634e-03 -2.352208e-02
-1.043369e-02 -8.704528e-03 -1.957553e-02
-5.833528e-03 8.335277e-03 1.474235e-02
-2.574025e-05 -3.188427e-04 1.742497e-02
-1.599677e-02 1.307954e-02 -4.931959e-03
4.475765e-03 1.116510e-02 1.386660e-02
2.109288e-03 7.776903e-03 -2.263684e-02
-1.869266e-04 3.776399e-05 -2.457901e-02
-1.156724e-02 -3.954731e-03 1.352099e-02
-5.556552e-03 -1.106122e-02 1.305759e-02
-1.227191e-03 1.427985e-02 1.144459e-02
4.655849e-03 -1.248998e-02 1.275076e-02
1.224268e-02 -2.583292e-03 -1.995706e-02
1.103383e-02 -5.247057e-03 1.349707e-02
-4.770290e-05 1.896677e-05 1.749885e-02
3.574483e-04 -1.751589e-04 1.745386e-02
1.087850e-02 -4.443576e-03 -2.020865e-02
1.252067e-02 4.462547e-03 1.299527e-02
-1.101862e-02 -1.798743e-02 -2.834313e-03
1.263839e-02 1.178788e-02 -1.515774e-02
-5.496678e-03 -3.178756e-03 -2.338977e-02
1.256391e-02 2.921528e-03 1.327512e-02
1.382294e-02 1.544568e-02 -5.075056e-03
2.585142e-03 -1.166750e-02 1.269931e-02
6.692764e-04 -1.632846e-02 -1.615327e-02
-4.496400e-03 1.197504e-02 1.303843e-02
6.084018e-04 -7.067699e-05 1.743119e-02
1.827531e-02 -9.304168e-03 -7.207700e-03
2.084673e-02 -1.896886e-03 -2.890337e-03
2.081088e-02 1.920987e-03 -2.936429e-03
-3.262818e-03 2.050529e-02 -3.066986e-03
1.033430e-02 1.771715e-02 -7.017515e-03
3.214753e-04 1.984904e-02 -9.413233e-03
-7.509077e-03 -9.190848e-03 1.387213e-02
-1.391095e-02 -1.556386e-02 -4.433399e-03
-8.006472e-03 -7.144240e-03 1.441979e-02
-1.157635e-02 7.067193e-03 -1.935719e-02
2.157270e-05 3.035939e-04 1.740893e-02
-6.015070e-03 1.143551e-02 1.305501e-02
1.935424e-02 7.689310e-03 -4.863574e-03
-1.199049e-02 -3.921060e-03 1.327065e-02
1.031632e-02 -7.170078e-03 1.338525e-02
1.164037e-02 -5.030988e-03 1.306064e-02
-1.627085e-02 -1.175926e-02 -8.753966e-03
-1.128022e-02 -4.796456e-03 1.341775e-02
-3.232545e-03 2.032237e-02 -5.164208e-03
1.242842e-02 -3.683308e-03 1.322461e-02
9.796072e-05 1.084638e-04 -2.440155e-02
-1.021579e-04 3.648520e-04 1.742587e-02
6.734439e-03 1.116494e-02 1.290401e-02
7.681004e-03 1.072673e-02 1.261118e-02
1.158801e-02 5.869242e-03 1.326411e-02
-9.464118e-04 2.068325e-02 -5.516771e-03
-1.095859e-02 3.668033e-03 1.400963e-02
2.983576e-03 1.235706e-02 -1.976818e-02
9.941959e-03 -9.514167e-03 1.252532e-02
-1.325298e-02 8.720622e-04 1.264425e-02
-8.699008e-03 3.475338e-03 -2.212070e-02
2.967322e-03 1.714334e-03 -2.365529e-02
-8.959030e-05 -2.462209e-04 1.754184e-02
1.159660e-02 -4.316221e-03 1.330645e-02
-1.096465e-02 7.447688e-03 1.295011e-02
-1.016881e-02 -7.341196e-03 1.338454e-02
-3.848140e-03 1.989708e-02 -8.116860e-03
6.009425e-03 1.914824e-02 -9.639190e-03
-1.262173e-03 6.307965e-03 -2.328650e-02
-1.403240e-02 1.521142e-02 -2.863616e-03
-3.493936e-03 -1.188423e-02 1.353830e-02
2.446830e-03 -5.489276e-03 -2.344706e-02
-3.943654e-03 -1.133890e-02 1.375737e-02
1.181323e-04 1.193251e-06 1.746442e-02
-9.026166e-03 1.882861e-02 -4.015741e-03
8.231307e-03 -5.989825e-03 -2.204068e-02
6.934455e-03 1.064894e-02 -2.011332e-02
-5.294408e-03 1.930886e-02 -8.898401e-03
-7.165849e-04 1.252739e-02 1.354560e-02
1.743642e-02 1.096220e-02 -3.533577e-03
1.148056e-02 1.397906e-02 -1.420077e-02
-3.347623e-03 -1.387848e-02 -1.857348e-02
2.077408e-03 6.749060e-05 -2.423509e-02
-8.187079e-03 7.420876e-03 1.399979e-02
8.563715e-05 1.303631e-04 1.763977e-02
4.980061e-03 -2.041035e-02 -2.700598e-03
-2.084232e-02 8.285284e-04 -5.849486e-03
-1.873238e-02 8.612085e-03 -6.994598e-03
-5.946375e-03 9.802907e-03 1.414593e-02
-6.110692e-03 1.859423e-02 -1.060161e-02
-5.834622e-03 1.182397e-02 1.265427e-02
-2.036018e-02 -2.161277e-03 8.480649e-04
-2.034149e-02 2.181689e-03 8.955857e-04
-1.087061e-02 3.650532e-03 1.384028e-02
3.552765e-04 -1.336954e-02 1.281047e-02
-4.968504e-04 -1.427496e-04 1.769902e-02
-1.915122e-02 -5.637482e-03 1.961953e-03
1.668246e-02 8.503920e-03 -1.252082e-02
7.773929e-03 -1.112588e-02 -1.908582e-02
3.436367e-03 1.666520e-02 -1.499004e-02
1.125051e-02 6.225297e-03 1.297819e-02
-1.933710e-03 -7.989928e-03 -2.270712e-02
2.069127e-02 -2.990070e-04 -2.255788e-03
2.064113e-02 4.781576e-04 -2.070259e-03
-9.133046e-03 -6.938119e-03 1.416773e-02
1.075128e-02 4.828328e-03 1.376920e-02
5.137551e-04 -2.302034e-05 1.749331e-02
-1.955399e-02 6.728649e-03 -2.615249e-03
8.189090e-03 -1.092269e-02 -1.924078e-02
1.055558e-02 5.884801e-03 1.371347e-02
4.792501e-03 -7.574802e-03 -2.230868e-02
2.200994e-03 -1.546870e-02 1.028115e-02
3.933111e-03 7.707651e-03 -2.247855e-02
1.793673e-02 -1.009878e-02 -8.308418e-03
3.777385e-03 1.296127e-02 1.277362e-02
-1.193298e-03 -1.384498e-02 -1.875114e-02
-1.055905e-02 -1.075443e-02 -1.772620e-02
6.428117e-04 -4.603621e-06 1.733652e-02
9.956471e-03 -5.938103e-03 1.423607e-02
5.297797e-03 1.892483e-02 -1.044419e-02
1.252005e-02 1.950464e-03 1.326868e-02
-1.284129e-02 -1.217267e-03 1.317610e-02
-1.278993e-02 1.237076e-03 1.317481e-02
-8.664254e-03 -1.275323e-02 -1.715299e-02
1.253093e-02 -1.093052e-03 1.339021e-02
1.305959e-03 -1.496899e-02 -1.788305e-02
-1.233258e-02 -1.562631e-02 3.036453e-03
1.103457e-02 1.552597e-03 1.414412e-02
-1.298003e-04 1.883118e-04 1.735796e-02
2.733132e-04 2.728682e-04 1.734129e-02
1.137651e-02 -1.153862e-03 1.405377e-02
7.824530e-03 8.697000e-03 1.398823e-02
-4.973151e-03 1.127480e-02 1.330096e-02
1.404033e-02 1.067253e-02 -1.445657e-02
-3.212732e-03 1.101573e-02 1.417637e-02
-3.115094e-03 1.211946e-02 1.321738e-02
-1.526718e-02 -1.298828e-02 -8.325519e-03
-3.684495e-03 -2.040729e-02 -3.900903e-03
-6.510625e-03 -1.923871e-02 -2.656031e-03
1.461963e-02 1.492157e-02 -2.634272e-03
1.581118e-05 5.068724e-05 1.723054e-02
-7.054398e-03 1.849846e-02 -1.082524e-02
-7.711843e-03 2.533644e-03 -2.265498e-02
1.664334e-02 1.184396e-02 -4.355319e-04
-5.481377e-03 7.977024e-03 -2.193817e-02
1.452818e-03 6.406638e-03 -2.335138e-02
-2.479809e-05 -2.099892e-02 -2.507726e-03
3.420625e-03 -2.041181e-02 -6.312737e-03
-6.970044e-03 -6.789239e-03 -2.200178e-02
1.412404e-02 -1.510711e-02 -4.013527e-03
1.340034e-02 -1.581392e-02 -6.357801e-03
-3.732955e-04 3.986114e-04 1.733201e-02
-2.007534e-02 -4.516691e-03 -7.746191e-03
4.457822e-03 1.067030e-02 1.438832e-02
2.031879e-02 -5.004712e-03 -9.876953e-04
-1.818567e-02 -1.091391e-02 -3.594446e-03
-9.007574e-03 1.285871e-02 -1.716880e-02
1.119124e-02 1.049164e-03 1.419897e-02
1.117301e-02 -1.074565e-03 1.418450e-02
-8.360712e-03 1.902694e-02 -3.102195e-03
7.229872e-03 -2.394384e-03 -2.283397e-02
-9.263709e-03 6.804749e-03 1.388556e-02
-6.006955e-05 -5.583879e-04 1.734753e-02
3.945911e-03 2.928133e-03 -2.384017e-02
-8.701106e-03 5.622180e-03 -2.169581e-02
8.627969e-03 1.866668e-02 1.044999e-03
-5.899768e-04 1.960265e-02 -1.064288e-02
8.302442e-03 3.466178e-03 -2.235507e-02
1.179629e-02 -4.181744e-04 1.355267e-02
-3.500976e-03 4.817019e-03 -2.363301e-02
6.979371e-03 -1.939515e-02 -5.001223e-03
-7.205913e-03 -9.444975e-03 -2.070740e-02
-2.388002e-03 -9.253016e-04 -2.432944e-02
4.517895e-04 -4.079890e-05 1.746840e-02
9.548750e-03 1.280653e-02 -1.704169e-02
-6.581700e-04 4.807071e-03 -2.382028e-02
-1.926685e-02 1.969549e-03 -1.127622e-02
-3.524178e-03 -2.076128e-03 -2.395838e-02
2.669879e-03 2.041582e-02 -7.191955e-03
-1.986704e-02 6.589440e-03 -2.174701e-03
-1.186814e-02 -1.686651e-02 -6.597818e-03
8.439984e-04 -2.077948e-02 -6.021256e-03
-8.973183e-03 1.877408e-02 -4.548407e-03
7.373473e-03 -1.929249e-02 -4.712056e-05
-7.257117e-05 4.720642e-04 1.741890e-02
3.367701e-04 -3.989926e-04 -2.415212e-02
-1.100816e-02 -4.202005e-03 1.362461e-02
-2.573052e-03 2.313137e-04 -2.410981e-02
-8.578128e-03 8.514395e-03 1.361906e-02
2.491733e-03 -2.077567e-02 -2.673826e-03
1.301111e-02 -1.505348e-02 3.051811e-03
1.147602e-02 -8.379598e-03 -1.872012e-02
9.638429e-03 -1.016991e-02 -1.895959e-02
-6.382748e-03 -7.353181e-03 -2.193161e-02
1.009010e-02 6.223172e-03 1.368923e-02
-7.478849e-04 4.015857e-04 1.695502e-02
-1.764421e-02 1.060498e-02 -2.946124e-03
-6.477418e-03 7.034716e-03 -2.187662e-02
1.514250e-02 1.289425e-02 -1.012064e-02
-8.793966e-03 7.833781e-03 1.389767e-02
-1.935842e-02 7.410974e-03 -5.985124e-04
-3.668448e-03 3.199444e-03 -2.372862e-02
7.703711e-03 1.954567e-02 -4.089020e-03
-6.285952e-03 1.031394e-02 1.373687e-02
9.344340e-03 -1.006415e-03 -2.218145e-02
9.377946e-03 1.022533e-03 -2.213217e-02
-6.512237e-04 -5.810030e-04 1.708759e-02
1.031580e-03 2.059279e-02 5.956790e-04
-6.048844e-03 1.047556e-02 1.373637e-02
-1.021096e-02 -6.430903e-03 1.381026e-02
-1.041720e-02 -4.934958e-03 1.399614e-02
2.282918e-03 -9.692468e-03 -2.189846e-02
5.494329e-03 -2.084550e-02 -2.320584e-03
-1.840606e-02 -9.806418e-03 -5.672938e-03
-2.779656e-03 8.464250e-03 -2.230001e-02
2.045227e-02 -3.803040e-03 -1.509696e-04
7.232349e-03 8.038199e-03 1.436002e-02
-1.500718e-04 -5.649164e-04 1.743639e-02
7.803272e-03 4.534481e-03 -2.207287e-02
-1.587503e-02 -5.845591e-04 1.016160e-02
-1.583343e-02 5.330016e-04 1.019292e-02
7.234869e-03 -8.063146e-03 1.449102e-02
-4.760322e-03 5.586594e-03 -2.342236e-02
3.398834e-03 6.668715e-03 -2.291794e-02
2.048512e-02 -2.844331e-03 -6.737776e-03
2.052921e-02 2.814747e-03 -6.599117e-03
8.037531e-03 3.186778e-03 -2.235587e-02
1.812800e-02 -1.031486e-02 -5.085318e-03
4.874317e-04 3.991018e-04 1.740327e-02
4.930835e-03 -9.261685e-03 1.458010e-02
8.630910e-04 -1.110639e-02 -2.074833e-02
2.039721e-03 4.844677e-04 -2.374287e-02
3.233708e-03 8.617408e-03 -2.206329e-02
5.635504e-03 1.992125e-02 -5.564738e-03
3.928755e-03 -4.910029e-03 -2.350134e-02
7.968283e-03 -9.698365e-03 1.313564e-02
9.037618e-03 6.232199e-03 1.451319e-02
-1.177650e-02 -3.093223e-03 1.359053e-02
9.337310e-03 -6.680421e-03 1.391825e-02
-1.959316e-04 2.033011e-04 1.741167e-02
6.730843e-05 6.930453e-05 1.739834e-02
3.982286e-03 2.026447e-02 -6.240245e-03
2.090084e-02 -1.193742e-03 -2.447845e-03
1.501372e-03 1.186063e-02 1.346065e-02
6.164453e-04 -1.221452e-02 1.341329e-02
2.038466e-03 2.062429e-02 -2.386892e-03
3.180837e-03 1.176715e-02 1.361830e-02
-1.226485e-02 1.685041e-02 -4.076823e-03
-2.089990e-03 1.141750e-02 1.426528e-02
1.565706e-03 3.203996e-03 -2.407942e-02
-5.841909e-04 -4.393042e-03 -2.433659e-02
2.524693e-05 2.485991e-04 1.740163e-02
2.039816e-02 2.274063e-03 -6.894499e-03
1.101760e-02 2.459822e-03 -2.059676e-02
9.330324e-03 1.840370e-02 -5.326856e-03
-3.727823e-03 -1.025649e-02 1.437903e-02
9.821746e-03 8.676191e-03 1.290624e-02
-5.663228e-04 1.137025e-02 1.409378e-02
-8.440426e-03 1.867848e-02 -6.154054e-03
1.144121e-02 1.726181e-03 1.374883e-02
1.202309e-02 1.702866e-02 -4.083146e-03
4.583183e-03 1.191077e-02 1.325291e-02
-6.656866e-04 -1.223564e-04 1.746013e-02
1.005141e-02 7.190581e-03 1.336847e-02
-1.510937e-02 1.457683e-02 -4.804608e-03
-1.589825e-02 1.351611e-02 -4.327760e-03
-1.299307e-02 -1.567161e-02 1.335504e-03
-1.377259e-02 1.540810e-02 -4.455965e-03
-8.930439e-04 -1.116920e-02 1.456516e-02
1.249544e-02 1.646134e-02 1.073173e-03
-1.494118e-02 -8.952101e-03 -1.549486e-02
-1.483654e-02 -5.476486e-04 -1.766601e-02
1.922022e-03 6.556971e-03 -2.294331e-02
-3.642279e-04 -2.541417e-04 1.736927e-02
-3.069995e-03 1.125880e-02 1.405924e-02
-7.503057e-03 -8.066100e-03 1.436344e-02
7.635659e-03 -1.143376e-03 -2.288947e-02
1.490256e-02 -1.709644e-03 -1.779326e-02
1.406464e-03 -1.120270e-02 1.424390e-02
1.418481e-04 1.128343e-02 1.424886e-02
-5.462206e-03 2.028008e-02 -1.755142e-03
-5.244289e-03 1.921475e-02 2.972447e-03
1.853696e-03 -2.414449e-03 -2.433705e-02
3.090211e-03 -1.216328e-02 1.340256e-02
-7.245771e-05 -1.880070e-04 1.721647e-02
-1.170027e-02 1.950962e-04 -2.084095e-02
-2.290879e-03 1.303057e-03 -2.407748e-02
-1.045844e-02 -1.777711e-03 1.442988e-02
-1.053330e-02 1.260475e-03 1.449695e-02
1.693997e-02 4.674929e-03 -1.517111e-02
4.953422e-03 2.262846e-03 -2.348799e-02
3.778383e-03 3.791094e-03 -2.344036e-02
-4.112328e-04 -1.143747e-02 1.399336e-02
1.013794e-02 -2.703306e-03 1.466660e-02
1.586258e-02 -1.340556e-03 -1.716370e-02
2.218885e-05 -6.762388e-05 1.740837e-02
1.579349e-02 1.362102e-03 -1.718710e-02
-9.353205e-03 -2.066940e-03 -2.235973e-02
1.900498e-02 -7.763008e-03 -6.819467e-03
-6.924213e-03 2.143783e-03 -2.287291e-02
1.404438e-03 2.103191e-02 -6.004875e-03
3.625668e-04 1.093952e-02 1.427641e-02
6.133013e-03 8.194896e-03 -2.152922e-02
6.534820e-03 -9.352130e-03 1.399731e-02
8.714464e-03 7.276646e-03 1.415526e-02
1.147660e-02 1.712952e-02 -2.379734e-03
-1.058001e-04 3.162617e-04 1.734337e-02
1.089821e-02 3.383834e-04 1.446040e-02
6.875371e-03 1.958009e-02 1.630775e-04
9.103030e-03 -4.906950e-03 1.494074e-02
-3.342313e-03 1.869198e-02 -1.145895e-02
-1.381750e-03 3.079963e-03 -2.411579e-02
-2.042890e-02 2.683006e-03 -1.923441e-04
4.931268e-03 -9.112038e-03 1.495111e-02
-1.086666e-02 -3.781223e-03 -2.072943e-02
1.946671e-02 2.480421e-03 3.315270e-03
1.949014e-02 -2.504404e-03 3.347854e-03
-2.727122e-04 -1.380750e-04 1.736766e-02
-7.681949e-03 -1.915643e-02 -6.590797e-03
-1.526421e-02 -7.477864e-03 -1.551907e-02
1.652129e-02 1.198878e-02 -8.014089e-05
8.508936e-03 7.937214e-03 1.391244e-02
1.623135e-03 1.024505e-02 1.497182e-02
5.681259e-04 -1.982087e-04 -2.408975e-02
-5.748112e-03 -1.384413e-02 -1.775246e-02
1.573468e-02 -1.366008e-02 -4.388210e-03
7.609917e-03 7.183536e-03 1.461840e-02
1.077538e-02 1.641887e-02 -1.037008e-02
-4.465804e-05 -4.113244e-04 1.724091e-02
-5.215578e-03 -9.567902e-03 1.456521e-02
1.879722e-02 7.591461e-03 1.032542e-03
1.075557e-02 3.155931e-03 1.430339e-02
6.359651e-03 -1.905081e-02 2.189806e-03
2.030653e-02 4.604141e-03 -2.380779e-03
-1.792973e-02 1.009867e-02 -1.512751e-03
-9.524291e-03 7.604596e-04 -2.181113e-02
-3.920767e-03 9.563448e-03 1.440788e-02
-6.233278e-03 -4.632913e-04 -2.352249e-02
-1.523525e-02 1.330308e-02 -8.275297e-03
1.380550e-05 -5.657053e-05 1.751437e-02
3.101077e-03 1.001441e-02 -2.147327e-02
-7.186809e-03 -8.506707e-03 1.408085e-02
1.051714e-02 -1.801804e-02 -1.687982e-03
1.020101e-02 6.006354e-03 1.372275e-02
2.139528e-03 1.088901e-02 1.453329e-02
-7.264165e-03 1.911476e-02 4.069417e-04
-9.059412e-03 6.085119e-03 1.446590e-02
9.010561e-03 9.341020e-04 -2.222764e-02
7.982433e-03 -1.590373e-02 -1.399832e-02
-8.233629e-03 -1.260036e-02 -1.804381e-02
7.996534e-05 4.193764e-05 1.759764e-02
1.966610e-04 -2.183096e-04 1.749723e-02
7.982620e-03 1.817499e-02 2.747370e-03
2.005540e-02 3.071051e-03 1.440945e-03
2.986032e-04 7.759189e-04 -2.396161e-02
-1.097032e-02 2.829004e-03 1.391219e-02
-1.817316e-03 2.001069e-02 2.099970e-03
1.160094e-02 2.780114e-03 1.377710e-02
1.681677e-02 1.199791e-02 -4.954117e-03
1.434235e-02 4.848082e-03 1.077995e-02
-9.048259e-03 5.264097e-03 1.471097e-02
4.279514e-03 -3.361529e-03 -2.344035e-02
4.832503e-04 3.240367e-04 1.754788e-02
-1.525371e-02 3.311729e-03 -1.730670e-02
1.374350e-02 -8.652890e-03 -1.630520e-02
1.553020e-02 -1.382481e-02 -2.042213e-03
1.076235e-02 8.212133e-03 -1.897622e-02
-2.700451e-03 6.308346e-03 -2.308136e-02
-1.119191e-02 1.173585e-03 1.422911e-02
-2.053206e-02 3.701111e-03 -3.052650e-03
-6.077077e-03 -8.850903e-03 1.446582e-02
-6.078222e-03 -8.396750e-03 1.477234e-02
5.545704e-03 1.052343e-02 1.365760e-02
-1.437452e-04 7.543796e-05 1.760851e-02
-2.933885e-04 5.154820e-05 -2.400401e-02
-1.957273e-02 5.533428e-03 1.052414e-03
-1.358656e-04 5.132051e-04 -2.435230e-02
1.708558e-03 1.337823e-02 -1.930846e-02
-8.514494e-03 -7.254070e-03 1.428719e-02
1.268828e-02 -5.305648e-03 -1.892708e-02
-1.695228e-02 1.091374e-02 -8.018229e-03
9.801234e-03 -6.033989e-03 1.404925e-02
8.395814e-03 -5.679752e-03 1.479379e-02
-2.868336e-04 1.662881e-03 -2.420905e-02
1.532469e-04 2.696496e-04 1.754516e-02
-1.004445e-02 -1.705781e-02 -1.045122e-02
-1.532694e-02 7.905594e-03 -1.481417e-02
-1.313661e-02 -1.544648e-02 -8.541186e-03
-2.885804e-03 2.039389e-02 -6.337376e-03
1.259183e-04 -1.375720e-03 -2.401042e-02
7.430690e-03 -8.238464e-03 1.418471e-02
-3.035143e-03 1.783881e-03 -2.419402e-02
7.353610e-03 -4.182802e-04 -2.302055e-02
-9.857238e-03 1.790532e-02 -8.408992e-03
4.896115e-03 1.975615e-02 7.601619e-04
-2.273321e-04 -1.094437e-04 1.746128e-02
-7.749242e-03 -6.591701e-03 1.473214e-02
-1.582622e-03 1.054915e-02 1.461089e-02