# vtk DataFile Version 2.0
Electric current density generated by TTH
ASCII
DATASET UNSTRUCTURED_GRID
POINTS 2291 double
1.520000e-05 -3.722926e-21 -4.898587e-23
1.503201e-05 2.253607e-06 -4.898587e-23
-1.004577e-06 1.516677e-05 -4.898587e-23
7.801391e-06 -1.283270e-05 1.991900e-07
1.118082e-05 1.009693e-05 1.890908e-07
-6.285813e-06 -1.364379e-05 1.987718e-07
-1.246042e-05 -8.406282e-06 1.975999e-07
-1.216409e-05 8.824088e-06 -1.980825e-07
-1.018605e-05 1.104871e-05 -1.980825e-07
-2.744629e-06 -1.477818e-05 1.975999e-07
-1.156655e-05 -9.599097e-06 1.975999e-07
-4.164395e-06 -1.443583e-05 1.984951e-07
-9.807482e-06 -1.138194e-05 1.984951e-07
-1.255206e-06 1.514808e-05 -4.898587e-23
1.978061e-06 -1.489371e-05 1.984951e-07
-6.684524e-06 -1.345294e-05 1.987718e-07
-7.162065e-06 1.321115e-05 -1.980825e-07
-5.542414e-06 1.397790e-05 -1.966189e-07
-3.285769e-06 1.444786e-05 8.017953e-08
1.181736e-05 8.942648e-06 -8.637873e-08
1.451270e-05 -4.060643e-06 1.873190e-07
1.493918e-05 -1.722165e-06 -1.963346e-07
-1.483464e-05 -2.615537e-06 1.896677e-07
-1.463802e-05 3.380477e-06 1.986393e-07
-1.505492e-06 1.512526e-05 -4.898587e-23
-2.359297e-06 1.489601e-05 -1.825542e-07
-1.809134e-06 1.496699e-05 -1.850231e-07
8.330329e-06 -1.252317e-05 -1.958040e-07
-8.427644e-07 -1.501842e-05 1.955296e-07
-1.385126e-05 5.942842e-06 -1.864682e-07
1.325686e-05 -6.589529e-06 -4.108839e-08
6.511558e-06 -1.331075e-05 -8.317494e-08
1.303363e-05 -7.017430e-06 -3.275442e-08
9.229661e-06 -1.185386e-05 -1.986340e-07
1.230004e-05 8.626312e-06 -1.986192e-07
-1.755366e-06 1.509830e-05 -4.898587e-23
2.110220e-06 1.491557e-05 1.894480e-07
1.467198e-05 3.217847e-06 -1.989254e-07
-1.480611e-05 6.806778e-07 -9.069760e-08
1.462684e-05 -3.493149e-06 -1.963233e-07
3.731414e-07 1.504170e-05 1.945609e-07
1.475691e-05 -3.094198e-06 1.842437e-07
1.040368e-05 1.083811e-05 1.986320e-07
1.134429e-05 -9.934861e-06 1.834750e-07
1.257401e-05 -8.236332e-06 -1.975208e-07
8.563414e-06 -1.239807e-05 -1.880903e-07
-2.004761e-06 1.506721e-05 -4.898587e-23
1.430430e-05 4.778848e-06 1.826583e-07
1.445449e-05 4.303287e-06 1.826583e-07
-1.496580e-05 1.865485e-06 1.825867e-07
5.482290e-06 1.404990e-05 -1.825867e-07
-3.493936e-06 1.440192e-05 -8.651973e-08
7.094242e-06 1.330874e-05 -1.826536e-07
-4.542548e-06 1.438408e-05 1.813585e-07
1.395231e-05 4.936910e-06 1.477589e-09
1.437863e-05 3.528018e-06 -4.501628e-08
-1.349541e-06 1.502459e-05 -1.810042e-07
-2.253607e-06 1.503201e-05 -4.898587e-23
1.465683e-05 -2.076862e-06 3.587425e-08
-4.690907e-06 1.405216e-05 7.463106e-08
5.598037e-06 -1.371619e-05 -7.497601e-08
5.946753e-06 -1.385591e-05 -1.841081e-07
1.366224e-05 6.401390e-06 -1.798140e-07
1.341439e-05 6.858347e-06 -1.888154e-07
1.320608e-05 7.048997e-06 -1.976761e-07
1.484558e-05 -5.957312e-07 -1.403678e-07
4.266577e-06 1.444770e-05 1.893064e-07
3.993134e-06 1.442999e-05 1.980727e-07
-2.501838e-06 1.499269e-05 -4.898587e-23
4.802175e-06 1.428017e-05 1.887971e-07
5.004773e-06 1.410648e-05 1.974205e-07
1.115415e-05 -1.013282e-05 -1.875453e-07
1.081790e-05 -1.048703e-05 -1.885602e-07
1.055846e-05 -1.061127e-05 -1.976304e-07
1.269711e-05 8.108822e-06 -1.889680e-07
1.275063e-05 7.842342e-06 -1.976343e-07
2.878731e-06 1.478795e-05 1.889565e-07
3.108469e-06 1.464300e-05 1.976306e-07
9.729760e-06 -1.152021e-05 -1.836343e-07
-2.749384e-06 1.494928e-05 -4.898587e-23
9.907435e-06 -1.119391e-05 -1.932841e-07
-1.506188e-05 -8.783416e-07 -1.798592e-07
-1.502564e-05 -1.370224e-06 -1.796050e-07
-1.493092e-05 -1.638276e-06 -1.989440e-07
1.182958e-05 -9.365396e-06 -1.795706e-07
1.194060e-05 -9.094450e-06 -1.997713e-07
1.151346e-05 -9.751401e-06 -1.795706e-07
1.129119e-05 -9.888333e-06 -1.997973e-07
1.438388e-05 4.561890e-06 -1.786246e-07
1.434515e-05 4.234066e-06 -1.953138e-07
-2.996179e-06 1.490178e-05 -4.898587e-23
6.564154e-06 1.353426e-05 1.955224e-07
-1.387607e-05 5.152029e-06 2.560345e-08
-1.590204e-06 -1.471575e-05 -2.381262e-08
7.992624e-08 1.508990e-05 -1.785516e-07
8.916966e-06 1.203561e-05 1.988867e-07
2.362372e-06 1.490320e-05 1.789709e-07
1.475803e-05 1.138208e-06 -2.722104e-08
1.500570e-05 1.618985e-06 -1.771731e-07
6.388994e-06 -1.365410e-05 -1.854298e-07
4.759339e-06 -1.420323e-05 1.989380e-07
-3.242154e-06 1.485020e-05 -4.898587e-23
7.681671e-06 1.286104e-05 1.990439e-07
3.331423e-06 -1.460534e-05 1.990440e-07
-7.656121e-06 1.287504e-05 -1.989381e-07
-8.715193e-06 -1.218312e-05 1.989381e-07
-4.733688e-06 -1.421180e-05 1.989381e-07
-8.915437e-06 1.203736e-05 -1.989381e-07
-9.308558e-06 -1.173600e-05 1.989381e-07
-1.058248e-05 1.060160e-05 -1.989381e-07
-1.404751e-05 -5.200989e-06 1.989381e-07
-1.246461e-05 8.307613e-06 -1.989381e-07
1.499269e-05 2.501838e-06 -4.898587e-23
-3.487244e-06 1.479456e-05 -4.898587e-23
-1.435282e-05 4.287128e-06 -1.989381e-07
2.574277e-06 -1.475656e-05 1.989381e-07
-8.307613e-06 1.246461e-05 -1.989381e-07
-8.077628e-06 -1.261487e-05 1.989381e-07
4.023191e-06 -1.442903e-05 1.989381e-07
8.285089e-06 1.247959e-05 1.989381e-07
-1.349399e-05 6.082875e-06 -2.571239e-08
-1.340231e-05 -6.281234e-06 2.200541e-08
-5.840076e-07 -1.479013e-05 2.571239e-08
-1.437733e-05 -3.516710e-06 2.163318e-08
-3.731379e-06 1.473488e-05 -4.898587e-23
5.285117e-06 1.412841e-05 1.812373e-07
5.717692e-06 1.396675e-05 1.776934e-07
-1.494298e-05 2.114098e-06 -1.776934e-07
1.377108e-05 6.176810e-06 -1.771130e-07
1.387139e-05 5.948301e-06 -1.770795e-07
-1.490705e-05 -2.361045e-06 -1.771312e-07
-1.129992e-06 1.505154e-05 -1.765856e-07
1.505699e-05 8.723441e-07 1.823077e-07
-4.067437e-06 1.451154e-05 1.870514e-07
1.219576e-05 -8.385611e-06 -1.427353e-08
-3.974495e-06 1.467118e-05 -4.898587e-23
1.374827e-05 6.153412e-06 1.899775e-07
6.484159e-06 1.330398e-05 -1.067897e-09
6.715599e-06 1.319688e-05 -5.362045e-08
1.213767e-05 -8.967398e-06 -1.781154e-07
-1.480589e-05 -3.915727e-07 -6.561744e-08
1.464819e-05 2.134619e-06 -3.396447e-08
9.510661e-06 1.136146e-05 8.007313e-08
1.507836e-05 -2.109524e-07 -1.833735e-07
-1.506889e-05 -6.270050e-07 1.824478e-07
1.027887e-05 1.101023e-05 -1.899690e-07
-4.216524e-06 1.460346e-05 -4.898587e-23
1.458320e-05 2.540783e-06 -3.385659e-08
1.056101e-05 1.070733e-05 -1.960925e-07
1.474917e-05 1.881493e-06 -1.508629e-07
-2.835781e-06 1.479808e-05 -1.883204e-07
5.442439e-06 -1.407715e-05 -1.772777e-07
-5.084226e-06 1.421038e-05 1.773137e-07
1.377230e-05 -6.170497e-06 -1.778796e-07
-1.496269e-05 -1.929063e-06 -1.803138e-07
1.060939e-06 1.499516e-05 1.973179e-07
7.848641e-07 1.501863e-05 1.961362e-07
-4.457401e-06 1.453174e-05 -4.898587e-23
7.897318e-06 -1.251708e-05 8.222949e-09
3.328184e-06 1.471756e-05 1.790176e-07
1.049170e-05 -1.084485e-05 -1.789633e-07
1.296302e-05 7.723029e-06 -1.789871e-07
1.472744e-05 3.316621e-06 1.753029e-07
6.873326e-06 -1.339446e-05 1.922789e-07
7.499263e-06 -1.275954e-05 7.992968e-09
1.508003e-05 6.353548e-07 -1.768468e-07
-1.486924e-05 -2.604191e-06 -1.756906e-07
-1.475815e-05 1.139816e-06 -2.888066e-08
-4.697058e-06 1.445606e-05 -4.898587e-23
-1.443379e-05 3.279944e-06 2.654481e-08
-1.450340e-05 3.011347e-06 -7.021153e-08
1.482131e-05 -2.854679e-06 -1.766814e-07
1.262493e-05 -7.764687e-06 -9.035954e-08
3.840638e-06 1.459415e-05 1.780717e-07
1.321170e-05 7.291464e-06 -1.784990e-07
1.011886e-05 -1.119887e-05 -1.769309e-07
-5.842221e-06 1.360351e-05 -4.431316e-08
-6.714006e-06 1.319510e-05 -4.450004e-08
-6.944018e-06 -1.307510e-05 4.285699e-08
-4.935432e-06 1.437642e-05 -4.898587e-23
-9.941279e-06 -1.097035e-05 4.285699e-08
1.581696e-06 -1.471991e-05 4.285699e-08
-7.534181e-08 -1.480428e-05 4.206415e-08
-5.828772e-06 -1.360893e-05 4.285699e-08
-1.316959e-05 -6.763012e-06 4.269648e-08
-1.113322e-05 -9.758537e-06 4.285699e-08
-9.748245e-06 1.114232e-05 -4.318003e-08
-1.175369e-05 9.002083e-06 -4.425640e-08
-1.424417e-05 -4.034366e-06 4.206415e-08
-1.327961e-05 6.544342e-06 -4.269648e-08
-5.172456e-06 1.429285e-05 -4.898587e-23
-1.204501e-05 -8.607858e-06 4.285699e-08
-2.308068e-06 -1.462398e-05 4.441262e-08
-3.746642e-06 -1.432272e-05 4.285699e-08
1.336881e-05 -6.883354e-06 1.965842e-07
6.495286e-06 -1.357121e-05 1.947596e-07
1.009164e-05 1.084478e-05 -7.315893e-08
1.022910e-05 1.071232e-05 6.759392e-08
1.456856e-05 2.797558e-06 -1.126317e-07
1.254290e-05 -8.344999e-06 1.890396e-07
1.453109e-05 4.076412e-06 -1.775618e-07
-5.408066e-06 1.420538e-05 -4.898587e-23
1.492564e-05 -2.127150e-06 -1.848084e-07
-1.491779e-05 2.306321e-06 -1.759896e-07
5.895727e-06 1.389614e-05 1.759382e-07
-1.470091e-05 -3.373492e-06 1.819580e-07
6.168674e-06 -1.375294e-05 1.861926e-07
1.486842e-05 1.430816e-06 -1.898526e-07
8.702485e-06 -1.229262e-05 1.903839e-07
-1.482419e-05 2.859583e-06 -1.746396e-07
3.034410e-08 1.509432e-05 1.763452e-07
-1.281520e-05 -7.410600e-06 3.775334e-08
-5.642198e-06 1.411402e-05 -4.898587e-23
-1.126769e-05 9.603901e-06 -4.556753e-08
-1.293971e-05 7.194419e-06 -4.556753e-08
8.832225e-06 1.217019e-05 -1.964833e-07
9.038824e-06 1.200030e-05 -1.986067e-07
8.438376e-06 1.244653e-05 -1.964792e-07
8.207943e-06 1.258383e-05 -1.985445e-07
-5.574317e-06 1.396600e-05 1.964790e-07
-5.810850e-06 1.385168e-05 1.988782e-07
4.639112e-06 -1.430388e-05 -1.964789e-07
4.888985e-06 -1.420636e-05 -1.985459e-07
1.494928e-05 2.749384e-06 -4.898587e-23
-5.874787e-06 1.401880e-05 -4.898587e-23
4.179174e-06 -1.444496e-05 -1.964789e-07
3.917595e-06 -1.450432e-05 -1.985458e-07
7.583364e-06 1.298518e-05 -1.964789e-07
7.806686e-06 1.283661e-05 -1.985458e-07
3.199566e-06 -1.469303e-05 -1.964789e-07
3.457871e-06 -1.462074e-05 -1.985458e-07
2.727916e-06 -1.478786e-05 -1.964789e-07
2.461744e-06 -1.482102e-05 -1.985458e-07
-4.639112e-06 -1.430388e-05 -1.964789e-07
-4.888987e-06 -1.420636e-05 -1.985458e-07
-6.105770e-06 1.391975e-05 -4.898587e-23
-8.629770e-06 -1.231460e-05 -1.964789e-07
-8.840061e-06 -1.214809e-05 -1.985458e-07
-7.810843e-06 1.284963e-05 1.964789e-07
-7.573886e-06 1.297532e-05 1.985458e-07
-6.274648e-06 -1.366569e-05 -1.964789e-07
-6.028775e-06 -1.375823e-05 -1.988787e-07
-8.217890e-06 1.259320e-05 1.964789e-07
[...]
POINT_DATA 2291
VECTORS 10.000GHz_fone_imag double
1.144456e-03 -1.801378e-03 9.903417e-02
1.223259e-04 4.651322e-04 1.012896e-01
-1.533359e-04 -4.501265e-03 1.038080e-01
-5.607708e-02 9.139307e-02 1.293377e-02
-7.697612e-02 -6.780368e-02 3.034521e-02
4.499639e-02 9.652116e-02 1.356051e-02
8.859551e-02 5.759863e-02 1.830446e-02
-8.510081e-02 6.149454e-02 1.413383e-02
-7.159944e-02 7.805710e-02 1.578130e-02
2.065517e-02 1.030806e-01 1.745894e-02
8.210126e-02 6.535760e-02 1.706258e-02
3.026968e-02 1.018921e-01 1.339192e-02
6.826556e-02 8.051995e-02 1.217988e-02
3.836596e-04 1.076000e-03 1.028493e-01
-1.497370e-02 1.048641e-01 1.271385e-02
4.634135e-02 9.498388e-02 1.219346e-02
-5.004188e-02 9.208878e-02 1.445284e-02
-3.667434e-02 9.833034e-02 2.102772e-02
9.168126e-03 -4.252443e-02 -1.053516e-01
3.865274e-02 3.001027e-02 -1.001633e-01
-9.829105e-02 2.619315e-02 3.586171e-02
1.069686e-01 -1.245117e-02 2.294775e-02
9.712125e-02 1.450263e-02 3.178361e-02
1.047390e-01 -2.190793e-02 9.612457e-03
-1.564813e-03 -1.059500e-03 1.043380e-01
-1.434523e-02 9.682054e-02 3.894400e-02
-1.300767e-02 9.961842e-02 3.844763e-02
5.994964e-02 -8.553944e-02 2.387155e-02
8.464641e-03 1.050000e-01 1.732608e-02
-9.504363e-02 3.969459e-02 2.877578e-02
2.744581e-02 -1.264117e-02 -1.083675e-01
1.887306e-02 -4.194925e-02 -1.032474e-01
1.265405e-02 -6.248564e-03 -1.118378e-01
6.185012e-02 -8.106214e-02 1.324163e-02
8.408696e-02 5.948035e-02 1.333484e-02
-2.489907e-04 -4.388884e-03 1.040519e-01
-1.521563e-02 -1.020209e-01 2.879256e-02
1.009917e-01 2.365703e-02 1.213658e-02
-5.820050e-02 4.041984e-03 -9.882571e-02
1.010552e-01 -2.511171e-02 1.707913e-02
-6.414243e-04 -1.037169e-01 2.750218e-02
-9.803997e-02 1.985470e-02 3.550163e-02
-7.520354e-02 -7.622014e-02 1.226675e-02
-7.515544e-02 6.415703e-02 4.321291e-02
9.052626e-02 -5.855193e-02 1.970276e-02
5.892585e-02 -8.378428e-02 3.489822e-02
3.132307e-03 -1.449360e-03 1.041729e-01
-9.395161e-02 -2.988704e-02 3.978763e-02
-9.057547e-02 -2.943845e-02 4.271193e-02
9.595176e-02 -1.104165e-02 3.785576e-02
3.446854e-02 9.105689e-02 3.733733e-02
-1.268457e-02 4.633464e-02 -1.011086e-01
4.788289e-02 8.785963e-02 3.649372e-02
2.934422e-02 -9.255617e-02 4.034697e-02
-4.940946e-03 -4.410204e-03 -1.118018e-01
2.557197e-02 3.331401e-03 -1.082525e-01
-7.308022e-03 9.985292e-02 4.063623e-02
-3.670791e-04 -8.653818e-04 1.043270e-01
-1.688731e-02 3.484962e-03 -1.090568e-01
1.290466e-02 -3.700452e-02 -1.077214e-01
1.489715e-02 -3.774339e-02 -1.070201e-01
3.938863e-02 -9.065994e-02 3.749339e-02
9.039880e-02 4.026595e-02 3.962101e-02
9.318498e-02 4.764758e-02 3.279547e-02
9.497494e-02 5.024075e-02 -3.046138e-02
7.753385e-02 -4.087945e-03 -8.153983e-02
-3.105450e-02 -9.986300e-02 3.227336e-02
-2.859056e-02 -1.037173e-01 -3.041266e-02
1.113677e-04 6.137348e-03 1.032651e-01
-3.239218e-02 -9.945994e-02 3.350429e-02
-3.547841e-02 -1.016773e-01 -3.062559e-02
7.593896e-02 -6.612272e-02 3.251876e-02
7.510074e-02 -7.270077e-02 3.325262e-02
7.570535e-02 -7.567668e-02 -3.107989e-02
8.781548e-02 5.698020e-02 3.334661e-02
9.142299e-02 5.677669e-02 -3.071156e-02
-1.956436e-02 -1.027742e-01 3.312617e-02
-2.184723e-02 -1.051563e-01 -3.089473e-02
6.413074e-02 -7.811941e-02 3.803433e-02
-1.508553e-03 -2.490243e-03 1.052905e-01
6.778344e-02 -7.579883e-02 -3.898668e-02
-9.928458e-02 -4.916247e-03 4.110599e-02
-9.609343e-02 -9.652877e-03 3.953403e-02
-1.059337e-01 -1.088634e-02 9.320843e-03
7.606281e-02 -5.901349e-02 3.927269e-02
8.614632e-02 -6.578623e-02 4.278158e-03
7.159119e-02 -6.411831e-02 3.870157e-02
8.066989e-02 -7.119407e-02 7.902619e-03
9.297721e-02 2.891649e-02 4.270966e-02
9.633561e-02 2.997423e-02 -3.077364e-02
1.736111e-03 6.740209e-04 1.028156e-01
-4.639116e-02 -9.692806e-02 1.414062e-02
1.744788e-02 -5.026107e-03 -1.104556e-01
-2.853550e-03 -1.656319e-02 -1.097975e-01
-6.941362e-05 9.326353e-02 4.470408e-02
-6.271544e-02 -8.361929e-02 -1.552961e-02
-1.340198e-02 -9.565387e-02 4.121364e-02
1.072170e-02 6.995359e-04 -1.128907e-01
9.596793e-02 8.661236e-03 4.856782e-02
4.233042e-02 -9.010969e-02 3.620919e-02
-3.348601e-02 9.901161e-02 -1.562449e-02
-2.738962e-03 -2.865967e-03 1.025957e-01
-5.407661e-02 -8.918546e-02 -1.502396e-02
-2.368786e-02 1.015292e-01 -1.482804e-02
-5.265089e-02 8.927991e-02 -1.543876e-02
6.066672e-02 8.381495e-02 -1.547488e-02
3.204020e-02 9.815448e-02 -1.582742e-02
-6.264812e-02 8.332151e-02 -1.526968e-02
6.547691e-02 8.080934e-02 -1.557746e-02
-7.254571e-02 7.312716e-02 -1.592057e-02
9.753031e-02 3.550098e-02 -1.554433e-02
-8.521787e-02 5.799256e-02 -1.579296e-02
-1.831104e-03 -5.082222e-04 1.064617e-01
4.314835e-03 5.562317e-04 1.029457e-01
-9.892699e-02 3.047926e-02 -1.581460e-02
-1.733795e-02 1.025903e-01 -1.598690e-02
-5.702285e-02 8.535696e-02 -1.642117e-02
5.570378e-02 8.713156e-02 -1.576265e-02
-2.727427e-02 9.933284e-02 -1.606969e-02
-5.652609e-02 -8.583429e-02 -1.623343e-02
-5.484802e-03 9.650858e-04 -1.097705e-01
4.492529e-03 6.977634e-04 -1.110152e-01
1.509083e-03 5.679098e-03 -1.108977e-01
4.378867e-03 -4.215060e-04 -1.102308e-01
-3.360177e-03 1.022079e-04 1.036080e-01
-3.577364e-02 -9.402408e-02 4.305037e-02
-3.702709e-02 -8.797673e-02 4.606807e-02
-9.435719e-02 1.431238e-02 4.596849e-02
8.426833e-02 3.777923e-02 4.815654e-02
8.747732e-02 3.848646e-02 4.334580e-02
-9.381458e-02 -1.672911e-02 4.951678e-02
-6.237856e-03 9.194772e-02 4.979078e-02
-9.612415e-02 -1.470253e-04 3.777676e-02
2.671534e-02 -9.571772e-02 3.455287e-02
-4.323010e-04 1.011789e-03 -1.154608e-01
1.444474e-03 -3.484358e-03 1.028285e-01
-9.239706e-02 -4.015584e-02 3.364081e-02
-4.295551e-03 -8.514169e-03 -1.134087e-01
1.761027e-02 2.707949e-02 -1.083597e-01
7.534935e-02 -5.743289e-02 4.632130e-02
-3.284162e-02 4.070363e-04 -1.069514e-01
1.219783e-02 2.545424e-03 -1.121147e-01
-3.311359e-02 -3.507891e-02 -1.005362e-01
9.546691e-02 -4.292558e-03 4.045591e-02
9.574599e-02 6.699755e-03 4.173024e-02
7.249835e-02 7.563519e-02 2.815005e-02
6.827863e-04 -2.864719e-03 1.036179e-01
1.422665e-02 3.633946e-03 -1.154963e-01
7.366315e-02 7.616758e-02 2.213724e-02
8.381538e-02 1.105989e-02 -7.387087e-02
-1.959986e-02 9.824314e-02 3.489291e-02
3.312468e-02 -9.125917e-02 4.319708e-02
3.410664e-02 -8.935702e-02 4.423298e-02
8.650689e-02 -3.935480e-02 4.107623e-02
-9.459847e-02 -1.309531e-02 4.204763e-02
-8.300014e-03 -1.058788e-01 1.670026e-02
-6.913849e-03 -1.070249e-01 1.227281e-02
1.533122e-03 -7.457235e-04 1.041888e-01
-1.890006e-03 -6.016699e-04 -1.116480e-01
-2.224046e-02 -9.801923e-02 4.301204e-02
7.025396e-02 -7.250452e-02 4.265278e-02
8.709424e-02 5.087457e-02 4.262653e-02
-8.739301e-02 -2.070816e-02 5.032287e-02
-4.673692e-02 9.489324e-02 2.422750e-02
1.713594e-03 -2.318583e-03 -1.135911e-01
9.578115e-02 4.400157e-03 4.348418e-02
-9.005819e-02 -1.367457e-02 5.261496e-02
-7.253650e-03 -2.195022e-03 -1.126569e-01
-2.695303e-03 -5.071579e-03 1.043979e-01
1.905250e-02 -6.027212e-03 -1.118582e-01
-4.189878e-02 7.158857e-03 -1.046920e-01
9.362296e-02 -1.589402e-02 4.544424e-02
4.667479e-02 -2.426442e-02 -1.000520e-01
-2.499004e-02 -9.657090e-02 4.449695e-02
8.809894e-02 4.877395e-02 4.442331e-02
6.612972e-02 -7.453501e-02 4.576888e-02
-1.160170e-02 2.915553e-02 -1.079021e-01
-1.526186e-02 2.815132e-02 -1.084155e-01
1.352126e-02 2.681022e-02 -1.081886e-01
5.661698e-03 -6.487668e-03 1.033615e-01
1.915840e-02 2.192076e-02 -1.083700e-01
-4.186693e-03 2.883996e-02 -1.096534e-01
3.136586e-03 2.947448e-02 -1.108808e-01
1.173714e-02 2.656847e-02 -1.084460e-01
2.660211e-02 1.109310e-02 -1.106774e-01
2.217127e-02 1.863607e-02 -1.083558e-01
-1.951912e-02 2.239886e-02 -1.087467e-01
-2.446007e-02 1.866907e-02 -1.077892e-01
2.894137e-02 5.531892e-03 -1.101891e-01
-2.695598e-02 1.056586e-02 -1.102280e-01
-1.370458e-03 7.468348e-03 1.048065e-01
2.391778e-02 1.645955e-02 -1.085686e-01
5.550372e-03 2.998711e-02 -1.079299e-01
7.719253e-03 2.805305e-02 -1.084004e-01
-9.651802e-02 4.733985e-02 1.925176e-02
-4.714950e-02 9.382441e-02 2.331083e-02
2.848433e-02 2.918184e-02 -1.044181e-01
-2.709443e-02 -2.628539e-02 -1.052527e-01
6.341381e-02 1.129201e-02 -9.263287e-02
-8.379550e-02 5.410006e-02 2.700113e-02
9.641131e-02 2.638790e-02 3.807404e-02
-1.126618e-03 3.559635e-03 1.020190e-01
9.794403e-02 -1.347770e-02 4.058929e-02
-9.567809e-02 1.316032e-02 4.279259e-02
-3.616744e-02 -8.884235e-02 4.336503e-02
9.865897e-02 2.075261e-02 3.431440e-02
-4.126127e-02 9.445091e-02 3.314213e-02
1.007152e-01 1.271183e-02 -4.038709e-02
-6.129587e-02 8.720934e-02 2.251015e-02
-9.112192e-02 1.725023e-02 4.705781e-02
-1.588018e-04 -9.282449e-02 4.817422e-02
2.674272e-02 1.208862e-02 -1.102296e-01
-7.550449e-04 -1.026260e-03 1.045756e-01
-2.653511e-02 1.880090e-02 -1.094696e-01
-2.957537e-02 1.326214e-02 -1.092425e-01
6.059893e-02 8.666972e-02 1.729468e-02
6.510716e-02 8.561983e-02 7.812957e-03
6.099841e-02 8.625194e-02 9.424467e-03
5.877048e-02 8.940239e-02 -1.248875e-03
3.979746e-02 -1.002336e-01 1.370300e-02
4.113934e-02 -9.632497e-02 3.754110e-03
3.056681e-02 -1.013923e-01 1.795289e-02
3.511772e-02 -1.020053e-01 6.372170e-03
-1.645170e-03 -2.516502e-04 1.035850e-01
3.345293e-04 5.142676e-03 1.024315e-01
3.149724e-02 -1.013207e-01 9.537423e-03
2.803340e-02 -1.035345e-01 -1.337422e-03
5.223384e-02 9.247128e-02 1.678706e-02
5.589411e-02 9.194998e-02 7.260622e-03
2.054017e-02 -1.038411e-01 1.740269e-02
2.461754e-02 -1.050166e-01 7.541987e-03
2.071948e-02 -1.036603e-01 9.470060e-03
1.706349e-02 -1.071167e-01 6.859433e-03
-3.369424e-02 -1.016492e-01 4.208331e-03
-3.861368e-02 -1.005801e-01 1.132731e-02
-4.029560e-03 2.493055e-03 1.044689e-01
-5.947659e-02 -8.740181e-02 9.319843e-03
-6.434901e-02 -8.716188e-02 8.874528e-03
5.671815e-02 -8.910991e-02 1.781224e-02
5.506569e-02 -9.221531e-02 7.046483e-03
-4.476575e-02 -9.778522e-02 1.373564e-02
-4.126062e-02 -9.579849e-02 3.662967e-03
5.617870e-02 -8.976947e-02 9.446289e-03
6.031046e-02 -8.871243e-02 3.901577e-04
1.031262e-01 -3.678675e-02 3.823014e-03
1.028951e-01 -3.769608e-02 6.145951e-03
-1.039922e-04 3.904820e-03 1.028445e-01
2.866423e-03 -1.104939e-01 1.317683e-02
3.473034e-03 -1.097957e-01 5.459499e-03
-8.040366e-02 -7.474056e-02 4.644484e-03
-8.070338e-02 -7.449366e-02 5.533989e-03
6.944681e-02 -8.517956e-02 4.397676e-03
6.857561e-02 -8.298855e-02 -2.640401e-03
-5.820877e-02 -8.986360e-02 3.779501e-03
-6.118381e-02 -8.779536e-02 1.228430e-02
-3.992492e-02 -1.020763e-01 5.819445e-03
-4.005090e-02 -1.022077e-01 5.903077e-03
-2.346565e-04 -3.139265e-03 1.057285e-01
-1.790947e-02 -1.054585e-01 5.553746e-03
-1.559856e-02 -1.053421e-01 1.239972e-02
-9.966946e-02 -4.253394e-02 5.095915e-03
-9.568419e-02 -4.381865e-02 3.553257e-03
7.596280e-02 -7.601716e-02 4.123337e-03
7.885263e-02 -7.373165e-02 1.135281e-02
-8.264745e-02 -6.935706e-02 5.480671e-03
-7.858202e-02 -6.943600e-02 3.794039e-03
-7.696150e-02 -7.941084e-02 1.337199e-02
-7.650810e-02 -7.883670e-02 5.849875e-03
-2.941542e-04 3.448645e-03 1.044383e-01
6.448970e-02 -8.625632e-02 1.274595e-02
6.152256e-02 -8.817449e-02 1.148228e-02
-1.008019e-01 -3.685338e-02 1.213276e-02
-9.925703e-02 -4.022413e-02 1.171393e-02
-9.347745e-02 -5.843700e-02 4.775290e-03
-9.203437e-02 -5.627582e-02 -3.358975e-03
8.577317e-02 -6.389159e-02 4.870174e-03
8.384836e-02 -6.555152e-02 1.228911e-02
1.348604e-02 -1.070642e-01 5.024601e-03
1.017634e-02 -1.042943e-01 3.661969e-03
1.141412e-03 -2.465330e-03 1.040678e-01
-4.854781e-02 -9.637163e-02 5.566111e-03
-4.984550e-02 -9.241330e-02 4.011344e-03
-8.596961e-02 -6.834896e-02 1.229594e-02
-8.723655e-02 -6.585769e-02 5.621417e-03
-5.509579e-02 -9.564335e-02 1.347263e-02
-5.468187e-02 -9.458400e-02 6.136121e-03
7.195036e-02 -7.961524e-02 1.380869e-02
6.971677e-02 -8.034207e-02 1.242963e-02
9.459702e-02 -5.851783e-02 1.451432e-02
9.280309e-02 -5.522745e-02 -3.290181e-03
-3.317273e-03 7.542982e-03 1.029288e-01
8.709385e-03 -1.094342e-01 4.454441e-03
7.998075e-03 -1.096054e-01 6.070820e-03
-6.434993e-02 -8.467373e-02 8.855556e-03
-6.863355e-02 -8.399712e-02 7.691963e-03
-1.041265e-01 -3.236849e-02 4.344764e-03
-1.054098e-01 -3.253358e-02 5.009893e-03
8.975694e-02 -5.728192e-02 8.685648e-03
8.926632e-02 -6.125416e-02 7.207365e-03
8.149587e-02 -7.448625e-02 5.319727e-03
8.044863e-02 -7.247338e-02 -2.794472e-03
-2.444349e-03 -1.743887e-04 1.030681e-01
-9.038870e-02 -6.076649e-02 1.388297e-02
-8.497823e-02 -6.069959e-02 3.591799e-03
-7.039989e-02 -8.127822e-02 5.257561e-03
-7.084210e-02 -7.696545e-02 3.557201e-03
1.024022e-01 -2.832171e-02 8.647451e-03
1.037124e-01 -3.264204e-02 7.020175e-03
1.060411e-01 -2.673533e-02 1.255523e-02
-2.369332e-02 -1.073952e-01 1.468092e-02
-2.391532e-02 -1.068663e-01 5.723787e-03
-2.998952e-02 -1.038321e-01 1.318497e-02
2.030698e-03 -5.540544e-03 1.039872e-01
-2.638866e-02 -1.009494e-01 3.599758e-03
4.971293e-02 -9.444957e-02 5.306696e-03
4.726522e-02 -9.562819e-02 1.211433e-02
4.160675e-03 6.503986e-02 -9.187736e-02
6.573859e-02 8.356301e-02 1.526486e-02
6.848297e-02 8.107433e-02 1.593296e-02
-2.464648e-02 -1.769145e-03 -1.092602e-01
-5.440990e-03 -1.815241e-02 -1.051534e-01
-3.001097e-02 9.832099e-02 3.318476e-02
-2.427541e-02 9.174462e-02 4.626292e-02
3.253174e-03 -1.166978e-03 1.035061e-01
-2.581035e-02 9.211711e-02 4.568124e-02
4.590417e-02 -9.727882e-02 8.965411e-03
4.631271e-02 -9.689280e-02 -6.577240e-03
1.589340e-04 -1.077746e-01 2.107200e-02
-3.173051e-04 -1.080266e-01 -1.021967e-02
-9.567327e-02 -4.972208e-02 2.079105e-02
-9.659334e-02 -4.919949e-02 -9.299506e-03
-1.039670e-01 -3.006976e-02 2.083685e-02
-1.043430e-01 -2.946287e-02 -9.870932e-03
-1.273866e-02 -1.067956e-01 8.821347e-03
1.223915e-03 -1.312705e-03 1.036777e-01
-6.159168e-04 5.400736e-03 1.024161e-01
-1.277173e-02 -1.053385e-01 -5.909216e-03
-9.596358e-02 -5.431557e-02 1.205199e-02
-9.301026e-02 -5.374557e-02 1.271542e-03
8.392773e-02 -7.013312e-02 9.529291e-03
8.191118e-02 -6.961436e-02 1.413541e-03
9.641038e-02 -4.834679e-02 2.075228e-02
9.620259e-02 -4.810434e-02 -1.039923e-02
9.752295e-02 -5.252798e-02 1.188262e-02
9.412369e-02 -5.235948e-02 1.309264e-03
-9.056659e-03 -1.051324e-01 2.151731e-02
-4.930570e-03 2.832043e-03 1.017120e-01
-7.933832e-03 -1.066846e-01 1.336351e-03
9.846486e-02 -3.789621e-02 2.084937e-02
9.903486e-02 -4.070484e-02 5.857462e-04
-1.034796e-01 -2.256937e-02 1.734332e-02
-7.243547e-04 -1.374428e-02 -1.114140e-01
-4.492208e-03 -1.290326e-02 -1.103670e-01
-9.062866e-03 -6.683864e-03 -1.116103e-01
6.745983e-03 -1.054248e-02 -1.103633e-01
-1.122914e-02 -5.092066e-03 -1.114305e-01
1.401851e-03 -1.266087e-02 -1.117502e-01
-5.582915e-04 4.350083e-03 1.019393e-01
8.780154e-03 -7.302895e-03 -1.119309e-01
7.399722e-03 -9.113611e-03 -1.117558e-01
-8.796124e-03 -1.052222e-02 -1.106934e-01
-9.684024e-03 -9.739210e-03 -1.111149e-01
-1.069601e-02 -8.472496e-03 -1.108758e-01
1.011662e-03 -1.162603e-02 -1.115490e-01
-8.286335e-03 -1.072002e-02 -1.110010e-01
-1.219847e-03 -1.358882e-02 -1.109946e-01
2.186659e-03 -1.199576e-02 -1.115265e-01
6.128651e-03 -8.130941e-03 -1.101620e-01
-3.991048e-03 2.784797e-03 1.028859e-01
5.583028e-03 -4.780740e-04 -1.137702e-01
-7.141461e-02 -7.517168e-02 2.492324e-02
-9.031139e-02 3.163712e-02 4.737021e-02
4.122881e-02 8.759270e-02 3.812243e-02
-5.805884e-02 -8.252832e-02 3.358624e-02
-3.032985e-02 -4.867511e-02 -9.549279e-02
-5.892319e-03 9.443467e-02 4.761865e-02
-1.380493e-02 5.527564e-02 -9.525212e-02
-2.704272e-02 -5.198427e-02 -9.326986e-02
-8.175796e-03 5.649394e-02 -9.545383e-02
5.832997e-05 -3.664960e-03 1.040273e-01
-3.319818e-02 4.695248e-02 -9.516876e-02
2.922402e-02 4.861655e-02 -9.480444e-02
2.138415e-02 5.350614e-02 -9.261168e-02
3.340631e-02 4.691057e-02 -9.233553e-02
-3.184317e-02 4.859692e-02 -9.312846e-02
5.333230e-02 2.304818e-02 -9.277645e-02
-4.291458e-02 3.821942e-02 -9.253606e-02
-4.973099e-02 2.910230e-02 -9.248262e-02
-5.588422e-02 1.308536e-02 -9.241232e-02
3.469279e-02 4.546734e-02 -9.499847e-02
3.997381e-03 -3.235981e-03 1.041247e-01
-2.742514e-02 4.939917e-02 -9.399672e-02
-1.420966e-02 5.481180e-02 -9.444887e-02
-1.922921e-02 5.280842e-02 -9.460875e-02
-3.515796e-02 -4.478951e-02 -9.427823e-02
9.671805e-03 1.552144e-02 -1.095231e-01
-2.926187e-02 9.571239e-02 3.453209e-02
-4.978724e-02 -8.831555e-02 3.431713e-02
-1.979786e-02 9.885880e-02 3.403934e-02
-5.329922e-02 8.488333e-02 3.444024e-02
5.545749e-02 8.306580e-02 3.304191e-02
9.829479e-04 4.061938e-03 1.034749e-01
-5.852783e-02 8.275095e-02 3.404447e-02
3.428525e-02 9.526087e-02 3.384763e-02
3.421298e-02 9.245359e-02 3.251516e-02
9.444117e-02 3.733403e-02 3.415868e-02
6.048653e-02 8.086563e-02 3.298021e-02
-8.530268e-02 5.347383e-02 3.261103e-02
-8.455254e-02 5.108942e-02 3.295956e-02
-7.313118e-02 6.998726e-02 3.401684e-02
-7.186628e-02 6.768036e-02 3.239979e-02
-9.726769e-02 2.610716e-02 3.261575e-02
-7.718999e-03 1.118847e-02 1.054314e-01
-9.623100e-02 2.413457e-02 3.302403e-02
5.653278e-02 8.303415e-02 3.433287e-02
-5.276328e-02 8.454698e-02 3.295814e-02
-2.032394e-02 9.773842e-02 3.300087e-02
-3.032469e-02 9.541354e-02 3.316501e-02
-5.821913e-02 -8.115799e-02 3.283904e-02
1.975500e-02 -9.557624e-02 3.862965e-02
4.253397e-03 -1.861518e-02 -1.094484e-01
4.237887e-03 -3.283841e-03 -1.137048e-01
9.324695e-03 1.627757e-02 -1.087110e-01
-4.950335e-03 3.413742e-03 1.037155e-01
3.563468e-03 -1.867063e-02 -1.093442e-01
9.223154e-03 -1.625564e-02 -1.091304e-01
-1.360000e-02 -2.353635e-02 -1.065885e-01
-8.166072e-03 -2.143455e-02 -1.099933e-01
1.155803e-02 -2.705981e-03 -1.124250e-01
-1.446658e-02 -1.441793e-02 -1.091384e-01
-1.077285e-02 -1.866291e-02 -1.094225e-01
-1.588429e-02 -1.457972e-02 -1.100989e-01
-9.472625e-03 -7.056505e-03 -1.132201e-01
1.827768e-02 -4.344997e-03 -1.088214e-01
-3.652333e-03 2.908111e-03 1.043813e-01
-1.138432e-02 -1.526159e-02 -1.092665e-01
1.369028e-02 -1.291973e-02 -1.087787e-01
-2.046614e-03 -2.139986e-02 -1.097573e-01
1.070857e-02 -1.698833e-02 -1.090621e-01
-5.740175e-03 -1.817718e-02 -1.084042e-01
1.562813e-02 -1.404275e-02 -1.094360e-01
-7.022625e-03 -1.060345e-02 -1.142030e-01
1.282771e-02 -1.775229e-02 -1.101535e-01
6.322956e-03 -9.899380e-03 -1.124094e-01
1.233819e-03 -2.033436e-02 -1.089333e-01
6.083965e-03 1.730402e-03 1.017584e-01
1.521027e-03 -3.328318e-03 1.033747e-01
1.545423e-02 -9.869752e-03 -1.096744e-01
-1.714213e-02 -9.200111e-03 -1.093057e-01
1.595786e-02 -9.669200e-03 -1.118697e-01
-1.844076e-02 -7.309192e-03 -1.084412e-01
1.436657e-02 -1.419337e-02 -1.102849e-01
-1.448916e-02 -1.498437e-02 -1.097580e-01
-8.259198e-03 -7.730899e-03 -1.126604e-01
-8.612766e-03 -9.490292e-03 -1.135457e-01
2.052978e-02 -4.913926e-03 -1.117282e-01
-2.014341e-03 -1.220040e-02 -1.152540e-01
-5.464718e-04 -2.858401e-05 1.050662e-01
-1.164583e-02 -5.382368e-03 -1.123944e-01
-9.654400e-03 -8.166399e-03 -1.132769e-01
-7.088513e-03 -1.879040e-02 -1.108567e-01
-1.105249e-02 -1.617041e-02 -1.081800e-01
1.493150e-02 -2.570618e-02 -1.049249e-01
3.860293e-03 -1.850239e-02 -1.090463e-01
8.214239e-03 -1.924506e-02 -1.097943e-01
-3.472235e-03 -2.148326e-02 -1.099710e-01
-6.373425e-05 -1.270618e-02 -1.133771e-01
9.415601e-04 -1.153142e-02 -1.125571e-01
7.272465e-04 2.935709e-03 1.030220e-01
4.895329e-03 -1.700162e-02 -1.081274e-01
5.403542e-03 8.294686e-03 -1.081462e-01
9.647910e-03 1.523446e-02 -1.081934e-01
-2.061497e-04 -4.268991e-03 -1.130481e-01
1.088660e-02 -1.926073e-02 -1.107571e-01
1.606973e-02 1.649916e-02 -1.108181e-01
9.232761e-02 -1.874534e-02 4.387208e-02
2.718730e-02 9.516907e-02 3.722391e-02
-9.906543e-02 1.141626e-02 3.349197e-02
-8.685004e-03 -6.957322e-03 -1.104512e-01
-3.623459e-03 8.396034e-04 1.021553e-01
9.756047e-03 -8.115556e-03 -1.106274e-01
8.332187e-03 -9.468895e-03 -1.106252e-01
-7.553588e-02 -6.021067e-02 4.417818e-02
-6.186496e-02 -7.790766e-02 3.829869e-02
8.250197e-02 -5.361307e-02 4.135323e-02
-6.078972e-02 -7.917192e-02 3.977828e-02
5.044344e-03 -1.077202e-01 1.598302e-02
-3.198508e-02 9.372832e-02 3.850845e-02
-3.231416e-02 8.752899e-02 4.452349e-02
-5.291274e-02 -8.338605e-02 3.713727e-02
3.152621e-03 -1.522860e-03 1.043078e-01
-5.127851e-02 -8.380387e-02 4.081441e-02