# vtk DataFile Version 2.0
Electric current density generated by TTH
ASCII
DATASET UNSTRUCTURED_GRID
POINTS 2819 double
4.216524e-06 1.460346e-05 -4.898587e-23
1.099290e-05 1.028887e-05 1.917882e-07
-1.498074e-05 6.630226e-07 1.999471e-07
-1.503484e-05 3.716976e-07 1.960732e-07
1.402862e-05 -5.473986e-06 1.911677e-07
1.420194e-05 -5.007160e-06 1.911677e-07
-2.544279e-06 1.457967e-05 8.753488e-10
1.450504e-05 -3.728244e-06 1.986165e-07
8.787143e-06 -1.191057e-05 -2.187973e-08
8.461237e-07 1.503300e-05 -1.917679e-07
1.483981e-05 -2.353023e-07 1.222036e-07
3.974495e-06 1.467118e-05 -4.898587e-23
1.176831e-05 9.365487e-06 -1.959327e-07
1.224762e-05 -8.740356e-06 1.945116e-07
1.383546e-05 -5.646747e-06 1.918295e-07
-1.403493e-05 5.460341e-06 -1.908829e-07
-1.382594e-06 -1.499610e-05 1.908829e-07
-1.487008e-05 2.376250e-06 1.911774e-07
5.944468e-06 1.383598e-05 -1.911232e-07
9.737149e-06 1.149663e-05 1.887939e-07
1.488080e-05 2.376595e-07 1.619850e-07
1.394086e-05 5.707093e-06 1.895475e-07
3.731379e-06 1.473488e-05 -4.898587e-23
1.389287e-05 5.406731e-06 1.775174e-07
7.801391e-06 -1.283270e-05 1.991900e-07
1.118082e-05 1.009693e-05 1.890908e-07
-6.285813e-06 -1.364379e-05 1.987718e-07
-1.246042e-05 -8.406282e-06 1.975999e-07
-1.216409e-05 8.824088e-06 -1.980825e-07
-1.018605e-05 1.104871e-05 -1.980825e-07
-2.744629e-06 -1.477818e-05 1.975999e-07
-1.156655e-05 -9.599097e-06 1.975999e-07
-4.164395e-06 -1.443583e-05 1.984951e-07
3.487244e-06 1.479456e-05 -4.898587e-23
-9.807482e-06 -1.138194e-05 1.984951e-07
1.978061e-06 -1.489371e-05 1.984951e-07
-6.684524e-06 -1.345294e-05 1.987718e-07
-7.162065e-06 1.321115e-05 -1.980825e-07
-5.542414e-06 1.397790e-05 -1.966189e-07
-3.285769e-06 1.444786e-05 8.017953e-08
1.181736e-05 8.942648e-06 -8.637873e-08
1.451270e-05 -4.060643e-06 1.873190e-07
1.493918e-05 -1.722165e-06 -1.963346e-07
-1.483464e-05 -2.615537e-06 1.896677e-07
3.242154e-06 1.485020e-05 -4.898587e-23
-1.463802e-05 3.380477e-06 1.986393e-07
-2.359297e-06 1.489601e-05 -1.825542e-07
-1.809134e-06 1.496699e-05 -1.850231e-07
8.330329e-06 -1.252317e-05 -1.958040e-07
-8.427644e-07 -1.501842e-05 1.955296e-07
-1.385126e-05 5.942842e-06 -1.864682e-07
1.325686e-05 -6.589529e-06 -4.108839e-08
6.511558e-06 -1.331075e-05 -8.317494e-08
1.303363e-05 -7.017430e-06 -3.275442e-08
9.229661e-06 -1.185386e-05 -1.986340e-07
2.996179e-06 1.490178e-05 -4.898587e-23
1.230004e-05 8.626312e-06 -1.986192e-07
2.110220e-06 1.491557e-05 1.894480e-07
1.467198e-05 3.217847e-06 -1.989254e-07
-1.480611e-05 6.806778e-07 -9.069760e-08
1.462684e-05 -3.493149e-06 -1.963233e-07
3.731414e-07 1.504170e-05 1.945609e-07
1.475691e-05 -3.094198e-06 1.842437e-07
1.040368e-05 1.083811e-05 1.986320e-07
1.134429e-05 -9.934861e-06 1.834750e-07
1.257401e-05 -8.236332e-06 -1.975208e-07
2.749384e-06 1.494928e-05 -4.898587e-23
8.563414e-06 -1.239807e-05 -1.880903e-07
1.430430e-05 4.778848e-06 1.826583e-07
1.445449e-05 4.303287e-06 1.826583e-07
-1.496580e-05 1.865485e-06 1.825867e-07
5.482290e-06 1.404990e-05 -1.825867e-07
-3.493936e-06 1.440192e-05 -8.651973e-08
7.094242e-06 1.330874e-05 -1.826536e-07
-4.542548e-06 1.438408e-05 1.813585e-07
1.395231e-05 4.936910e-06 1.477589e-09
1.437863e-05 3.528018e-06 -4.501628e-08
2.501838e-06 1.499269e-05 -4.898587e-23
-1.349541e-06 1.502459e-05 -1.810042e-07
1.465683e-05 -2.076862e-06 3.587425e-08
-4.690907e-06 1.405216e-05 7.463106e-08
5.598037e-06 -1.371619e-05 -7.497601e-08
5.946753e-06 -1.385591e-05 -1.841081e-07
1.366224e-05 6.401390e-06 -1.798140e-07
1.341439e-05 6.858347e-06 -1.888154e-07
1.320608e-05 7.048997e-06 -1.976761e-07
1.484558e-05 -5.957312e-07 -1.403678e-07
4.266577e-06 1.444770e-05 1.893064e-07
2.253607e-06 1.503201e-05 -4.898587e-23
3.993134e-06 1.442999e-05 1.980727e-07
4.802175e-06 1.428017e-05 1.887971e-07
5.004773e-06 1.410648e-05 1.974205e-07
1.115415e-05 -1.013282e-05 -1.875453e-07
1.081790e-05 -1.048703e-05 -1.885602e-07
1.055846e-05 -1.061127e-05 -1.976304e-07
1.269711e-05 8.108822e-06 -1.889680e-07
1.275063e-05 7.842342e-06 -1.976343e-07
2.878731e-06 1.478795e-05 1.889565e-07
3.108469e-06 1.464300e-05 1.976306e-07
2.004761e-06 1.506721e-05 -4.898587e-23
9.729760e-06 -1.152021e-05 -1.836343e-07
9.907435e-06 -1.119391e-05 -1.932841e-07
-1.506188e-05 -8.783416e-07 -1.798592e-07
-1.502564e-05 -1.370224e-06 -1.796050e-07
-1.493092e-05 -1.638276e-06 -1.989440e-07
1.182958e-05 -9.365396e-06 -1.795706e-07
1.194060e-05 -9.094450e-06 -1.997713e-07
1.151346e-05 -9.751401e-06 -1.795706e-07
1.129119e-05 -9.888333e-06 -1.997973e-07
1.438388e-05 4.561890e-06 -1.786246e-07
1.755366e-06 1.509830e-05 -4.898587e-23
1.434515e-05 4.234066e-06 -1.953138e-07
6.564154e-06 1.353426e-05 1.955224e-07
-1.387607e-05 5.152029e-06 2.560345e-08
-1.590204e-06 -1.471575e-05 -2.381262e-08
7.992624e-08 1.508990e-05 -1.785516e-07
8.916966e-06 1.203561e-05 1.988867e-07
2.362372e-06 1.490320e-05 1.789709e-07
1.475803e-05 1.138208e-06 -2.722104e-08
1.500570e-05 1.618985e-06 -1.771731e-07
6.388994e-06 -1.365410e-05 -1.854298e-07
1.505492e-06 1.512526e-05 -4.898587e-23
4.759339e-06 -1.420323e-05 1.989380e-07
7.681671e-06 1.286104e-05 1.990439e-07
3.331423e-06 -1.460534e-05 1.990440e-07
-7.656121e-06 1.287504e-05 -1.989381e-07
-8.715193e-06 -1.218312e-05 1.989381e-07
-4.733688e-06 -1.421180e-05 1.989381e-07
-8.915437e-06 1.203736e-05 -1.989381e-07
-9.308558e-06 -1.173600e-05 1.989381e-07
-1.058248e-05 1.060160e-05 -1.989381e-07
-1.404751e-05 -5.200989e-06 1.989381e-07
1.255206e-06 1.514808e-05 -4.898587e-23
-1.246461e-05 8.307613e-06 -1.989381e-07
-1.435282e-05 4.287128e-06 -1.989381e-07
2.574277e-06 -1.475656e-05 1.989381e-07
-8.307613e-06 1.246461e-05 -1.989381e-07
-8.077628e-06 -1.261487e-05 1.989381e-07
4.023191e-06 -1.442903e-05 1.989381e-07
8.285089e-06 1.247959e-05 1.989381e-07
-1.349399e-05 6.082875e-06 -2.571239e-08
-1.340231e-05 -6.281234e-06 2.200541e-08
-5.840076e-07 -1.479013e-05 2.571239e-08
1.004577e-06 1.516677e-05 -4.898587e-23
-1.437733e-05 -3.516710e-06 2.163318e-08
5.285117e-06 1.412841e-05 1.812373e-07
5.717692e-06 1.396675e-05 1.776934e-07
-1.494298e-05 2.114098e-06 -1.776934e-07
1.377108e-05 6.176810e-06 -1.771130e-07
1.387139e-05 5.948301e-06 -1.770795e-07
-1.490705e-05 -2.361045e-06 -1.771312e-07
-1.129992e-06 1.505154e-05 -1.765856e-07
1.505699e-05 8.723441e-07 1.823077e-07
-4.067437e-06 1.451154e-05 1.870514e-07
7.536731e-07 1.518130e-05 -4.898587e-23
1.219576e-05 -8.385611e-06 -1.427353e-08
1.374827e-05 6.153412e-06 1.899775e-07
6.484159e-06 1.330398e-05 -1.067897e-09
6.715599e-06 1.319688e-05 -5.362045e-08
1.213767e-05 -8.967398e-06 -1.781154e-07
-1.480589e-05 -3.915727e-07 -6.561744e-08
1.464819e-05 2.134619e-06 -3.396447e-08
9.510661e-06 1.136146e-05 8.007313e-08
1.507836e-05 -2.109524e-07 -1.833735e-07
-1.506889e-05 -6.270050e-07 1.824478e-07
5.025632e-07 1.519169e-05 -4.898587e-23
1.027887e-05 1.101023e-05 -1.899690e-07
1.458320e-05 2.540783e-06 -3.385659e-08
1.056101e-05 1.070733e-05 -1.960925e-07
1.474917e-05 1.881493e-06 -1.508629e-07
-2.835781e-06 1.479808e-05 -1.883204e-07
5.442439e-06 -1.407715e-05 -1.772777e-07
-5.084226e-06 1.421038e-05 1.773137e-07
1.377230e-05 -6.170497e-06 -1.778796e-07
-1.496269e-05 -1.929063e-06 -1.803138e-07
1.060939e-06 1.499516e-05 1.973179e-07
2.513160e-07 1.519792e-05 -4.898587e-23
7.848641e-07 1.501863e-05 1.961362e-07
7.897318e-06 -1.251708e-05 8.222949e-09
3.328184e-06 1.471756e-05 1.790176e-07
1.049170e-05 -1.084485e-05 -1.789633e-07
1.296302e-05 7.723029e-06 -1.789871e-07
1.472744e-05 3.316621e-06 1.753029e-07
6.873326e-06 -1.339446e-05 1.922789e-07
7.499263e-06 -1.275954e-05 7.992968e-09
1.508003e-05 6.353548e-07 -1.768468e-07
-1.486924e-05 -2.604191e-06 -1.756906e-07
-5.307052e-20 1.520000e-05 -4.898587e-23
-1.475815e-05 1.139816e-06 -2.888066e-08
-1.443379e-05 3.279944e-06 2.654481e-08
-1.450340e-05 3.011347e-06 -7.021153e-08
1.482131e-05 -2.854679e-06 -1.766814e-07
1.262493e-05 -7.764687e-06 -9.035954e-08
3.840638e-06 1.459415e-05 1.780717e-07
1.321170e-05 7.291464e-06 -1.784990e-07
1.011886e-05 -1.119887e-05 -1.769309e-07
-5.842221e-06 1.360351e-05 -4.431316e-08
-6.714006e-06 1.319510e-05 -4.450004e-08
-2.513160e-07 1.519792e-05 -4.898587e-23
-6.944018e-06 -1.307510e-05 4.285699e-08
-9.941279e-06 -1.097035e-05 4.285699e-08
1.581696e-06 -1.471991e-05 4.285699e-08
-7.534181e-08 -1.480428e-05 4.206415e-08
-5.828772e-06 -1.360893e-05 4.285699e-08
-1.316959e-05 -6.763012e-06 4.269648e-08
-1.113322e-05 -9.758537e-06 4.285699e-08
-9.748245e-06 1.114232e-05 -4.318003e-08
-1.175369e-05 9.002083e-06 -4.425640e-08
-1.424417e-05 -4.034366e-06 4.206415e-08
-5.025632e-07 1.519169e-05 -4.898587e-23
-1.327961e-05 6.544342e-06 -4.269648e-08
-1.204501e-05 -8.607858e-06 4.285699e-08
-2.308068e-06 -1.462398e-05 4.441262e-08
-3.746642e-06 -1.432272e-05 4.285699e-08
1.336881e-05 -6.883354e-06 1.965842e-07
6.495286e-06 -1.357121e-05 1.947596e-07
1.009164e-05 1.084478e-05 -7.315893e-08
1.022910e-05 1.071232e-05 6.759392e-08
1.456856e-05 2.797558e-06 -1.126317e-07
1.254290e-05 -8.344999e-06 1.890396e-07
-7.536731e-07 1.518130e-05 -4.898587e-23
1.453109e-05 4.076412e-06 -1.775618e-07
1.492564e-05 -2.127150e-06 -1.848084e-07
-1.491779e-05 2.306321e-06 -1.759896e-07
5.895727e-06 1.389614e-05 1.759382e-07
-1.470091e-05 -3.373492e-06 1.819580e-07
6.168674e-06 -1.375294e-05 1.861926e-07
1.486842e-05 1.430816e-06 -1.898526e-07
8.702485e-06 -1.229262e-05 1.903839e-07
-1.482419e-05 2.859583e-06 -1.746396e-07
3.034410e-08 1.509432e-05 1.763452e-07
-1.004577e-06 1.516677e-05 -4.898587e-23
-1.281520e-05 -7.410600e-06 3.775334e-08
-1.126769e-05 9.603901e-06 -4.556753e-08
-1.293971e-05 7.194419e-06 -4.556753e-08
8.832225e-06 1.217019e-05 -1.964833e-07
9.038824e-06 1.200030e-05 -1.986067e-07
8.438376e-06 1.244653e-05 -1.964792e-07
8.207943e-06 1.258383e-05 -1.985445e-07
-5.574317e-06 1.396600e-05 1.964790e-07
-5.810850e-06 1.385168e-05 1.988782e-07
4.639112e-06 -1.430388e-05 -1.964789e-07
-1.255206e-06 1.514808e-05 -4.898587e-23
4.888985e-06 -1.420636e-05 -1.985459e-07
[...]
POINT_DATA 2819
VECTORS 10.000GHz_fone_imag double
9.881592e+11 -3.641923e+11 -1.635685e+10
7.072354e+11 -7.667188e+11 -2.714535e+10
5.358709e+10 1.057088e+12 2.576851e+10
5.583264e+10 1.013523e+12 -4.619935e+10
-3.811945e+11 -9.584689e+11 -8.475404e+08
-3.263044e+11 -9.084308e+11 -5.766566e+08
1.071762e+12 1.954938e+11 4.926768e+09
-2.447771e+11 -1.016234e+12 2.436481e+09
-7.715333e+11 -5.993755e+11 -2.149965e+10
1.023643e+12 -8.848441e+10 1.776165e+09
-4.651903e+09 -9.510798e+11 -3.123350e+10
1.027765e+12 -2.195460e+11 5.759820e+09
6.397411e+11 -8.583278e+11 -4.364302e+10
-6.102737e+11 -8.307108e+11 1.544418e+09
-3.405844e+11 -9.074978e+11 -3.916123e+10
3.877811e+11 8.750628e+11 3.231080e+09
-9.461322e+11 3.790329e+10 1.278048e+10
1.218680e+11 9.963107e+11 2.124876e+10
9.442838e+11 -3.809578e+11 -3.774082e+10
8.046819e+11 -6.369361e+11 -4.441708e+10
1.619420e+10 -9.211030e+11 4.594307e+08
3.738721e+11 -9.152645e+11 -3.145501e+09
1.028933e+12 -2.591410e+11 3.738488e+10
3.807017e+11 -8.736977e+11 -5.551889e+10
-8.156975e+11 -5.016488e+11 -9.110193e+08
6.841609e+11 -7.605970e+11 4.377814e+10
-8.992783e+11 4.223685e+11 -1.809306e+10
-5.414484e+11 8.308820e+11 -1.722678e+10
5.596391e+11 7.636046e+11 -3.135094e+10
7.349563e+11 6.455833e+11 -2.422343e+10
-9.622104e+11 1.858402e+11 -1.248204e+10
-6.045192e+11 7.557026e+11 -1.745409e+10
-9.437654e+11 2.764744e+11 -2.140335e+10
1.013521e+12 -2.624613e+11 -2.147874e+10
-7.209160e+11 6.197556e+11 1.941334e+10
-9.620697e+11 -1.244171e+11 2.215153e+10
-8.725842e+11 4.306286e+11 1.698424e+10
8.400590e+11 4.326985e+11 -1.923463e+10
9.422017e+11 3.650340e+11 1.762750e+10
1.000604e+12 2.255589e+11 -3.116930e+09
6.493916e+11 -8.669505e+11 -3.291375e+10
-2.794557e+11 -9.707963e+11 1.586540e+09
-1.152531e+11 -1.014747e+12 1.465676e+10
-1.142819e+11 9.505206e+11 -3.029473e+10
1.006315e+12 -2.532093e+11 -2.417089e+10
2.084218e+11 1.013422e+12 -2.201152e+10
1.000111e+12 1.363066e+11 -2.593905e+10
1.038330e+12 1.426989e+11 4.165113e+08
-8.710947e+11 -5.960369e+11 3.459861e+10
-1.005620e+12 1.050571e+11 -4.340773e+10
3.753331e+11 9.475741e+11 -3.222824e+10
-4.653832e+11 -9.069804e+11 -3.109556e+10
-9.030060e+11 -4.411755e+11 3.648150e+09
-4.781180e+11 -8.645695e+11 -1.375974e+10
-7.649407e+11 -5.800097e+11 -3.626464e+10
1.033323e+12 -1.633905e+11 3.326927e+10
5.519555e+11 -7.903435e+11 1.903881e+10
9.824633e+11 -1.573038e+11 2.230129e+10
2.195107e+11 -9.027213e+11 -2.348939e+10
4.957971e+10 1.037740e+12 3.015636e+10
-2.657238e+11 -9.646924e+11 1.726324e+10
1.031675e+12 -1.683922e+10 -1.023213e+10
-1.741953e+11 -9.956351e+11 5.555626e+10
7.187068e+11 -7.241681e+11 -2.165356e+10
-6.688540e+11 -7.640677e+11 -3.315496e+10
-5.567095e+11 -8.648459e+11 -3.778744e+10
1.050161e+12 -1.840240e+11 2.353669e+10
-8.611697e+11 -6.041931e+11 2.153253e+10
2.746402e+11 -9.670522e+11 -3.862948e+10
3.245079e+11 -9.201442e+11 9.826678e+09
9.793953e+10 9.787231e+11 -3.080220e+10
9.229427e+11 -3.344844e+11 3.086833e+10
9.924828e+11 2.517360e+11 -1.961928e+10
8.861141e+11 -4.702328e+11 -3.490219e+10
9.781025e+11 3.017988e+11 6.655203e+09
3.190692e+11 -9.323711e+11 3.647092e+10
2.082665e+11 -9.461745e+11 2.853715e+10
1.017420e+12 -1.954408e+11 3.437276e+09
1.025196e+12 7.404930e+10 -3.238685e+10
-1.402607e+11 -9.567616e+11 -2.832507e+10
9.635738e+11 3.276522e+11 2.205039e+10
-9.576271e+11 -3.839586e+11 2.449205e+10
-9.422543e+11 -4.034095e+11 1.206303e+10
4.109107e+11 -9.056284e+11 -4.180962e+10
4.609005e+11 -9.595839e+11 4.644550e+10
4.790857e+11 -9.408971e+11 -3.836853e+10
-4.580188e+10 -1.041496e+12 -8.356539e+09
1.014436e+12 -3.302683e+11 -5.346701e+10
1.002468e+12 -1.210785e+11 -9.189551e+08
9.936075e+11 -3.007750e+11 1.839788e+10
1.018722e+12 -3.146627e+11 4.052211e+10
9.874627e+11 -3.298883e+11 -1.219119e+10
-6.501500e+11 -7.661640e+11 2.579200e+10
-7.241473e+11 -7.833116e+11 -4.908081e+10
-7.268279e+11 -7.595246e+11 2.605014e+10
6.053073e+11 -8.808214e+11 -4.010413e+10
5.745009e+11 -8.776196e+11 4.102607e+10
1.046828e+12 -1.686392e+11 4.020333e+10
1.029229e+12 -1.926558e+11 -3.213686e+10
9.698981e+11 -1.423398e+11 -4.342048e+09
-8.383309e+11 -6.655256e+11 5.254854e+09
-7.978753e+11 -6.973801e+11 -6.729982e+09
-6.643459e+10 1.040775e+12 -3.586829e+10
-9.906099e+10 9.939446e+11 4.016054e+09
-1.135564e+11 9.848799e+11 -1.673627e+10
-5.998596e+11 -7.845936e+11 6.255975e+06
-6.199107e+11 -8.091435e+11 6.314717e+08
-6.591715e+11 -7.332744e+11 -2.871655e+10
-6.679353e+11 -7.385164e+11 -1.172713e+10
3.154212e+11 -9.460661e+11 -2.277283e+10
9.985556e+11 -8.444496e+10 1.681205e+10
3.091133e+11 -9.096570e+11 2.817817e+10
9.292433e+11 -4.519176e+11 1.576454e+10
3.403366e+11 9.455616e+11 -1.927341e+10
-9.797140e+11 1.120679e+11 -6.229417e+09
9.435594e+11 -8.061221e+09 2.378491e+10
7.576720e+11 -5.649964e+11 2.860669e+10
9.930926e+11 -1.380720e+11 -5.083528e+10
5.661561e+10 -1.055054e+12 6.668698e+08
1.080133e+11 -1.014333e+12 -1.709546e+10
-9.335675e+11 -4.280018e+11 -3.715320e+08
1.011232e+12 -1.239259e+11 -1.896250e+10
-9.076275e+11 -3.063315e+11 -1.744925e+10
8.102337e+11 -4.891806e+11 9.344282e+09
-9.181577e+11 -2.120130e+11 -2.705429e+10
8.081479e+11 4.791089e+11 -7.476850e+09
-7.506135e+11 5.429474e+11 3.044023e+10
-8.814724e+11 2.853000e+11 -1.574274e+10
7.553425e+11 5.641907e+11 2.695293e+10
-7.300304e+11 5.945126e+11 3.292036e+10
6.535310e+11 6.564915e+11 -1.653808e+10
-3.271952e+11 8.823994e+11 1.803862e+10
1.013332e+12 -4.938981e+10 -4.322203e+08
5.230454e+11 7.724954e+11 -8.540918e+09
2.751864e+11 8.903101e+11 -2.931075e+10
-9.398729e+11 -1.563619e+11 1.837508e+10
7.692509e+11 5.065320e+11 2.455297e+10
-7.816087e+11 5.028000e+11 -1.199416e+10
-8.860014e+11 -2.366775e+11 2.882261e+10
7.625807e+11 -5.027699e+11 -1.438009e+10
4.274433e+11 9.069787e+11 5.626012e+09
-4.389670e+11 9.099695e+11 7.165589e+09
-9.992373e+11 3.021940e+10 2.573438e+10
1.057191e+12 -8.110768e+10 1.477771e+10
-2.506259e+11 9.739943e+11 -5.346888e+09
9.695018e+11 -3.880651e+11 -4.958287e+09
9.226390e+11 -3.770281e+11 2.623563e+10
1.311327e+11 9.830983e+11 -2.034266e+10
3.977577e+11 -8.719749e+11 8.090403e+08
3.829854e+11 -9.014379e+11 3.503237e+10
-1.776697e+11 1.005969e+12 4.011035e+10
9.625081e+11 7.125847e+10 -9.440570e+09
-3.111402e+10 -1.017437e+12 9.561152e+09
9.727233e+11 2.641429e+11 -8.514430e+09
1.016946e+12 -8.443019e+10 -1.345029e+10
-5.815928e+11 -8.692045e+11 1.521461e+10
3.932480e+11 -8.872104e+11 1.463671e+10
9.196321e+11 -4.590878e+11 -3.597568e+08
8.983438e+11 -4.630028e+11 5.633379e+10
-6.318263e+11 -7.998736e+11 2.376961e+10
-2.763899e+10 1.027585e+12 2.828868e+10
1.502403e+11 -9.796033e+11 -2.898558e+08
7.765017e+11 -6.284144e+11 -5.222814e+10
-5.367469e+10 -8.979212e+11 1.809206e+10
-9.427587e+10 9.786414e+11 2.669213e+10
1.014111e+12 1.702762e+09 -2.869752e+10
7.347421e+11 -7.009122e+11 -2.216210e+09
1.650450e+11 -1.056215e+12 -5.539408e+09
7.220407e+11 -7.008949e+11 1.335980e+10
1.293730e+11 -1.030378e+12 1.276275e+10
9.995989e+11 2.057517e+11 3.813316e+09
-9.410800e+11 -3.647545e+11 -4.179583e+10
9.597729e+11 3.477973e+11 -5.824244e+10
-4.285481e+11 -9.005151e+11 1.378573e+09
-1.095213e+11 9.546242e+11 2.840094e+10
1.037439e+12 -7.196358e+10 3.151148e+10
1.028820e+12 -3.471450e+10 1.576596e+10
1.029731e+12 -6.272946e+10 -8.461363e+09
-8.215201e+11 -5.128275e+11 1.282142e+10
1.034078e+12 -2.641367e+11 -3.335248e+10
-7.875961e+11 -7.200457e+11 3.484908e+10
5.380433e+11 -9.406068e+11 4.742260e+10
2.413496e+11 -9.070773e+11 1.628184e+10
-9.091187e+11 -4.491915e+11 5.647605e+09
-8.713166e+11 -5.174697e+11 -5.997007e+09
5.277488e+10 -1.018017e+12 -5.029867e+09
-1.428025e+11 9.510539e+11 -8.762412e+09
9.384760e+11 -3.855699e+09 1.756056e+09
6.175961e+10 9.864023e+11 -3.599252e+10
2.368827e+11 1.002377e+12 1.580789e+09
2.035852e+11 9.858214e+11 -8.551929e+09
-1.469836e+11 -1.060313e+12 -6.476471e+10
-5.286970e+11 -9.223527e+11 -4.419134e+10
1.034340e+12 -2.341914e+11 2.917038e+10
5.501553e+11 -9.296740e+11 -3.257976e+10
-7.858969e+11 -7.351732e+11 -4.394637e+10
9.173608e+11 3.569054e+11 3.901929e+09
8.814000e+11 4.889674e+11 3.467824e+09
9.947099e+11 6.558183e+10 2.126469e+10
-8.949472e+11 4.371499e+11 7.656599e+09
-7.462627e+11 6.372857e+11 -3.457036e+09
-9.948163e+11 -1.301335e+11 -6.422487e+09
-1.042943e+12 4.834093e+10 -2.673855e+10
-8.903324e+11 4.153658e+11 3.775475e+09
-4.342611e+11 9.441686e+11 -3.479250e+10
-6.205566e+11 7.504325e+11 9.956156e+08
7.272470e+11 6.709743e+11 1.005836e+10
5.810776e+11 8.185686e+11 2.437103e+10
-2.345927e+11 9.977847e+11 -3.396325e+10
1.049995e+12 7.372057e+09 -1.844917e+10
4.171273e+11 9.534361e+11 -3.614751e+10
-5.479656e+11 8.159295e+11 3.879211e+09
-9.890865e+11 1.779531e+11 4.330844e+09
-9.448639e+11 2.777173e+11 4.816683e+09
-4.534025e+11 -9.184643e+11 -1.730003e+10
-8.996432e+11 -4.495202e+11 -1.038803e+10
7.392971e+11 -6.935747e+11 -7.421389e+09
7.172109e+11 -7.121423e+11 -1.358812e+10
1.871270e+11 -1.013463e+12 -7.549537e+09
-5.493349e+11 -8.464035e+11 -2.382556e+10
1.023583e+12 1.817670e+10 2.406376e+10
2.366618e+11 -1.014890e+12 4.043400e+10
-1.353436e+11 -9.751161e+11 -5.874131e+09
1.507043e+11 9.837758e+11 6.919532e+10
9.071406e+11 -3.889794e+11 -6.553446e+10
-1.803202e+11 1.011599e+12 -4.028961e+10
-9.493645e+11 -4.096230e+11 3.981016e+09
1.475159e+11 -9.871717e+11 -1.019018e+10
-8.305179e+11 -5.959662e+11 4.446683e+09
1.685475e+11 9.812842e+11 -3.117045e+10
9.671080e+11 -1.891191e+10 -6.475850e+09
9.823051e+11 6.791187e+10 -2.088297e+09
-4.769965e+11 8.959321e+11 -3.944084e+10
6.382219e+11 8.013982e+11 -3.031493e+10
4.663239e+11 9.129679e+11 -3.596515e+10
8.028933e+11 -5.395839e+11 8.411841e+08
7.588894e+11 -6.038841e+11 3.668811e+09
7.657005e+11 -5.498595e+11 -1.544562e+10
8.091879e+11 -5.091755e+11 6.910154e+09
9.219966e+11 3.533434e+11 -1.061466e+10
8.580464e+11 3.750396e+11 -7.311714e+09
-9.248729e+11 -2.751132e+11 -5.882402e+09
9.963125e+11 8.519223e+10 -7.728032e+09
-9.230244e+11 -3.385553e+11 -1.501857e+10
-9.165153e+11 -2.956871e+11 1.447684e+10
-9.279822e+11 -2.382489e+11 -2.422676e+09
8.583169e+11 -4.688115e+11 4.700276e+09
8.281897e+11 -5.213330e+11 1.150107e+10
-9.506916e+11 -1.715085e+11 -3.699138e+08
-9.405447e+11 -2.408783e+11 -7.957411e+09
-9.386990e+11 -1.974200e+11 1.256926e+10
-9.705593e+11 -1.304372e+11 1.500694e+10
-9.193368e+11 2.938971e+11 -7.215041e+08
1.033117e+12 1.336098e+11 2.174410e+10
-9.411675e+11 3.921202e+11 1.103837e+10
-7.861526e+11 5.226850e+11 1.388047e+10
-7.705673e+11 5.948543e+11 3.912490e+09
8.110307e+11 5.241420e+11 -8.634297e+09
8.588967e+11 4.956594e+11 -1.062181e+10
-9.064615e+11 4.357221e+11 1.956721e+10
-8.436842e+11 3.724776e+11 1.300389e+10
8.175168e+11 5.011686e+11 1.248580e+10
7.849978e+11 5.508191e+11 -1.387275e+10
3.383343e+11 9.536610e+11 -3.068083e+09
1.044233e+12 1.270793e+11 1.050759e+10
3.631728e+11 9.350247e+11 -1.994662e+10
-1.041043e+12 -5.033455e+10 -1.471860e+10
-1.006307e+12 -1.705656e+10 6.979731e+09
-6.992709e+11 7.508802e+11 -7.335435e+08
-6.624904e+11 7.613279e+11 1.719721e+10
7.957318e+11 6.402057e+11 -1.758419e+09
7.592170e+11 6.490315e+11 2.154777e+10
-8.018038e+11 5.076093e+11 2.056790e+09
-7.797447e+11 5.657198e+11 -4.660629e+07
-9.482929e+11 3.742599e+11 8.298314e+09
1.033711e+12 1.098775e+11 -2.848448e+10
-9.462329e+11 3.980195e+11 2.883161e+10
-9.423418e+11 1.698440e+11 -2.886035e+09
-9.411516e+11 1.351954e+11 1.727889e+10
-3.843699e+11 9.025999e+11 -1.945420e+09
-4.039359e+11 8.576586e+11 5.137363e+09
6.996953e+11 6.587144e+11 1.302224e+10
6.523052e+11 7.303927e+11 7.167256e+08
-6.236493e+11 7.495204e+11 1.611949e+09
-6.250759e+11 6.994057e+11 1.059955e+10
-7.208093e+11 7.236271e+11 1.319666e+10
1.016641e+12 1.520684e+11 -1.234025e+10
-7.390236e+11 6.850080e+11 -1.500210e+10
7.737082e+11 5.983034e+11 9.145751e+09
8.151549e+11 5.461585e+11 9.230487e+09
-3.320568e+11 9.413818e+11 2.291431e+10
-3.869069e+11 8.965731e+11 4.149795e+08
-5.509311e+11 8.579120e+11 -2.215193e+08
-5.141099e+11 8.627759e+11 2.686689e+10
5.733260e+11 7.658739e+11 2.243964e+09
6.038681e+11 7.537349e+11 7.436452e+09
-9.707759e+11 -1.320457e+11 7.136164e+08
9.906779e+11 1.729354e+11 -3.405174e+10
-9.394019e+11 -7.865865e+10 -9.596100e+08
-8.832406e+11 4.214046e+11 8.714643e+09
-8.273024e+11 4.479896e+11 -5.441034e+09
-6.762754e+11 8.439330e+11 -1.545844e+10
-5.978768e+11 8.177182e+11 1.625090e+10
-8.747822e+11 5.331049e+11 2.058329e+10
-8.777315e+11 4.927165e+11 -1.759898e+10
7.284093e+11 6.748194e+11 1.159917e+10
7.273437e+11 6.263213e+11 1.641901e+10
5.713842e+11 9.170465e+11 -1.556796e+10
1.054680e+12 2.114041e+11 4.654345e+10
5.029091e+11 8.540750e+11 1.915044e+10
-1.008332e+12 -7.350009e+10 -9.153341e+08
-1.004499e+12 -1.019266e+11 -6.693472e+09
-7.725994e+11 5.728212e+11 1.707286e+10
-7.338511e+11 6.390450e+11 1.546716e+10
-3.043217e+11 9.613138e+11 -1.472398e+09
-2.797477e+11 9.804083e+11 3.772778e+10
5.054493e+11 8.041709e+11 -2.115014e+10
5.801023e+11 8.031612e+11 -4.747609e+09
6.987237e+11 7.557144e+11 7.023168e+09
1.000145e+12 1.998250e+11 -1.621532e+10
6.550217e+11 7.603266e+11 2.025323e+10
-5.547095e+11 8.513169e+11 1.484849e+10
-5.349680e+11 7.581541e+11 1.108465e+10
-7.453556e+11 6.341968e+11 6.167778e+08
-6.840630e+11 6.291742e+11 -1.257760e+10
2.537433e+11 9.122634e+11 -2.101052e+10
3.267493e+11 9.332465e+11 -1.323794e+10
2.739591e+11 1.038010e+12 4.281421e+10
-1.013522e+12 2.152472e+11 -1.532390e+10
-9.805701e+11 2.486622e+11 1.385701e+10
9.861899e+11 2.051600e+11 3.336163e+10
-9.556045e+11 2.990244e+11 1.586942e+10
-8.924601e+11 2.427146e+11 1.116108e+10
8.412974e+11 4.562625e+11 -1.034766e+10
8.707035e+11 4.262347e+11 1.893738e+10
1.026661e+12 -6.367700e+10 3.745135e+09
7.908960e+11 -5.970537e+11 -3.305830e+08
7.310684e+11 -6.151622e+11 -1.678782e+10
-1.260125e+11 -9.894980e+11 4.232012e+10
9.200355e+11 -1.752345e+11 -4.357195e+10
9.880752e+11 3.016299e+11 6.720026e+09
9.839048e+11 2.323714e+11 -4.759457e+10
9.641962e+11 2.641882e+11 -2.121670e+10
9.822630e+11 2.488652e+11 3.896762e+10
8.944772e+11 4.325060e+11 3.435030e+10
8.882469e+11 4.113071e+11 5.574227e+09
-1.015706e+12 -2.785519e+09 1.190612e+10
-1.005083e+12 1.918353e+10 2.983055e+10
-4.754073e+11 8.987057e+11 5.355155e+09
-4.542671e+11 9.015948e+11 2.060968e+10
-2.839098e+11 9.902374e+11 1.470229e+09
-2.799950e+11 9.661437e+11 1.696352e+10
9.974911e+11 2.560700e+11 3.462453e+10
-9.829119e+11 1.410806e+11 8.329483e+09
-9.515861e+11 1.151252e+11 -4.395610e+09
-5.115345e+11 9.090644e+11 3.565813e+10
-4.980275e+11 8.511834e+11 2.518703e+10
6.440312e+11 7.833978e+11 3.586522e+10
6.359890e+11 7.461274e+11 2.876730e+10
4.634261e+11 9.216349e+11 4.692510e+09
4.605485e+11 8.918313e+11 3.722253e+10
4.900319e+11 9.169050e+11 2.813858e+10
4.829467e+11 8.603381e+11 2.801141e+10
9.710135e+11 2.466271e+11 -6.116164e+09
-9.884018e+11 8.596084e+10 7.434066e+09
-9.757471e+11 7.447209e+10 1.461996e+10
3.538636e+11 9.014523e+11 1.584561e+10
3.742474e+11 9.015666e+11 2.017418e+10
-2.079940e+11 1.001167e+12 5.116575e+10
-1.018655e+12 -6.382252e+10 2.425967e+09
-9.514402e+11 3.522958e+11 5.946734e+09
-5.084439e+11 9.026663e+11 -2.062896e+10
7.650492e+11 6.247771e+11 3.763786e+09
-3.227423e+11 9.631448e+11 2.813622e+10
9.888472e+11 3.041520e+11 3.285510e+09
-1.022432e+12 -4.547568e+10 -4.782078e+09
4.832544e+11 9.085487e+11 -5.703852e+09
6.478837e+11 7.835756e+11 -6.027380e+09
-6.947196e+11 7.226835e+11 3.819560e+09
-6.328470e+11 7.938618e+11 -1.551076e+09
-7.130836e+11 7.038458e+11 -6.844496e+09
-1.009458e+12 1.259411e+11 -3.112319e+10
-8.743017e+11 5.209894e+11 1.542168e+10
-9.842352e+11 2.097656e+11 5.582664e+09
9.125620e+11 4.210143e+11 -1.881427e+10
1.001927e+12 2.876698e+11 -1.150541e+10
8.802492e+11 4.260337e+11 6.759899e+09
-1.295961e+11 -1.035262e+12 -5.817591e+09
7.241034e+11 -7.067172e+11 2.395838e+10
-3.377377e+11 -9.666998e+11 -7.056109e+09
-8.789551e+11 4.161867e+11 -7.596336e+09
8.063816e+11 -5.537024e+11 2.181516e+10
8.077685e+11 -5.528681e+11 2.888387e+10
9.924478e+11 5.665802e+10 5.006183e+10
-9.548074e+11 -2.679906e+11 -3.469806e+10
8.576897e+11 -5.004641e+11 3.430687e+10
9.889473e+11 3.136089e+11 5.617320e+10
-9.570248e+11 -1.824165e+11 -2.814780e+10
8.281937e+11 5.457324e+11 -3.094079e+10
-8.067781e+11 5.305839e+11 2.377413e+10
-9.201320e+11 3.166816e+11 -2.720448e+10
-7.727641e+11 6.009911e+11 3.770697e+10
7.955257e+11 5.782531e+11 3.490789e+10
-3.467161e+11 9.180031e+11 3.895067e+10
6.835509e+11 6.943866e+11 -3.019628e+10
5.303601e+11 8.092309e+11 -2.810589e+10
2.720915e+11 9.297585e+11 -3.469836e+10
9.497063e+11 3.239889e+11 -3.721273e+10
-7.971535e+11 5.593029e+11 -2.828335e+10
8.286738e+11 5.016990e+11 3.278484e+10
-9.493463e+11 -2.092962e+11 3.623492e+10
-9.151435e+11 -2.954797e+11 2.963524e+10
7.722422e+11 -5.631242e+11 -2.732353e+10
7.659520e+11 -6.316400e+11 -6.156078e+09
-9.380203e+11 -2.816715e+11 -1.803390e+10
8.655387e+11 -4.893490e+11 1.827593e+10
-9.585685e+11 -1.827649e+11 -2.142709e+10
8.228563e+11 5.294605e+11 -1.893818e+10
9.401780e+11 3.556351e+11 -2.598721e+10
-8.002578e+11 5.252602e+11 9.161992e+09
8.104809e+11 5.679000e+11 2.259637e+10
-9.375648e+11 3.424214e+11 -2.212202e+10
-9.106768e+11 3.366424e+11 -3.038883e+10
-3.700633e+11 9.218989e+11 2.147657e+10
-7.950109e+11 5.941543e+11 1.393079e+10
5.108285e+11 8.179743e+11 -1.845282e+10
5.020126e+11 8.417519e+11 -1.238452e+10
6.836106e+11 7.246551e+11 -2.401135e+10
6.649550e+11 7.126305e+11 -3.132112e+10
9.153829e+11 3.516504e+11 -2.010029e+09
2.500659e+11 9.416240e+11 -1.830263e+10
2.379011e+11 9.568069e+11 -1.187058e+10
-8.017341e+11 5.550867e+11 -2.043283e+10
8.176285e+11 4.954115e+11 1.525830e+10
-9.489299e+11 -2.037868e+11 1.329292e+10
-9.251791e+11 -2.974497e+11 1.979733e+10
7.693075e+11 -5.546597e+11 -9.786685e+09
9.810582e+11 1.990980e+11 4.089025e+09
-9.260750e+11 -3.609863e+11 1.801595e+10
9.536828e+11 3.372313e+11 -1.104669e+10
9.182511e+11 3.389223e+11 1.723891e+10
8.245275e+11 -5.471396e+11 -1.244051e+10
-9.640614e+11 -2.787819e+11 1.332631e+10
8.788686e+11 4.727383e+11 7.135820e+09
-7.790215e+11 5.915519e+11 -3.320433e+10
-8.967958e+11 4.286630e+11 -2.097329e+10
3.073379e+11 9.514470e+11 5.577347e+09
-7.496150e+11 6.182389e+11 8.975439e+09
-8.843533e+11 4.025975e+11 2.147738e+10
-5.511830e+11 8.247002e+11 -8.477043e+09
-5.539101e+11 8.595272e+11 -5.515529e+09
8.904456e+11 3.651035e+11 -1.963229e+10
3.354418e+11 9.355740e+11 8.356998e+09
-7.461383e+11 6.667389e+11 -7.778366e+09
7.366572e+11 6.463804e+11 1.742655e+10
-9.563922e+11 1.901727e+11 -1.234769e+10
7.705347e+11 6.397693e+11 -1.795433e+10
-9.487576e+11 2.571020e+11 1.118835e+10
5.550463e+11 7.942930e+11 -3.917404e+09
-8.812036e+11 5.242659e+11 -2.030111e+09
7.276012e+11 6.879292e+11 -2.870609e+10
7.896104e+11 6.174408e+11 -1.015259e+10
9.078042e+11 4.153885e+11 3.090426e+10
-9.565422e+11 -1.411739e+11 2.035945e+09
6.164079e+11 8.133148e+11 8.713128e+09
-3.809881e+11 8.956111e+11 -1.073870e+10
5.329713e+11 8.948260e+11 1.013148e+10
-3.042671e+11 9.394586e+11 -2.320451e+10
6.861195e+11 7.411822e+11 1.196666e+10
-6.267666e+11 7.685412e+11 -9.459379e+09
-7.014658e+11 7.268111e+11 -3.112512e+09
-7.278979e+11 7.262684e+11 -4.933020e+09
2.519377e+11 1.011830e+12 2.289529e+10
8.804344e+11 4.139104e+11 -2.296011e+09
-1.041681e+12 2.285322e+11 5.613404e+09
-3.362059e+11 9.725399e+11 -1.274889e+10
-6.635455e+11 8.307427e+11 3.579195e+09
-9.546080e+11 3.686935e+11 8.378315e+09
-8.392027e+11 4.768359e+11 8.237630e+09
7.847749e+11 5.619964e+11 -3.068214e+10
-9.979445e+11 -1.157631e+11 -3.649756e+09
8.550594e+11 4.895756e+11 -2.197234e+10
-9.406219e+11 2.835929e+11 -9.556264e+09
-1.043372e+12 -3.752699e+10 8.225727e+09
9.173517e+11 4.219062e+11 2.840052e+10
-9.964612e+11 -5.679117e+10 2.213315e+09
-9.371834e+11 -2.037355e+11 1.577029e+09
8.267363e+11 -4.696098e+11 -6.949087e+09
8.363037e+11 -4.888929e+11 3.826369e+09
-9.553633e+11 -3.829369e+11 3.442206e+09
9.310774e+11 3.576611e+11 2.379330e+10
7.868796e+11 -6.260935e+11 2.283041e+10
1.959125e+11 9.581521e+11 -2.320673e+10
1.032276e+12 -2.998347e+11 3.410290e+09