# vtk DataFile Version 2.0
Electric current density generated by TTH
ASCII
DATASET UNSTRUCTURED_GRID
POINTS 1528 double
8.375760e-06 -2.051469e-21 2.234953e-06
6.934596e-06 -9.289653e-06 7.767446e-07
2.607151e-06 7.031157e-06 -1.613333e-06
-3.132979e-06 6.278176e-06 -7.941612e-07
4.026852e-06 -6.677023e-06 -1.894581e-06
7.008650e-06 -2.463523e-06 1.531586e-06
-9.485079e-06 1.066525e-06 2.406825e-06
9.326417e-06 -6.183006e-06 1.512076e-06
-5.995940e-06 8.019405e-06 2.312069e-06
-1.558211e-06 9.368966e-06 -2.411130e-06
6.479397e-06 9.154457e-06 -1.479455e-06
7.590949e-06 -1.859246e-21 1.710559e-06
-3.794027e-06 8.135718e-06 -2.397216e-06
-8.040463e-06 8.415351e-06 -6.228800e-07
-4.797433e-06 -1.061312e-05 -5.920045e-07
-5.161425e-06 1.038588e-05 7.612299e-07
5.927280e-06 -5.607316e-06 2.132475e-06
-1.458578e-06 -7.758473e-06 -1.967749e-06
-1.160768e-05 2.080041e-07 7.245678e-07
-2.723629e-06 -7.802488e-06 2.185409e-06
-6.573952e-08 -1.083705e-05 -1.869094e-06
9.453408e-06 -4.861205e-06 2.021624e-06
7.066555e-06 -1.730807e-21 9.257478e-07
1.202481e-06 -1.155141e-05 7.107762e-07
7.956053e-06 6.830279e-06 2.109391e-06
8.104960e-06 6.959930e-07 -2.119148e-06
1.124008e-05 7.615219e-07 1.411869e-06
-8.118672e-06 7.742106e-06 1.475620e-06
5.836368e-06 1.004415e-05 -7.013091e-07
8.241269e-06 -4.477710e-06 2.417849e-06
1.147611e-05 -1.686407e-06 -7.562507e-07
-8.260503e-06 -5.406021e-06 -2.350808e-06
8.554867e-06 7.214552e-07 2.310622e-06
6.882412e-06 -1.685705e-21 -1.796675e-20
1.159021e-05 8.760596e-07 -6.792733e-07
-9.409289e-06 9.392545e-07 -2.414154e-06
3.886626e-07 1.010623e-05 -2.278678e-06
-3.467777e-06 -5.980641e-06 -3.852640e-07
8.104543e-06 -6.776424e-07 -2.118065e-06
-9.880105e-07 -1.160828e-05 5.791491e-07
1.151939e-05 1.592218e-06 6.597230e-07
5.062534e-06 -9.852732e-06 1.642786e-06
-2.110185e-06 8.077573e-06 -2.223533e-06
9.053081e-06 3.955445e-06 -2.349040e-06
7.066555e-06 -1.730807e-21 -9.257478e-07
7.425838e-06 -8.097163e-06 -1.735575e-06
4.643032e-06 -5.129784e-06 4.190887e-07
5.671289e-06 -6.799587e-06 -2.377392e-06
3.190101e-07 -9.577378e-06 -2.402698e-06
8.042593e-06 -2.158825e-06 -2.214256e-06
2.937222e-06 8.717769e-06 -2.416935e-06
1.029206e-05 2.824687e-06 1.992990e-06
-1.002943e-05 4.819758e-06 1.586843e-06
-8.879972e-06 6.438486e-06 1.753042e-06
-1.088964e-05 -4.046987e-06 -6.992863e-07
7.590949e-06 -1.859246e-21 -1.710559e-06
-9.587171e-06 -2.573595e-06 -2.336941e-06
6.311354e-06 9.752019e-06 7.031567e-07
-1.254259e-06 -1.008148e-05 -2.261943e-06
3.457784e-06 6.227314e-06 1.051519e-06
6.940469e-06 -5.678462e-06 2.395918e-06
-7.663013e-06 -8.711934e-06 -7.464234e-07
8.616782e-06 -7.048914e-06 -1.580792e-06
8.310727e-06 -8.108118e-06 7.206765e-07
4.166835e-06 6.083452e-06 1.461313e-06
4.800233e-06 -1.061932e-05 5.643860e-07
8.375760e-06 -2.051469e-21 -2.234953e-06
-7.482086e-06 -1.238204e-06 1.703429e-06
-6.961946e-06 -1.371469e-06 -9.932981e-07
-2.041423e-06 6.895544e-06 1.182955e-06
7.085309e-06 9.203666e-06 7.068282e-07
-9.640475e-06 -6.488363e-06 -6.884620e-07
6.371162e-06 3.478261e-06 -1.295886e-06
1.261583e-06 1.105459e-05 -1.588076e-06
4.802560e-06 -5.373843e-06 1.210627e-06
-8.346368e-06 -6.878332e-06 1.886821e-06
1.543724e-06 -7.239511e-06 1.498306e-06
9.301508e-06 -2.278212e-21 -2.419095e-06
4.168730e-06 -6.926383e-06 2.090455e-06
2.227684e-06 7.778985e-06 -2.094833e-06
-1.576988e-07 1.002584e-05 2.307718e-06
-1.045958e-05 9.641130e-07 -2.099102e-06
-1.136783e-06 7.687535e-06 1.873491e-06
-8.063232e-06 6.491549e-06 2.179288e-06
-5.813285e-06 3.738078e-06 3.734031e-07
2.204256e-06 -1.092980e-05 -1.560653e-06
5.558027e-06 -5.039218e-06 1.617122e-06
-6.856442e-06 -5.754076e-06 -2.393566e-06
1.022726e-05 -2.504955e-21 -2.234953e-06
-5.851367e-06 -3.649212e-06 -2.563290e-07
2.487667e-06 -6.678870e-06 1.060210e-06
4.708927e-06 5.391692e-06 1.122322e-06
1.277876e-06 7.280541e-06 -1.484984e-06
-2.807263e-06 6.603533e-06 1.154118e-06
4.869534e-06 -7.892165e-06 2.418934e-06
7.011952e-06 -2.484431e-06 -1.543818e-06
6.752148e-06 1.810102e-06 7.152332e-07
8.911927e-06 5.645547e-06 2.072250e-06
-3.723478e-06 -6.545711e-06 -1.648051e-06
1.101207e-05 -2.697178e-21 -1.710559e-06
2.935513e-07 -7.050267e-06 9.007812e-07
-5.171509e-06 7.326778e-06 2.396005e-06
-1.782447e-06 -9.475166e-06 -2.395104e-06
-7.127414e-06 1.572150e-06 -1.356822e-06
1.060833e-06 -6.919942e-06 7.474547e-07
6.348906e-06 2.668657e-06 -1.484015e-07
-9.624760e-06 5.708683e-06 1.511326e-06
2.444950e-06 1.133712e-05 7.610660e-07
-4.855304e-06 9.997976e-06 -1.601517e-06
9.222487e-06 -2.881530e-06 -2.392059e-06
1.153646e-05 -2.825618e-21 -9.257478e-07
8.212244e-06 -3.518805e-06 -2.391073e-06
-1.124554e-05 2.878982e-06 -7.287682e-07
4.125347e-06 -9.974505e-06 -1.903852e-06
1.981615e-06 1.147959e-05 -5.827146e-07
-9.603231e-06 -2.254788e-07 -2.399871e-06
-5.281287e-06 -7.472704e-06 -2.414383e-06
6.902726e-06 -5.757189e-07 4.607403e-07
-6.718793e-06 9.480767e-06 -6.899800e-07
6.939935e-06 8.733165e-06 1.554707e-06
8.867591e-06 1.825255e-06 -2.406348e-06
-1.615268e-06 6.696834e-06 1.767895e-07
4.658589e-06 8.715328e-06 -2.348346e-06
-2.681635e-06 9.456374e-06 -2.360828e-06
-2.195944e-07 9.585329e-06 -2.402090e-06
-1.739553e-06 9.345620e-06 2.410425e-06
1.063274e-05 5.208444e-07 -2.011404e-06
-3.413929e-06 -7.135813e-06 1.979115e-06
-4.484397e-06 -5.258559e-06 3.709646e-07
-8.838546e-06 -2.806492e-06 -2.418932e-06
-2.118297e-07 1.163033e-05 6.477976e-07
-2.842366e-06 -1.076070e-05 1.584134e-06
3.285436e-06 -7.184219e-06 -1.971620e-06
9.076206e-06 -1.442891e-06 -2.416533e-06
4.803113e-06 1.062569e-05 5.344078e-07
8.431811e-06 -5.487974e-06 2.296950e-06
-9.499799e-06 2.564319e-06 2.358442e-06
1.125098e-05 -6.586969e-07 1.405742e-06
4.628809e-06 -6.065733e-06 -1.748869e-06
-7.517300e-06 -1.157809e-06 -1.725420e-06
-1.138488e-05 -2.499913e-06 -5.548328e-07
1.019892e-06 -9.785090e-06 2.358833e-06
3.772029e-06 7.519720e-06 -2.249919e-06
5.260032e-06 7.062361e-06 -2.367795e-06
-6.941444e-06 -7.264398e-06 2.301153e-06
-7.221152e-06 1.495453e-06 1.462253e-06
-3.496188e-06 7.314896e-06 -2.103875e-06
-2.692953e-06 -7.305964e-06 -1.885917e-06
-5.713802e-06 3.964670e-06 -5.864635e-07
7.661483e-06 1.668887e-06 -1.928563e-06
4.589708e-06 1.068319e-05 -6.650718e-07
8.051504e-06 5.259413e-06 2.398424e-06
-7.319265e-06 3.172426e-08 1.386727e-06
7.388241e-06 -7.106301e-06 -2.224914e-06
6.056700e-06 6.089812e-06 2.311760e-06
3.689899e-06 -7.844263e-06 -2.334884e-06
-4.610992e-07 -1.117237e-05 1.521914e-06
4.311407e-07 -7.310157e-06 -1.391753e-06
7.159780e-06 -6.558376e-07 -1.180053e-06
7.159428e-06 6.923507e-07 -1.185533e-06
-2.224658e-06 -8.882488e-06 2.414766e-06
-1.066205e-05 -4.571351e-06 7.521041e-07
-4.970777e-06 9.816562e-06 1.719240e-06
-8.981822e-06 -7.364383e-06 7.070829e-07
-1.027727e-05 1.417016e-06 2.168114e-06
6.348999e-06 -6.409766e-06 2.402883e-06
7.111220e-06 8.589016e-06 -1.559516e-06
-6.576915e-06 -9.000129e-06 -1.563893e-06
-2.765684e-06 -6.432390e-06 -7.504580e-07
-4.983207e-06 -6.850485e-06 -2.272144e-06
-4.185305e-06 -8.950646e-06 -2.348703e-06
1.161849e-06 -1.100491e-05 1.654794e-06
9.901322e-06 5.103644e-06 -1.573101e-06
-7.232201e-06 -8.559514e-06 -1.491872e-06
1.114036e-05 -6.752627e-07 -1.547586e-06
-9.274529e-06 -6.220298e-06 -1.539732e-06
-9.094827e-06 -6.942820e-06 -1.127144e-06
-1.765653e-06 -1.113793e-05 1.396216e-06
1.000101e-05 -6.676978e-07 2.308911e-06
2.609801e-06 9.262067e-06 -2.397674e-06
5.848780e-06 8.079801e-06 2.323586e-06
-3.991397e-06 5.763083e-06 7.761529e-07
-3.919958e-06 1.051027e-05 1.476852e-06
3.917053e-06 -1.054101e-05 1.440063e-06
6.812498e-06 -3.167123e-06 1.628565e-06
-7.500126e-06 8.510050e-06 -1.297181e-06
6.358506e-06 -3.715668e-06 1.449231e-06
-6.887718e-06 -4.800154e-07 -3.255961e-07
-3.755667e-06 -7.747271e-06 -2.318036e-06
1.114935e-05 3.440029e-06 -5.018242e-07
-1.006066e-05 -5.140224e-06 -1.366418e-06
9.515255e-06 -3.548710e-06 2.263357e-06
1.166360e-05 -4.954637e-07 -4.719421e-07
-5.174932e-06 6.047996e-06 -2.012909e-06
3.643797e-06 1.068070e-05 -1.384625e-06
-4.596844e-06 8.144752e-06 -2.418559e-06
5.867746e-07 -9.072140e-06 2.409927e-06
9.719721e-06 6.374214e-06 -6.788294e-07
-2.951365e-06 -6.217481e-06 -3.477322e-09
-7.904128e-06 -5.198820e-06 2.413858e-06
2.894003e-06 -6.244674e-06 3.561855e-08
-7.032036e-06 -2.742871e-06 1.666543e-06
7.089605e-06 -8.661836e-06 1.507698e-06
-5.534419e-06 -5.664690e-06 1.985468e-06
1.067531e-05 1.835090e-06 -1.873488e-06
-1.053003e-05 3.210815e-06 -1.713948e-06
8.792434e-06 5.115179e-06 -2.257003e-06
-1.415548e-06 1.055226e-05 2.010535e-06
-9.422973e-06 3.472456e-06 2.302837e-06
8.177846e-06 -5.526207e-06 -2.351358e-06
5.032119e-06 -4.951840e-06 -9.096471e-07
5.510045e-06 5.756000e-06 2.018489e-06
4.972715e-06 9.937286e-06 1.604362e-06
-2.142494e-06 -7.561266e-06 1.941916e-06
-2.309752e-06 -8.983997e-06 6.850416e-08
8.019466e-06 -4.776298e-06 1.609138e-08
9.335962e-06 -3.732864e-07 -2.453795e-07
8.251377e-06 4.177711e-06 -5.579609e-08
-2.993469e-06 8.751088e-06 -1.166760e-07
-7.205171e-06 -6.070229e-06 8.162021e-08
9.289229e-06 4.857188e-06 -2.111247e-06
-7.653678e-06 5.220881e-06 -8.443142e-08
-9.232492e-06 1.615270e-06 5.817331e-09
4.043813e-06 8.526479e-06 -4.915766e-08
-8.329379e-06 -4.383819e-06 -4.261399e-09
-6.136569e-06 7.067766e-06 1.531741e-08
1.844379e-06 -9.073280e-06 3.521078e-08
6.133557e-06 -6.998603e-06 3.415952e-08
-5.178375e-07 9.407156e-06 -1.573336e-07
4.337236e-06 -8.365356e-06 1.134860e-07
-9.385178e-06 -2.998665e-07 1.448312e-08
-5.732202e-06 4.605204e-06 -1.433594e-06
8.722146e-06 -2.562594e-06 6.316871e-08
-4.665809e-06 -7.982920e-06 1.028931e-07
6.023809e-06 6.922192e-06 5.186600e-08
2.009872e-06 9.098478e-06 -1.120760e-07
9.246806e-06 1.886582e-06 -2.250657e-07
-4.449277e-07 -9.290936e-06 -6.341965e-08
-9.119287e-06 -2.640703e-06 1.135805e-07
7.559763e-06 5.670572e-06 3.556952e-08
-8.816780e-06 3.382289e-06 3.515280e-07
-4.840621e-06 8.269088e-06 1.295614e-07
1.778620e-06 -6.830871e-06 9.063836e-07
[...]
POINT_DATA 1528
VECTORS 10.000GHz_fone_imag double
-1.346230e+09 -1.022755e+11 -3.856377e+08
-3.603526e+10 -2.538763e+10 1.220974e+09
1.470553e+11 -5.790465e+10 6.456646e+09
1.566389e+11 8.588776e+10 -5.111221e+09
-1.233548e+11 -6.846226e+10 -7.857244e+08
-4.665671e+10 -1.415892e+11 5.116819e+08
1.518098e+10 1.085877e+11 -5.499678e+06
-2.672427e+10 -3.761479e+10 -3.705406e+07
5.679815e+10 3.979330e+10 2.276654e+09
8.572877e+10 2.207704e+10 2.574824e+09
3.267526e+10 -2.302890e+10 -1.549459e+09
5.869639e+08 -1.795449e+11 -2.168492e+08
7.978840e+10 3.884782e+10 2.351143e+09
2.709705e+10 2.548777e+10 2.296468e+08
-4.040097e+10 1.506782e+10 1.486140e+09
3.394131e+10 1.772040e+10 -9.072895e+08
-1.057328e+11 -8.870360e+10 -9.316289e+09
-1.543823e+11 2.448407e+10 8.815070e+09
8.157270e+08 3.919059e+10 1.129257e+09
-1.269799e+11 3.036279e+10 -5.855366e+08
-5.871508e+10 -3.183332e+09 2.880168e+09
-2.559101e+10 -5.699607e+10 -1.900470e+09
1.146964e+10 -1.820380e+11 1.559810e+10
-4.169117e+10 -2.819321e+09 -3.196977e+09
3.714215e+10 -5.173713e+10 3.799785e+09
1.129669e+10 -1.317711e+11 -3.921784e+08
6.316754e+09 -5.053656e+10 -3.738020e+09
3.463915e+10 4.280491e+10 -8.889193e+09
4.035540e+10 -2.347530e+10 -8.958860e+08
-4.813026e+10 -8.400563e+10 -8.471618e+07
-5.745883e+09 -3.670996e+10 8.267944e+07
-4.816274e+10 8.157432e+10 1.643162e+08
3.103456e+10 -1.266912e+11 -2.891740e+09
7.603928e+09 -1.640647e+11 -5.550445e+09
2.160783e+09 -3.225724e+10 -1.478706e+09
1.489669e+10 7.853034e+10 -1.014755e+08
8.406447e+10 -1.289165e+09 1.177845e+09
-1.918431e+11 1.043153e+11 4.713364e+08
-9.543351e+09 -1.120581e+11 8.377574e+08
-3.914017e+10 3.768252e+09 -4.967025e+07
3.598743e+09 -4.535870e+10 -1.844549e+09
-4.274436e+10 -2.231174e+10 4.702807e+08
1.223342e+11 3.279525e+10 -1.164176e+09
2.666797e+10 -6.408434e+10 2.390994e+09
3.733954e+09 -2.084702e+11 -8.756688e+09
-3.301327e+10 -3.117289e+10 -7.525722e+08
-1.409967e+11 -1.347403e+11 7.648659e+09
-8.271687e+10 -6.908786e+10 2.277673e+09
-8.353656e+10 1.959459e+09 -3.756104e+09
-4.619659e+10 -1.272231e+11 5.603710e+09
7.606078e+10 -2.284713e+10 1.736522e+09
1.110551e+10 -4.920176e+10 -1.563797e+09
2.330717e+10 4.440713e+10 1.219377e+09
3.880181e+10 5.238542e+10 -3.516091e+08
-1.550265e+10 3.728557e+10 3.132758e+09
-2.152681e+09 -1.583976e+11 2.141574e+09
-2.968529e+10 8.923779e+10 1.584551e+09
3.412582e+10 -2.178349e+10 -1.735183e+09
-7.231198e+10 2.168512e+09 4.850556e+09
1.513042e+11 -8.976101e+10 -7.208185e+09
-8.091015e+10 -9.322690e+10 -3.175861e+09
-2.760321e+10 2.326995e+10 3.199592e+08
-4.250013e+10 -4.959222e+10 -6.595912e+08
-2.693266e+10 -2.555463e+10 -6.200379e+08
1.222650e+11 -9.361524e+10 -2.231307e+09
-4.916652e+10 -2.206506e+10 -1.245838e+08
8.571888e+07 -1.063622e+11 -5.861440e+08
-1.933861e+10 1.382019e+11 3.282451e+09
-1.811280e+10 1.375528e+11 1.208983e+09
1.875256e+11 6.165964e+10 -4.604754e+09
3.090587e+10 -2.493524e+10 4.499214e+08
-2.211418e+10 3.270131e+10 4.973255e+08
7.390179e+10 -1.500439e+11 -2.162494e+09
4.675785e+10 -2.234290e+09 1.730505e+09
-1.131391e+11 -1.049899e+11 4.417407e+08
-4.290221e+10 5.151114e+10 -1.212097e+09
-2.049892e+11 -3.416325e+10 -1.472244e+10
-2.723483e+09 -1.326675e+11 3.713700e+08
-9.851345e+10 -6.647305e+10 7.318442e+09
1.286630e+11 -3.518235e+10 4.900712e+09
5.746770e+10 2.499628e+07 -2.036923e+08
1.382094e+10 5.671375e+10 -6.186440e+08
1.409785e+11 -3.528050e+08 -5.994712e+09
3.559881e+10 4.645548e+10 1.076276e+09
1.137585e+11 1.764195e+11 -2.963880e+09
-5.492400e+10 -1.295005e+10 -2.289229e+09
-9.654103e+10 -1.089985e+11 8.675366e+09
-7.002691e+10 9.111841e+10 2.656238e+09
-1.408963e+09 -5.825456e+10 3.227542e+08
-8.900692e+10 1.607392e+11 -2.498083e+09
-1.348262e+11 -6.905290e+10 1.652439e+10
1.620514e+11 -1.299668e+11 1.185895e+10
1.644811e+11 -2.033180e+10 -7.865342e+09
1.488652e+11 5.288451e+10 -3.405902e+09
-9.264546e+10 -4.942712e+10 -6.006117e+08
-4.214397e+10 -1.367138e+11 -8.778556e+08
4.430994e+10 -1.896090e+11 -1.827174e+08
3.086551e+10 -4.977094e+10 6.507047e+08
-1.101673e+11 5.672580e+10 5.551762e+08
4.188315e+09 -5.649248e+10 2.699982e+09
-1.483478e+11 -1.020827e+10 8.147713e+09
8.594475e+10 6.161462e+10 2.369916e+09
-7.017371e+10 1.873014e+10 -1.851954e+09
3.900459e+10 1.883735e+11 -8.952626e+09
-1.597785e+11 -2.344967e+10 -7.416027e+09
6.759813e+10 -1.449203e+11 1.985054e+09
2.302459e+10 4.189435e+10 -6.236510e+08
4.486200e+10 -1.081164e+10 2.864964e+09
3.705442e+10 2.018982e+10 3.857654e+09
-1.072272e+10 -8.217536e+10 1.790717e+09
2.214460e+09 -4.721872e+10 2.056497e+09
-4.174351e+10 -9.512497e+10 -1.066348e+09
1.209296e+10 4.109373e+10 4.347546e+09
-5.152748e+10 -1.508088e+10 -2.388765e+09
4.271343e+10 -7.761352e+09 -5.170585e+09
-7.629227e+09 1.070655e+11 2.492343e+09
-8.668750e+10 6.093954e+10 1.982857e+08
-4.875696e+09 -1.392667e+11 6.263358e+09
3.294464e+10 2.283294e+10 -2.455214e+09
4.804318e+10 -3.936694e+10 1.738862e+08
3.488286e+10 -1.087154e+11 -5.768298e+08
1.864355e+11 4.057145e+10 -1.909715e+10
6.474054e+10 -3.623730e+10 -1.345518e+09
8.956006e+10 2.711318e+10 8.129803e+08
8.285318e+10 5.310011e+09 -1.052078e+08
1.023898e+11 1.386236e+10 1.479851e+09
2.349852e+09 -6.209332e+10 -7.035641e+08
-1.050752e+11 6.360133e+10 -3.986290e+09
-1.363715e+11 1.319340e+11 -4.407069e+09
-3.896944e+10 1.116921e+11 -5.036399e+08
4.471242e+10 9.899256e+08 -4.684398e+08
-4.713077e+10 1.200393e+10 -1.124786e+09
-1.479237e+11 -5.969859e+10 2.288562e+08
-1.703771e+10 -8.498138e+10 -3.011225e+09
4.216379e+10 -2.107684e+10 -2.632447e+09
-3.549081e+10 -5.944350e+10 -3.684527e+09
1.749080e+10 7.178174e+10 9.851772e+08
-2.710689e+09 -4.339701e+10 4.448240e+08
-9.275487e+10 -6.818269e+10 2.302876e+09
-1.578537e+10 1.691157e+11 3.264088e+09
-9.661308e+09 4.434696e+10 3.213050e+08
-9.100804e+10 -9.530272e+09 2.120925e+08
1.278403e+11 -6.072326e+10 -1.408209e+09
7.910440e+10 -5.855905e+10 -4.013897e+09
-6.040132e+10 4.881614e+10 -1.317842e+09
4.083999e+10 1.831843e+11 5.386336e+08
1.251977e+11 4.200906e+10 1.815557e+09
-1.443947e+11 4.772484e+10 -7.401340e+09
9.849935e+10 1.380968e+11 -8.896938e+09
3.977353e+10 -1.707951e+11 -3.313007e+09
3.534305e+10 -1.569787e+10 -1.210686e+07
4.823389e+10 -7.476823e+10 2.505455e+06
2.603401e+09 1.726933e+11 -1.195639e+10
-5.660265e+10 -5.878938e+10 -1.184505e+09
7.401049e+10 -8.472548e+10 -2.856175e+09
-1.163624e+11 -4.505389e+10 -3.926328e+09
-5.778137e+10 1.206739e+09 2.305293e+07
-1.426459e+11 -9.043796e+09 -7.878748e+09
-1.505003e+10 -1.893994e+11 -5.915536e+09
1.578958e+09 -1.687880e+11 1.044455e+10
-1.035936e+11 2.565660e+10 6.836413e+08
-2.047103e+10 4.353568e+10 -2.155839e+09
4.520644e+10 2.225149e+10 7.552527e+08
-2.647299e+10 3.002012e+10 4.908725e+08
8.481101e+09 5.946776e+10 -3.186945e+08
-5.882967e+10 -6.033226e+10 8.383474e+08
4.574609e+10 -3.430006e+10 3.297387e+09
-4.414641e+10 3.371323e+10 -3.331719e+09
-1.430302e+11 7.385716e+10 -2.790884e+08
-9.783600e+10 7.615167e+10 1.137575e+09
-7.862957e+10 3.892194e+10 1.134973e+09
-4.180325e+10 -2.129324e+09 1.874493e+09
2.246575e+10 -4.524133e+10 -2.520395e+09
-4.454385e+10 3.565932e+10 2.134252e+09
-2.160101e+09 -5.765456e+10 1.180304e+09
-3.163233e+10 4.650856e+10 2.058879e+08
-2.771480e+10 3.976784e+10 -3.151769e+09
-4.958268e+10 9.108382e+09 9.007415e+08
-4.878769e+09 -7.514429e+10 1.992381e+08
9.582115e+10 -2.275560e+10 -1.632682e+09
5.082647e+10 -3.464542e+10 1.777104e+09
1.475937e+11 9.617404e+10 -1.394772e+10
4.598627e+10 2.259435e+10 -6.458416e+09
-4.085139e+10 -1.418740e+10 -1.048523e+09
-8.889035e+10 -1.508452e+11 -3.846703e+09
4.116800e+10 4.022410e+10 5.096676e+09
-1.007443e+11 -1.865272e+11 4.244556e+09
-1.729100e+10 1.907405e+11 3.482466e+09
-8.745711e+10 3.020734e+10 3.704377e+09
1.296465e+10 -4.303417e+10 8.223835e+08
-1.913310e+10 4.142363e+10 -3.144184e+07
-2.691382e+10 -7.383429e+10 -1.190870e+08
-3.226203e+09 -4.729439e+10 -4.300353e+09
9.927967e+10 9.578725e+10 -6.366024e+09
4.196526e+10 -1.424276e+10 -9.562688e+08
9.420122e+10 5.573168e+10 -1.051786e+07
-8.023662e+10 -1.125586e+10 -1.098086e+09
2.749386e+10 -4.360044e+10 -1.238163e+08
-1.628636e+11 8.018734e+10 -7.357745e+09
-5.982595e+10 7.323401e+10 -6.338902e+09
-1.656588e+11 -9.228283e+10 -4.982571e+09
-5.182177e+10 1.297752e+11 -5.962564e+09
-3.865227e+10 -2.987220e+10 1.303326e+09
-1.192453e+11 1.079913e+11 6.360868e+09
6.457945e+09 -4.992103e+10 -1.858661e+09
1.463466e+10 4.509792e+10 -1.906447e+09
4.569381e+10 -5.999753e+10 2.044739e+09
5.757678e+10 6.732063e+09 -1.880577e+09
2.932729e+10 8.630735e+10 -1.837389e+09
-3.544163e+10 -5.205360e+10 8.298616e+08
-1.430672e+11 -1.349969e+11 7.925473e+09
7.869669e+10 -8.089712e+10 -4.279659e+09
4.982487e+10 -2.648254e+10 4.564745e+09
-1.599076e+11 3.812543e+10 5.984557e+09
7.235835e+09 -1.931687e+09 -8.570759e+07
3.192814e+09 5.851261e+09 -6.222588e+07
-6.801699e+07 7.014884e+09 5.027772e+08
-3.239977e+09 6.117954e+09 1.785076e+08
-6.645322e+09 -2.061844e+09 -2.429012e+08
4.340937e+09 -4.603645e+09 -2.481597e+07
4.069492e+10 -7.402391e+10 1.825301e+09
-3.666732e+09 -6.044063e+09 -3.150634e+08
-1.458170e+09 -6.845720e+09 -2.384176e+08
-5.861504e+09 3.153372e+09 -7.805709e+07
2.795727e+09 -5.263214e+09 -2.593611e+08
-5.318460e+09 -4.563631e+09 3.666639e+08
7.234425e+09 1.001276e+09 -6.226582e+07
5.469665e+09 5.762807e+09 1.880885e+08
-6.610397e+09 -1.173077e+08 5.654043e+07
5.403936e+09 3.383172e+09 5.577580e+08
6.220980e+08 -6.228037e+09 -1.418272e+08
1.324639e+11 1.604043e+11 1.346029e+09
3.105480e+09 7.703738e+09 -2.207497e+08
6.787936e+09 -3.713727e+09 2.000848e+08
-5.959277e+09 5.309466e+09 7.093625e+08
-7.966062e+09 1.489855e+09 5.398586e+08
-9.935895e+08 6.228797e+09 8.220821e+07
6.966226e+09 -1.143620e+08 1.211460e+08
1.490002e+09 -5.260886e+09 3.911196e+08
-4.096330e+09 4.660474e+09 -1.443458e+08
-2.171164e+09 -5.270378e+09 5.570991e+08
-4.359945e+09 -2.644154e+09 -9.361008e+07
-1.433765e+11 -2.402774e+10 -9.618071e+09
-1.098999e+10 8.406092e+09 2.736864e+08
-5.609803e+09 -8.109591e+09 -7.011104e+07
3.929077e+10 4.515547e+09 5.898326e+08
3.147067e+10 1.380757e+10 8.321901e+08
1.902104e+10 3.444393e+09 9.413856e+08
-2.907499e+10 5.193200e+09 5.208263e+08
-1.506075e+10 -1.061020e+10 5.485279e+08
-4.202833e+10 -3.096735e+10 -1.407803e+09
7.728541e+09 -2.148614e+10 4.140911e+08
1.254025e+10 -8.170330e+09 6.012889e+07
2.615976e+10 -6.163998e+10 2.347631e+09
-1.264438e+10 7.051993e+10 1.214345e+09
-1.332011e+10 2.089390e+10 -8.347411e+08
-1.687563e+10 6.460784e+09 -5.590989e+08
1.773727e+10 3.463130e+10 -7.855291e+08
-6.860473e+10 2.798943e+10 2.457994e+09
-4.310078e+10 -5.448857e+10 -3.030370e+09
-5.369080e+10 -7.264354e+09 -1.505567e+09
-3.922642e+09 -3.189195e+10 8.844133e+08
2.102492e+10 -1.364612e+10 7.719745e+08
1.554682e+10 -5.297967e+09 9.425888e+05
-1.919680e+10 -4.742736e+10 6.715178e+08
3.733061e+10 4.631121e+10 -1.389312e+09
1.442677e+10 -7.245479e+08 1.004372e+09
-1.638148e+10 2.324627e+10 -2.135974e+09
8.227048e+08 1.930123e+10 -6.043891e+08
-1.939323e+10 -4.987511e+10 2.531476e+08
2.632641e+09 3.369632e+09 9.883684e+08
3.380953e+10 -1.096677e+10 6.962403e+08
1.981883e+10 -2.853383e+10 -2.884202e+09
-4.352250e+10 -2.211732e+09 -5.697659e+08
2.836227e+10 -3.170774e+10 2.196037e+09
1.447400e+11 -3.643383e+10 -9.869253e+08
-4.258614e+10 1.623584e+10 -3.843738e+07
4.970292e+10 -7.501437e+10 1.985571e+09
-9.182127e+09 -3.113892e+09 -3.318700e+08
-4.482116e+10 3.403007e+10 -1.645233e+08
-5.232768e+10 4.138925e+10 -1.104860e+07
-2.691206e+10 2.405397e+10 2.410489e+08
1.891203e+10 8.330275e+09 1.783537e+08
4.809197e+09 -4.732633e+10 -1.054725e+09
2.670465e+10 -3.338945e+09 1.039567e+08
-1.903257e+10 -4.289126e+10 -1.350689e+08
-8.191359e+10 1.215659e+11 -4.455526e+08
2.205411e+10 -6.761782e+10 9.579571e+07
-3.235290e+10 4.501744e+10 -1.377714e+09
-2.511010e+10 4.740000e+09 8.815942e+07
2.138928e+10 -3.803324e+10 -6.936871e+08
-6.384127e+09 -1.697484e+10 5.741389e+07
-1.818413e+10 -6.124545e+09 -4.438961e+08
1.574591e+10 4.700569e+10 1.199230e+08
3.305710e+09 1.587644e+10 1.596538e+09
4.060660e+09 -6.853843e+10 6.291397e+08
1.706718e+09 -2.569246e+10 3.293045e+07
-4.854057e+10 1.004181e+11 -3.067562e+09
-7.937831e+09 -3.666020e+10 6.785543e+08
-1.635886e+10 -8.635777e+10 -7.840295e+08
-5.450856e+10 -1.745451e+10 1.369579e+09
4.576055e+09 6.631859e+10 2.542161e+08
1.404674e+10 1.117138e+10 3.663850e+08
4.331557e+10 -4.830634e+10 -7.492071e+08
2.229176e+10 1.384600e+10 -4.428305e+09
8.245731e+10 -1.024975e+10 -4.580927e+08
-3.797603e+10 -3.098450e+10 1.034786e+09
5.238315e+10 -3.445652e+10 2.005740e+09
-8.818577e+10 6.403212e+10 -2.005345e+09
-6.617635e+10 1.051486e+10 6.655269e+08
2.030966e+10 2.886130e+10 3.872122e+08
-1.392899e+10 -1.221165e+09 1.349397e+08
-1.671271e+10 4.827796e+10 1.467462e+08
-9.488828e+09 2.434258e+10 1.652862e+07
-2.592590e+10 -3.351594e+10 -6.916887e+08
9.224221e+09 2.760135e+09 5.065745e+08
2.484369e+10 1.452260e+09 -9.833359e+08
-7.006047e+09 2.663266e+10 9.817286e+08
7.923822e+09 1.584708e+10 -2.224497e+08
-9.121639e+09 1.493112e+11 -8.164986e+09
1.554754e+10 -1.576351e+10 -3.238306e+07
9.625039e+09 -3.259108e+10 5.675408e+08
4.010668e+09 1.250671e+10 1.389000e+09
6.629418e+09 2.243310e+10 1.514197e+09
-8.951304e+10 2.300763e+10 -4.054400e+09
-2.460250e+10 -2.358478e+10 -5.847176e+06
-7.631394e+09 1.679169e+10 -7.119387e+08
6.880190e+10 -2.321446e+10 -4.871550e+07
7.147072e+10 1.020726e+10 -2.187356e+09
-3.252204e+09 -2.508380e+10 -3.318418e+08
-1.681066e+10 -4.579326e+10 -3.052619e+09
2.828269e+09 -2.459117e+10 -2.534188e+08
2.188709e+10 2.607373e+10 -8.636487e+08
8.187433e+10 -2.316965e+10 -3.938423e+09
1.665442e+10 7.061393e+10 1.133806e+09
-6.005241e+09 -2.215974e+10 1.620980e+08
3.468813e+10 5.731432e+10 -1.837129e+09
-2.307616e+10 2.271727e+10 1.760447e+09
-4.640962e+10 5.467806e+10 -1.490513e+09
-2.210056e+09 2.386438e+10 -1.490479e+09
1.591086e+10 1.209503e+10 6.785486e+08
2.539796e+10 1.237994e+11 3.599637e+09
-1.735072e+10 -3.171194e+10 -2.815359e+08
-5.059695e+10 5.043955e+10 -8.433882e+07
4.214212e+09 -2.137943e+10 4.669732e+08
9.659711e+09 -1.959573e+10 -4.813215e+08
-1.617654e+10 2.829356e+10 1.911543e+09
-7.375598e+10 -5.916545e+10 4.562967e+09
2.360304e+10 -1.465222e+10 5.330492e+08
4.145240e+10 -8.886341e+10 -2.055363e+09
-2.415964e+10 1.604230e+10 -6.887953e+08
2.694720e+10 4.254903e+10 9.053406e+06
8.890014e+10 -1.183029e+11 3.186434e+09
5.800845e+10 2.754184e+10 -4.173820e+07
5.875628e+10 5.240887e+10 -5.193903e+09
2.507096e+10 1.292104e+10 -1.095997e+09
1.915153e+10 2.545445e+10 8.748818e+08
2.542860e+08 -2.609019e+10 -1.973111e+07
-1.725235e+10 -2.161147e+10 2.328895e+08
8.795212e+10 2.396871e+10 1.080984e+09
1.932303e+10 1.617591e+10 2.062595e+08
-1.125866e+10 -3.404394e+10 -4.736612e+08
-2.950591e+10 1.475585e+10 7.181897e+08
-1.003980e+11 -1.718858e+11 -1.373857e+09
-2.462524e+10 -1.455097e+10 1.347703e+09
9.808822e+07 5.107440e+10 6.828529e+07
-2.895069e+10 -7.055095e+09 -1.977720e+09
1.298542e+10 -2.547368e+10 -8.399684e+06
1.690974e+10 -1.703134e+10 8.311474e+07
9.251413e+10 2.704548e+10 -1.218290e+07
-2.613464e+09 -3.110236e+10 -7.437159e+08
-5.186515e+10 6.630184e+10 1.578174e+09
-1.374500e+10 -5.886809e+10 -7.276251e+07
-2.375559e+10 1.664448e+10 -7.709636e+08
-5.178974e+10 -1.399063e+11 -6.389049e+09
-7.451282e+10 -4.275733e+10 1.549527e+09
2.393604e+10 -1.216493e+10 5.740678e+08
-4.254959e+10 1.981455e+10 2.634511e+08
1.692964e+10 9.358044e+08 -4.960419e+08
2.570517e+10 -5.765349e+09 -1.217541e+09
6.556807e+10 -7.248185e+09 -1.838536e+07
6.656208e+10 -3.197819e+10 -7.192098e+08
8.233344e+09 5.308177e+10 -3.849809e+08
-1.162456e+10 2.265191e+10 -3.103227e+08
1.133316e+10 -8.673271e+10 -1.591457e+09
8.737684e+10 -2.915426e+10 -5.980452e+08
-4.814085e+10 -4.634003e+09 -8.960630e+08
-4.524142e+10 1.446199e+10 -6.705254e+08
-2.496757e+10 6.504529e+09 -6.030270e+07
1.688986e+10 -1.356263e+10 -6.477673e+08
4.522922e+10 1.740334e+10 -2.874455e+08
1.932548e+10 9.469545e+10 1.145492e+09
8.280855e+09 4.563524e+10 9.227981e+08
-5.688854e+10 -2.694823e+10 -2.008240e+09
-2.468141e+10 -1.846124e+10 -4.700477e+08
5.611728e+10 -2.877760e+10 4.804754e+08
-9.023358e+10 5.971442e+10 -3.808959e+09
3.129712e+10 2.881114e+10 6.019422e+07
4.530694e+10 2.996531e+09 -1.536912e+09
-2.965206e+10 9.759644e+09 -9.287872e+08
-9.198057e+10 5.502444e+10 9.478496e+08
2.654773e+10 6.245552e+08 -9.165260e+08
-2.049163e+10 2.383613e+10 -8.047249e+08
-5.527169e+10 -2.431847e+10 -2.457764e+09
1.623973e+10 2.944477e+10 -1.581414e+08
-3.171739e+10 -1.896484e+10 -3.678608e+08
-5.351761e+10 -4.931017e+10 -1.069146e+09
1.113813e+11 6.379895e+10 -8.952489e+08
-7.167737e+10 -1.431231e+10 1.143062e+09
3.467982e+10 6.368353e+10 1.429788e+09
-8.771954e+09 2.401468e+10 3.717666e+07
-1.308219e+10 4.312668e+10 -3.542232e+07
-2.178201e+10 -9.871556e+09 8.617111e+08
-2.544241e+09 4.678028e+10 1.116588e+08
-1.122695e+10 -2.271761e+10 -5.342802e+08
2.616325e+10 -2.122663e+10 -5.519907e+08
-3.974157e+10 -7.833679e+06 -2.391954e+09
1.132541e+09 -8.924794e+10 -3.063918e+08
9.018592e+10 5.780445e+10 3.037259e+09
5.368959e+09 -2.899947e+10 -8.496364e+08
2.362692e+10 7.993717e+09 1.833013e+08
5.985731e+10 -1.093860e+10 3.108858e+08
2.272341e+10 -5.468043e+09 1.966625e+08
-3.713943e+10 6.859250e+10 -1.479874e+08
-9.707061e+08 2.129444e+10 -7.496696e+08
6.361017e+09 3.046844e+10 5.726301e+08
5.899485e+09 2.818620e+10 8.579235e+07
-4.067503e+10 3.808357e+09 1.799546e+09
-2.747586e+10 2.086834e+09 2.984356e+08
2.942079e+10 8.084644e+10 6.512313e+08
-3.708842e+09 -4.318242e+10 1.239869e+09
-4.209884e+10 -9.127363e+10 -2.487504e+09
4.432550e+10 3.274418e+10 3.024783e+09
-1.800749e+09 5.407484e+10 1.462741e+08
4.079559e+10 -8.491287e+09 -3.429090e+08
-7.361995e+10 1.310794e+10 -3.591730e+09
-1.738097e+10 -2.675778e+10 -3.313900e+08
-3.548996e+10 7.677485e+10 2.618607e+09
7.987107e+10 4.439672e+09 1.851019e+09
6.715505e+10 6.277796e+10 -4.363301e+08
5.487576e+10 -1.195238e+11 -4.957154e+09
-2.076117e+09 -3.586795e+10 -3.732370e+08
3.649436e+10 1.525364e+10 -9.782416e+08
-1.575420e+10 -4.446497e+10 1.161891e+09
-2.511628e+10 -7.745180e+10 5.999765e+08
-3.378313e+10 -9.326994e+10 8.063718e+09
5.418971e+10 -4.410554e+10 3.766335e+08
3.213147e+10 -1.594524e+10 1.138683e+09
2.398481e+10 -8.792418e+10 -1.461136e+09
5.535208e+10 -5.932605e+10 -5.552130e+08
-5.871680e+10 -1.115526e+10 1.651403e+09
-8.200849e+10 -1.044581e+10 -2.076209e+09
-8.249026e+10 4.779382e+10 -3.751204e+09
-4.767870e+10 -7.402590e+10 -1.521595e+09
5.402155e+10 -1.107576e+09 1.041460e+09
4.127068e+10 -3.669863e+10 -1.278363e+09
-1.496447e+10 -1.441318e+10 -7.125613e+08
-3.736734e+10 -2.956628e+10 1.631856e+09
1.855545e+10 -4.815087e+10 3.546847e+08
-2.416687e+09 1.804374e+10 1.148388e+09
-2.250496e+10 -3.636279e+09 -2.919247e+08
-2.019165e+10 -1.978088e+10 -2.033828e+08
-8.459295e+10 1.249002e+10 -1.880600e+09
-1.199937e+10 7.369095e+10 -2.096831e+09
8.479379e+10 -1.846070e+10 8.935341e+08
-9.529629e+10 6.334436e+09 1.210765e+09
1.903563e+10 2.751812e+10 1.407184e+09
-1.767060e+10 1.633106e+10 8.810270e+08
8.503958e+10 -7.074330e+10 3.251236e+08
-1.845452e+10 3.205535e+10 3.606134e+08
-5.370615e+10 2.982257e+10 4.713014e+08
1.796424e+10 -3.756607e+10 1.678764e+07
-2.705121e+10 6.167308e+10 5.957850e+08
-9.586751e+10 1.305883e+10 3.536408e+09
-3.716061e+10 -9.603073e+09 1.510121e+08
-5.668261e+09 -5.978822e+10 -7.024257e+06
-4.995942e+10 1.095084e+10 -4.596884e+08
9.468910e+09 -4.997502e+10 -6.256999e+08
3.943063e+10 -1.813643e+10 6.123273e+08
-6.973670e+10 -6.980284e+10 -4.779090e+08
-1.122545e+11 -1.260257e+10 -1.933272e+07
-9.298380e+10 -4.331367e+09 -9.925614e+08
-1.570363e+10 2.234606e+10 -3.383175e+08
2.790360e+10 -3.604543e+10 6.144081e+08
8.053510e+10 5.541630e+09 2.402240e+09
3.847711e+10 -4.969907e+10 -2.331884e+07
-8.671021e+09 9.634146e+10 -3.292261e+09
-9.678683e+10 -6.085742e+10 -2.462974e+09
-4.077387e+10 -1.312927e+09 -9.732701e+08
-1.455516e+10 -2.062567e+10 -3.034637e+08
1.926654e+10 1.928337e+10 -1.044264e+09