# vtk DataFile Version 2.0
Electric current density generated by TTH
ASCII
DATASET UNSTRUCTURED_GRID
POINTS 1172 double
1.172060e-05 -2.870720e-21 -5.925075e-22
8.461761e-06 8.109941e-06 -5.925075e-22
-5.732202e-06 4.605204e-06 -1.433594e-06
7.956053e-06 6.830279e-06 2.109391e-06
8.104960e-06 6.959930e-07 -2.119148e-06
1.124008e-05 7.615219e-07 1.411869e-06
-8.118672e-06 7.742106e-06 1.475620e-06
5.836368e-06 1.004415e-05 -7.013091e-07
8.241269e-06 -4.477710e-06 2.417849e-06
1.147611e-05 -1.686407e-06 -7.562507e-07
-8.260503e-06 -5.406021e-06 -2.350808e-06
8.554867e-06 7.214552e-07 2.310622e-06
1.159021e-05 8.760596e-07 -6.792733e-07
1.778620e-06 -6.830871e-06 9.063836e-07
-9.409289e-06 9.392545e-07 -2.414154e-06
3.886626e-07 1.010623e-05 -2.278678e-06
-3.467777e-06 -5.980641e-06 -3.852640e-07
8.104543e-06 -6.776424e-07 -2.118065e-06
-9.880105e-07 -1.160828e-05 5.791491e-07
1.151939e-05 1.592218e-06 6.597230e-07
5.062534e-06 -9.852732e-06 1.642786e-06
-2.110185e-06 8.077573e-06 -2.223533e-06
9.053081e-06 3.955445e-06 -2.349040e-06
7.425838e-06 -8.097163e-06 -1.735575e-06
9.714717e-06 4.353231e-06 2.011404e-06
4.643032e-06 -5.129784e-06 4.190887e-07
5.671289e-06 -6.799587e-06 -2.377392e-06
3.190101e-07 -9.577378e-06 -2.402698e-06
8.042593e-06 -2.158825e-06 -2.214256e-06
2.937222e-06 8.717769e-06 -2.416935e-06
1.029206e-05 2.824687e-06 1.992990e-06
-1.002943e-05 4.819758e-06 1.586843e-06
-8.879972e-06 6.438486e-06 1.753042e-06
-1.088964e-05 -4.046987e-06 -6.992863e-07
-9.587171e-06 -2.573595e-06 -2.336941e-06
9.797192e-06 -4.207884e-06 1.999856e-06
6.311354e-06 9.752019e-06 7.031567e-07
-1.254259e-06 -1.008148e-05 -2.261943e-06
3.457784e-06 6.227314e-06 1.051519e-06
6.940469e-06 -5.678462e-06 2.395918e-06
-7.663013e-06 -8.711934e-06 -7.464234e-07
8.616782e-06 -7.048914e-06 -1.580792e-06
8.310727e-06 -8.108118e-06 7.206765e-07
4.166835e-06 6.083452e-06 1.461313e-06
4.800233e-06 -1.061932e-05 5.643860e-07
-7.482086e-06 -1.238204e-06 1.703429e-06
1.843429e-06 7.073096e-06 1.372377e-06
-6.961946e-06 -1.371469e-06 -9.932981e-07
-2.041423e-06 6.895544e-06 1.182955e-06
7.085309e-06 9.203666e-06 7.068282e-07
-9.640475e-06 -6.488363e-06 -6.884620e-07
6.371162e-06 3.478261e-06 -1.295886e-06
1.261583e-06 1.105459e-05 -1.588076e-06
4.802560e-06 -5.373843e-06 1.210627e-06
-8.346368e-06 -6.878332e-06 1.886821e-06
1.543724e-06 -7.239511e-06 1.498306e-06
4.168730e-06 -6.926383e-06 2.090455e-06
-6.690918e-06 -4.435493e-06 2.056483e-06
2.227684e-06 7.778985e-06 -2.094833e-06
-1.576988e-07 1.002584e-05 2.307718e-06
-1.045958e-05 9.641130e-07 -2.099102e-06
-1.136783e-06 7.687535e-06 1.873491e-06
-8.063232e-06 6.491549e-06 2.179288e-06
-5.813285e-06 3.738078e-06 3.734031e-07
2.204256e-06 -1.092980e-05 -1.560653e-06
5.558027e-06 -5.039218e-06 1.617122e-06
-6.856442e-06 -5.754076e-06 -2.393566e-06
-5.851367e-06 -3.649212e-06 -2.563290e-07
-8.345432e-06 -3.488188e-06 -2.405467e-06
2.487667e-06 -6.678870e-06 1.060210e-06
4.708927e-06 5.391692e-06 1.122322e-06
1.277876e-06 7.280541e-06 -1.484984e-06
-2.807263e-06 6.603533e-06 1.154118e-06
4.869534e-06 -7.892165e-06 2.418934e-06
7.011952e-06 -2.484431e-06 -1.543818e-06
6.752148e-06 1.810102e-06 7.152332e-07
8.911927e-06 5.645547e-06 2.072250e-06
-3.723478e-06 -6.545711e-06 -1.648051e-06
2.935513e-07 -7.050267e-06 9.007812e-07
-5.737430e-06 -6.785140e-06 -2.383097e-06
-5.171509e-06 7.326778e-06 2.396005e-06
-1.782447e-06 -9.475166e-06 -2.395104e-06
-7.127414e-06 1.572150e-06 -1.356822e-06
1.060833e-06 -6.919942e-06 7.474547e-07
6.348906e-06 2.668657e-06 -1.484015e-07
-9.624760e-06 5.708683e-06 1.511326e-06
2.444950e-06 1.133712e-05 7.610660e-07
-4.855304e-06 9.997976e-06 -1.601517e-06
9.222487e-06 -2.881530e-06 -2.392059e-06
8.212244e-06 -3.518805e-06 -2.391073e-06
-8.033742e-06 -8.936528e-07 2.089970e-06
-1.124554e-05 2.878982e-06 -7.287682e-07
4.125347e-06 -9.974505e-06 -1.903852e-06
1.981615e-06 1.147959e-05 -5.827146e-07
-9.603231e-06 -2.254788e-07 -2.399871e-06
-5.281287e-06 -7.472704e-06 -2.414383e-06
6.902726e-06 -5.757189e-07 4.607403e-07
-6.718793e-06 9.480767e-06 -6.899800e-07
6.939935e-06 8.733165e-06 1.554707e-06
8.867591e-06 1.825255e-06 -2.406348e-06
4.658589e-06 8.715328e-06 -2.348346e-06
1.071721e-05 -3.488975e-06 -1.404923e-06
-2.681635e-06 9.456374e-06 -2.360828e-06
-2.195944e-07 9.585329e-06 -2.402090e-06
-1.739553e-06 9.345620e-06 2.410425e-06
1.063274e-05 5.208444e-07 -2.011404e-06
-3.413929e-06 -7.135813e-06 1.979115e-06
-4.484397e-06 -5.258559e-06 3.709646e-07
-8.838546e-06 -2.806492e-06 -2.418932e-06
-2.118297e-07 1.163033e-05 6.477976e-07
-2.842366e-06 -1.076070e-05 1.584134e-06
9.076206e-06 -1.442891e-06 -2.416533e-06
7.743506e-06 8.798332e-06 -5.925075e-22
-7.947385e-06 2.494110e-06 2.215250e-06
4.803113e-06 1.062569e-05 5.344078e-07
8.431811e-06 -5.487974e-06 2.296950e-06
-9.499799e-06 2.564319e-06 2.358442e-06
1.125098e-05 -6.586969e-07 1.405742e-06
4.628809e-06 -6.065733e-06 -1.748869e-06
-7.517300e-06 -1.157809e-06 -1.725420e-06
-1.138488e-05 -2.499913e-06 -5.548328e-07
1.019892e-06 -9.785090e-06 2.358833e-06
3.772029e-06 7.519720e-06 -2.249919e-06
-6.941444e-06 -7.264398e-06 2.301153e-06
5.838525e-06 4.148662e-06 -1.129682e-06
-7.221152e-06 1.495453e-06 1.462253e-06
-3.496188e-06 7.314896e-06 -2.103875e-06
-2.692953e-06 -7.305964e-06 -1.885917e-06
-5.713802e-06 3.964670e-06 -5.864635e-07
7.661483e-06 1.668887e-06 -1.928563e-06
4.589708e-06 1.068319e-05 -6.650718e-07
8.051504e-06 5.259413e-06 2.398424e-06
-7.319265e-06 3.172426e-08 1.386727e-06
7.388241e-06 -7.106301e-06 -2.224914e-06
3.689899e-06 -7.844263e-06 -2.334884e-06
5.856433e-06 -3.660902e-06 -3.406660e-07
-4.610992e-07 -1.117237e-05 1.521914e-06
4.311407e-07 -7.310157e-06 -1.391753e-06
7.159780e-06 -6.558376e-07 -1.180053e-06
7.159428e-06 6.923507e-07 -1.185533e-06
-2.224658e-06 -8.882488e-06 2.414766e-06
-1.066205e-05 -4.571351e-06 7.521041e-07
-4.970777e-06 9.816562e-06 1.719240e-06
-8.981822e-06 -7.364383e-06 7.070829e-07
-1.027727e-05 1.417016e-06 2.168114e-06
7.111220e-06 8.589016e-06 -1.559516e-06
7.403934e-06 -2.915971e-06 2.011356e-06
-6.576915e-06 -9.000129e-06 -1.563893e-06
-2.765684e-06 -6.432390e-06 -7.504580e-07
-4.983207e-06 -6.850485e-06 -2.272144e-06
-4.185305e-06 -8.950646e-06 -2.348703e-06
1.161849e-06 -1.100491e-05 1.654794e-06
9.901322e-06 5.103644e-06 -1.573101e-06
-7.232201e-06 -8.559514e-06 -1.491872e-06
1.114036e-05 -6.752627e-07 -1.547586e-06
-9.274529e-06 -6.220298e-06 -1.539732e-06
-1.765653e-06 -1.113793e-05 1.396216e-06
2.178418e-06 8.506089e-06 -2.362347e-06
1.000101e-05 -6.676978e-07 2.308911e-06
2.609801e-06 9.262067e-06 -2.397674e-06
5.848780e-06 8.079801e-06 2.323586e-06
-3.991397e-06 5.763083e-06 7.761529e-07
-3.919958e-06 1.051027e-05 1.476852e-06
3.917053e-06 -1.054101e-05 1.440063e-06
6.812498e-06 -3.167123e-06 1.628565e-06
-7.500126e-06 8.510050e-06 -1.297181e-06
6.358506e-06 -3.715668e-06 1.449231e-06
-3.755667e-06 -7.747271e-06 -2.318036e-06
-4.980390e-06 -7.196063e-06 2.355725e-06
1.114935e-05 3.440029e-06 -5.018242e-07
-1.006066e-05 -5.140224e-06 -1.366418e-06
9.515255e-06 -3.548710e-06 2.263357e-06
1.166360e-05 -4.954637e-07 -4.719421e-07
-5.174932e-06 6.047996e-06 -2.012909e-06
3.643797e-06 1.068070e-05 -1.384625e-06
-4.596844e-06 8.144752e-06 -2.418559e-06
5.867746e-07 -9.072140e-06 2.409927e-06
9.719721e-06 6.374214e-06 -6.788294e-07
-7.904128e-06 -5.198820e-06 2.413858e-06
-4.587827e-06 6.787911e-06 2.150128e-06
2.894003e-06 -6.244674e-06 3.561855e-08
-7.032036e-06 -2.742871e-06 1.666543e-06
7.089605e-06 -8.661836e-06 1.507698e-06
-5.534419e-06 -5.664690e-06 1.985468e-06
1.067531e-05 1.835090e-06 -1.873488e-06
-1.053003e-05 3.210815e-06 -1.713948e-06
8.792434e-06 5.115179e-06 -2.257003e-06
-1.415548e-06 1.055226e-05 2.010535e-06
-9.422973e-06 3.472456e-06 2.302837e-06
5.032119e-06 -4.951840e-06 -9.096471e-07
-4.202929e-06 7.523589e-06 -2.320510e-06
5.510045e-06 5.756000e-06 2.018489e-06
4.972715e-06 9.937286e-06 1.604362e-06
-2.142494e-06 -7.561266e-06 1.941916e-06
-8.344903e-06 2.555598e-06 -2.349997e-06
6.830038e-06 3.018385e-06 1.577207e-06
6.969459e-06 9.423331e-06 -5.925075e-22
7.575973e-07 -8.959695e-06 -2.399171e-06
-2.335670e-06 -8.970245e-06 -2.418882e-06
-1.299893e-06 -8.953514e-06 2.405711e-06
-8.847274e-07 9.275200e-06 -2.419044e-06
9.728123e-06 1.835511e-06 -2.343950e-06
-7.505396e-06 5.673151e-06 2.416738e-06
-2.365195e-06 8.859978e-06 2.415532e-06
6.112063e-06 -7.408705e-06 -2.400047e-06
1.603696e-06 -9.352783e-06 2.411797e-06
4.695784e-06 -8.609339e-06 2.365759e-06
6.145198e-06 9.980435e-06 -5.925075e-22
3.848723e-06 5.749821e-06 -4.193675e-07
7.592344e-06 -2.846422e-06 -2.104392e-06
4.247364e-06 8.757151e-06 2.380334e-06
-5.490599e-06 -4.329513e-06 -7.206169e-07
1.672626e-06 9.754784e-06 2.344619e-06
4.190430e-06 -5.643735e-06 8.301942e-07
-3.038496e-07 -7.042458e-06 -8.822013e-07
-6.968643e-06 7.154769e-06 -2.319755e-06
1.008910e-05 1.918817e-06 2.216787e-06
-9.974756e-06 4.237224e-07 -2.320898e-06
5.276659e-06 1.046563e-05 -5.925075e-22
-8.792377e-06 5.145464e-06 -2.251076e-06
-9.412399e-06 -3.535768e-06 2.298887e-06
-6.636428e-06 1.842777e-06 -1.571947e-07
1.024415e-05 -1.674044e-06 2.165366e-06
7.545880e-06 7.011692e-06 -2.203104e-06
-1.019407e-05 6.420450e-07 2.240289e-06
-5.245916e-07 8.009248e-06 2.055760e-06
-3.810565e-06 -9.606235e-06 2.187492e-06
-3.729136e-06 5.797646e-06 -2.304502e-07
-6.540844e-06 -2.400383e-06 6.355339e-07
4.370103e-06 1.087542e-05 -5.925075e-22
-7.565513e-06 -6.945797e-06 2.216591e-06
7.247000e-06 2.192308e-06 -1.690726e-06
-3.258425e-06 9.867722e-06 -2.159470e-06
-9.986993e-06 3.112343e-06 2.123263e-06
9.769389e-07 6.989294e-06 -9.029327e-07
-4.817359e-06 -9.250536e-06 -2.139889e-06
-7.525947e-06 -5.566162e-06 -2.418372e-06
3.371806e-06 -9.769208e-06 -2.187347e-06
-1.032001e-05 -2.007930e-06 -2.093567e-06
-5.749167e-06 4.175687e-06 1.014854e-06
3.432059e-06 1.120685e-05 -5.925075e-22
5.191179e-06 -5.334685e-06 -1.549261e-06
4.675374e-06 9.442324e-06 -2.080135e-06
[...]
POINT_DATA 1172
VECTORS 10.000GHz_fone_imag double
2.732963e-03 -6.957076e-04 2.901024e-02
-1.774135e-03 1.063500e-05 3.047342e-02
-5.642057e-02 4.624392e-02 -1.068364e-01
-3.187539e-02 -2.459263e-02 2.046206e-02
8.201442e-02 7.156541e-03 -4.735421e-02
-2.358213e-02 -1.754271e-03 2.799973e-02
1.862001e-02 -1.478852e-02 2.795756e-02
4.795438e-03 9.054523e-03 3.116219e-02
-5.751379e-02 3.134010e-02 -2.582110e-03
1.021148e-02 -1.586343e-03 2.871680e-02
-4.633697e-02 -3.074397e-02 1.050555e-02
-7.770662e-02 -6.799741e-03 -3.383279e-02
6.514618e-03 -8.335022e-05 2.872367e-02
-5.625403e-03 3.130150e-02 -1.192148e-01
-6.228705e-02 8.023773e-03 4.749744e-03
1.778622e-03 5.050993e-02 1.603223e-02
-7.650961e-03 -1.422610e-02 -1.397955e-01
7.151019e-02 -5.420238e-03 -4.853644e-02
3.877516e-04 6.637342e-03 2.973498e-02
-9.218532e-03 -1.839564e-03 3.139654e-02
-1.123812e-02 2.299280e-02 2.657873e-02
-1.843915e-02 7.469042e-02 -3.382871e-02
4.783553e-02 2.028453e-02 6.558141e-03
1.985582e-02 -2.101284e-02 2.506602e-02
-3.640316e-02 -1.505553e-02 2.246838e-02
-1.574458e-02 1.594927e-02 -1.391177e-01
4.859137e-02 -5.669567e-02 -1.643022e-02
2.323604e-04 -5.829128e-02 1.854634e-03
7.816423e-02 -2.280457e-02 -4.283632e-02
1.918225e-02 6.017651e-02 -1.213946e-02
-3.412019e-02 -8.303264e-03 2.148354e-02
2.199384e-02 -1.213567e-02 2.628221e-02
2.573292e-02 -1.901655e-02 2.639069e-02
-7.821116e-03 -4.333970e-03 2.908350e-02
-5.275825e-02 -1.458195e-02 1.275504e-02
-3.181383e-02 1.280460e-02 2.139421e-02
-4.825582e-03 -8.019505e-03 2.841668e-02
-4.390942e-03 -4.940108e-02 1.499112e-02
-2.772391e-02 -4.650459e-02 -1.228129e-01
-5.719551e-02 4.781479e-02 -1.279601e-02
-6.347543e-03 -6.577899e-03 2.788924e-02
1.933491e-02 -1.619003e-02 2.881270e-02
-7.280682e-03 7.162046e-03 2.907305e-02
-3.744455e-02 -5.158909e-02 -9.555410e-02
-3.610110e-03 7.490260e-03 3.184170e-02
6.865906e-02 1.096938e-02 -8.243679e-02
-2.090175e-02 -6.409138e-02 -9.590529e-02
-4.310482e-02 -7.794911e-03 -1.125045e-01
1.843763e-02 -6.225005e-02 -1.156421e-01
-7.191283e-03 -8.557649e-03 2.858973e-02
-7.412344e-03 -4.924697e-03 2.802769e-02
5.334625e-02 3.078408e-02 -1.077830e-01
1.704126e-03 2.423476e-02 2.764141e-02
-3.439667e-02 4.221040e-02 -1.050734e-01
2.656544e-02 2.221519e-02 2.410858e-02
-1.183286e-02 7.056007e-02 -1.041459e-01
-4.372275e-02 6.516715e-02 -5.312176e-02
6.968808e-02 4.462205e-02 -5.627556e-02
2.173338e-02 7.873377e-02 -5.270875e-02
-9.671680e-05 -4.647308e-02 1.421682e-02
-4.146947e-02 5.012029e-03 1.831658e-02
6.995665e-03 -7.520406e-02 -7.293191e-02
3.281322e-02 -2.555427e-02 1.670849e-02
1.680108e-02 -1.094614e-02 -1.405087e-01
3.665473e-03 -2.524023e-02 2.870619e-02
-5.627278e-02 4.910020e-02 -8.862871e-02
-5.712312e-02 -4.665980e-02 -1.496327e-02
-1.239510e-02 -5.195222e-03 -1.433823e-01
-6.509033e-02 -3.062034e-02 -1.027692e-02
-2.141137e-02 3.864206e-02 -1.212563e-01
-3.823102e-02 -4.695298e-02 -1.199288e-01
1.156073e-02 7.154655e-02 -1.015564e-01
2.046145e-02 -5.324864e-02 -1.078785e-01
-3.433425e-02 5.824671e-02 -5.235206e-03
6.950366e-02 -2.265813e-02 -8.187315e-02
-3.670254e-02 -6.664559e-03 -1.367777e-01
-3.302044e-02 -2.041117e-02 1.769793e-02
-4.046797e-02 -6.815286e-02 -7.232717e-02
-4.384971e-03 4.203371e-02 -1.163109e-01
-4.728212e-02 -5.884357e-02 -1.874448e-02
4.267379e-02 -6.029299e-02 -1.460208e-02
-1.113211e-02 -5.844227e-02 6.205840e-05
-6.865003e-02 1.493395e-02 -1.047643e-01
-3.133804e-03 4.391688e-02 -1.158928e-01
7.033346e-03 1.156908e-03 -1.299761e-01
2.034891e-02 -1.078498e-02 2.727590e-02
-3.024725e-03 -1.053779e-02 3.136960e-02
-1.232549e-02 2.247688e-02 2.434567e-02
5.625770e-02 -1.445734e-02 2.262174e-03
6.680060e-02 -2.941717e-02 -1.419175e-02
8.299115e-02 7.240824e-03 -5.214963e-02
-8.948281e-03 1.424767e-03 3.081046e-02
1.203684e-02 -3.292124e-02 2.129603e-02
3.002153e-03 8.393985e-03 3.061874e-02
-6.297026e-02 -2.366555e-03 3.573514e-03
-4.116260e-02 -5.788629e-02 -6.626300e-03
-1.721087e-02 9.889909e-04 -1.282953e-01
-4.170336e-03 8.347521e-03 3.021974e-02
-1.562095e-02 -1.944225e-02 2.899521e-02
7.070140e-02 1.556850e-02 -1.290708e-02
2.578027e-02 4.477391e-02 1.287827e-02
2.143623e-02 -8.262990e-03 2.785672e-02
-1.535345e-02 5.419122e-02 1.062353e-02
-1.261510e-03 6.103996e-02 -1.905146e-04
1.150543e-02 -6.376291e-02 -7.235542e-04
3.810140e-02 1.870885e-03 2.155824e-02
3.557849e-02 6.811125e-02 -6.175728e-02
1.620552e-02 1.147995e-02 -1.431187e-01
-6.674039e-02 -2.174318e-02 -6.842165e-03
1.538046e-04 -8.408327e-03 3.124500e-02
6.001565e-03 2.532781e-02 2.597505e-02
6.597616e-02 -1.178142e-02 -6.317967e-03
-5.394505e-04 -1.190595e-03 3.090299e-02
7.679753e-02 -2.197370e-02 -4.321977e-02
-2.734716e-03 -7.381220e-03 3.162059e-02
-4.383737e-02 2.765665e-02 1.214306e-02
5.134342e-02 -1.356919e-02 6.978844e-03
-2.294226e-02 1.823570e-03 2.598177e-02
3.821004e-02 -5.235712e-02 -8.300954e-02
-7.713578e-02 -6.755356e-03 -8.714817e-02
-7.451536e-03 -1.557392e-03 3.152238e-02
-6.290836e-03 5.794846e-02 9.202237e-03
3.599000e-02 7.193727e-02 -4.176090e-02
3.575323e-02 3.842394e-02 1.224322e-02
4.535978e-02 3.115227e-02 -1.093810e-01
6.946182e-02 -1.331847e-02 -1.042321e-01
-3.162756e-02 7.395293e-02 -5.267190e-02
-2.848521e-02 -7.688149e-02 -7.219958e-02
-2.769542e-02 1.318642e-02 -1.261622e-01
8.161586e-02 1.841450e-02 -6.911418e-02
3.457635e-03 8.738440e-03 2.844532e-02
-5.193790e-02 -3.426166e-02 3.921405e-03
6.759540e-02 -3.964181e-03 -1.053561e-01
3.456853e-02 -3.379336e-02 1.755071e-02
3.197987e-02 -7.193106e-02 -2.652831e-02
1.638625e-02 -8.544158e-03 -1.456446e-01
3.696125e-04 2.556033e-02 2.736934e-02
7.639058e-03 -5.923114e-02 -9.544958e-02
6.012431e-02 -3.869616e-03 -1.200933e-01
5.456290e-02 -2.849272e-04 -1.154572e-01
1.705505e-02 6.784121e-02 -1.025100e-02
8.607361e-03 4.425809e-03 3.134246e-02
1.312276e-02 -2.521732e-02 2.555421e-02
7.690308e-03 6.136997e-03 2.875244e-02
3.879183e-02 -5.393717e-03 1.923100e-02
1.613555e-02 1.989621e-02 2.824064e-02
-7.669607e-02 3.005188e-02 -6.175662e-02
-1.670157e-02 -1.938590e-02 2.824953e-02
-1.423221e-02 -3.208262e-02 -1.220090e-01
-4.786935e-02 -6.439403e-02 -3.643896e-02
-2.373772e-02 -5.113400e-02 1.086287e-02
-1.713089e-03 2.392676e-02 2.532989e-02
2.172122e-02 9.231378e-03 2.636984e-02
-1.453120e-02 -1.801581e-02 2.971388e-02
2.652610e-02 -1.708109e-03 2.797166e-02
-2.110586e-02 -1.391543e-02 2.862381e-02
4.034394e-03 2.293329e-02 2.894680e-02
1.802079e-02 6.631867e-02 -2.268048e-02
-5.271947e-02 3.627234e-03 1.340774e-02
1.539842e-02 6.023692e-02 3.784310e-03
-2.923955e-02 -4.092603e-02 9.514642e-03
1.634432e-02 -3.809251e-02 -1.262317e-01
1.032329e-02 -2.166504e-02 2.667018e-02
-7.981480e-03 2.055700e-02 2.623873e-02
-6.576579e-02 3.351489e-02 -9.261735e-02
-1.401515e-02 1.515429e-02 2.963239e-02
-6.219518e-02 3.421891e-02 -1.059097e-01
-2.900731e-02 -6.816605e-02 -2.506405e-02
4.356657e-02 6.476277e-02 -2.437350e-02
7.025966e-03 2.142166e-03 3.122411e-02
-1.716003e-02 -9.267827e-03 2.691701e-02
-4.624046e-02 1.703984e-02 1.676988e-02
5.493881e-03 -8.771240e-04 3.022773e-02
-5.431580e-02 5.741759e-02 -5.800433e-02
7.477628e-03 1.993488e-02 2.639134e-02
-3.415392e-02 5.806290e-02 -4.715397e-03
-4.741549e-03 6.476631e-02 -1.443759e-02
8.377932e-03 5.472409e-03 3.180396e-02
5.268962e-02 3.719353e-02 -1.530458e-03
4.243634e-02 -6.681822e-02 -5.216930e-02
1.026197e-03 5.202537e-03 -1.435224e-01
6.634176e-02 2.679995e-02 -8.096919e-02
-1.553819e-02 1.999801e-02 2.712731e-02
5.714754e-02 6.026344e-02 -6.568596e-02
3.089220e-02 4.506310e-03 2.122376e-02
-2.409903e-02 8.553424e-03 2.603181e-02
4.050577e-02 2.624867e-02 1.574572e-02
5.398286e-03 -3.521773e-02 2.114490e-02
4.992009e-02 -1.745962e-02 1.223604e-02
3.396590e-02 -3.607129e-02 -1.262235e-01
-3.590393e-02 6.320982e-02 -2.814795e-02
-5.226064e-02 -5.247698e-02 -5.864834e-02
-1.329394e-02 -2.265037e-02 2.693923e-02
2.110149e-02 7.967769e-02 -6.539187e-02
-6.853614e-02 2.149064e-02 -2.625818e-02
-6.736632e-02 -3.025054e-02 -8.533030e-02
2.583394e-05 3.607967e-04 3.216438e-02
6.717672e-03 -6.998993e-02 -8.746203e-03
-1.534063e-02 -6.403467e-02 -9.448328e-03
8.871077e-03 7.056698e-02 -9.409666e-03
-4.651941e-03 6.246799e-02 -6.920247e-03
5.388354e-02 9.978828e-03 1.265351e-02
5.230809e-02 -3.970509e-02 6.117480e-05
1.986619e-02 -6.605437e-02 -1.187059e-02
3.364147e-02 -4.264329e-02 3.509202e-03
-1.211076e-02 6.357419e-02 -4.892663e-04
-2.698921e-02 4.602451e-02 7.577353e-03
-4.940412e-04 -6.761920e-04 3.198911e-02
9.474430e-03 1.241553e-02 -1.271951e-01
7.693811e-02 -2.892050e-02 -5.260488e-02
-2.678835e-02 -5.456280e-02 7.920504e-03
-3.020628e-02 -2.550454e-02 -1.276978e-01
-1.110996e-02 -5.173829e-02 9.648501e-03
-2.495362e-02 3.413464e-02 -1.204048e-01
-7.565472e-04 -4.355003e-02 -1.203711e-01
-3.692726e-02 3.790178e-02 1.220752e-02
-4.353975e-02 -8.764409e-03 1.697117e-02
-4.923747e-02 1.532738e-03 1.141023e-02
1.328943e-03 1.398687e-04 3.174003e-02
-3.868025e-02 2.263182e-02 1.336887e-02
4.821209e-02 2.014037e-02 1.367541e-02
-8.049157e-03 1.144444e-02 -1.375609e-01
-4.035797e-02 7.756747e-03 1.906426e-02
2.978147e-02 3.013711e-02 1.828864e-02
4.517568e-02 -3.190852e-03 1.480918e-02
6.969007e-03 -7.585053e-02 -5.089998e-02
1.613455e-02 4.017455e-02 1.426915e-02
-5.381152e-03 1.031952e-02 -1.458668e-01
3.566318e-02 1.244399e-02 -1.424846e-01
-9.445666e-05 1.299944e-03 2.971431e-02
3.349173e-02 3.027010e-02 1.601439e-02
7.458120e-02 2.681555e-02 -9.018803e-02
-1.236102e-02 3.939550e-02 1.891283e-02
4.062606e-02 -1.418683e-02 2.048953e-02
4.769280e-03 4.212028e-02 -1.276700e-01
-1.929872e-02 -3.821759e-02 2.089075e-02
-5.094608e-02 -4.121482e-02 -1.523852e-03
1.543784e-02 -4.201418e-02 1.791410e-02
-3.797974e-02 -8.752625e-03 1.966272e-02
4.317385e-02 -2.467299e-02 -1.230864e-01
-1.075068e-04 3.276169e-05 2.886797e-02
5.165267e-02 -4.359197e-02 -8.870448e-02
1.870943e-02 3.675646e-02 2.008057e-02
3.781192e-03 -3.942637e-02 2.041623e-02
-3.077830e-02 -2.448955e-02 2.067499e-02
1.986255e-02 -3.561412e-02 2.166901e-02
3.473404e-02 -3.891638e-02 1.194659e-02
2.280555e-02 3.241664e-02 2.117903e-02
3.903604e-02 7.140008e-03 2.118295e-02
3.957172e-02 4.445583e-02 -1.045371e-01
3.451022e-03 3.723907e-02 1.922657e-02
8.753747e-05 -3.140979e-04 2.926957e-02
-3.138047e-02 2.228762e-02 2.330638e-02
-2.610137e-02 -3.197873e-02 2.048366e-02
6.998073e-03 -5.343247e-03 -1.417682e-01
-2.523328e-03 -3.445503e-02 2.044823e-02
-2.235071e-02 2.789019e-02 2.171253e-02
2.390206e-02 6.658508e-02 -7.944705e-02
-3.038536e-02 -6.628058e-02 -8.311055e-02
-2.308369e-02 7.957762e-02 -8.045150e-02
-7.771384e-02 -6.476383e-03 -3.881866e-02
-2.565998e-02 -3.132616e-02 2.271863e-02
3.575998e-04 2.209655e-04 3.216609e-02
-3.479278e-02 -7.277108e-02 -6.424557e-02
-1.336929e-03 3.463698e-02 2.381352e-02
-3.190306e-02 -1.636484e-02 2.506763e-02
2.773433e-02 1.769531e-02 2.444399e-02
3.506195e-03 6.443696e-02 -1.145974e-01
4.918089e-02 -1.260998e-02 1.070581e-02
-1.416738e-02 2.781194e-02 2.364175e-02
3.161781e-02 -1.692179e-02 2.456850e-02
1.700517e-02 -2.902800e-02 2.661759e-02
-2.437103e-02 -1.931393e-02 -1.263450e-01
3.589842e-04 8.128650e-04 2.985518e-02
2.077453e-02 -7.027665e-02 -7.241473e-02
-3.585504e-02 1.041172e-02 1.980237e-02
-1.101753e-02 3.189577e-02 2.263258e-02
6.880630e-02 -4.911294e-03 -1.115241e-01
9.670492e-03 -5.172093e-02 -1.264897e-01
6.137024e-02 4.091714e-02 -2.222056e-02
8.537840e-03 3.050507e-02 2.335391e-02
-2.349393e-02 -3.021948e-02 -1.274410e-01
2.210283e-02 2.716512e-02 2.228988e-02
-5.757759e-02 4.512359e-02 -9.779192e-02
3.350986e-04 3.375161e-05 3.082166e-02
-1.365127e-03 1.094522e-04 2.982111e-02
2.254815e-02 -2.170582e-02 2.541166e-02
2.036637e-02 -1.051320e-02 2.626264e-02
2.539843e-02 -4.133309e-03 2.819318e-02
-7.325195e-02 1.444088e-02 -7.866868e-02
2.166709e-02 2.632381e-03 2.971211e-02
-6.768364e-02 -2.353463e-02 -9.835537e-02
7.113836e-02 -4.640575e-03 -2.959391e-02
-8.123079e-02 -1.799691e-02 -3.309252e-02
-2.959577e-02 6.986377e-02 -7.224860e-02
4.502430e-03 -3.172065e-02 2.800282e-02
3.403094e-04 1.055448e-04 2.978932e-02
3.235632e-02 6.563547e-02 -7.100487e-02
-5.743682e-02 3.851441e-02 -1.679141e-02
-5.909744e-02 -3.882967e-02 -2.079692e-02
9.994700e-03 2.547924e-03 -1.369375e-01
9.080109e-03 2.722808e-02 2.583747e-02
-9.343853e-03 -2.739359e-02 2.329453e-02
7.712869e-02 2.854119e-02 -4.446494e-02
2.207453e-02 -1.950635e-02 2.775501e-02
-3.649753e-03 2.789571e-02 2.279864e-02
7.929474e-03 -2.832107e-02 2.220039e-02
1.420258e-04 -5.767195e-04 2.903903e-02
5.013361e-02 -2.161475e-02 5.207936e-03
-7.890036e-03 -2.658860e-02 2.408663e-02
6.344502e-02 -4.122459e-02 -6.728296e-02
-6.651393e-02 2.930230e-02 -9.851218e-02
2.455750e-02 9.388195e-03 2.335785e-02
4.917219e-02 5.162929e-02 -9.287121e-02
-4.550911e-02 5.568859e-02 -9.512332e-02
-2.436142e-02 1.746785e-02 2.638533e-02
1.945702e-02 -3.190942e-02 -1.378684e-01
6.590208e-02 2.779235e-02 -1.026018e-02
5.787615e-04 6.363453e-04 2.965856e-02
-2.663005e-02 9.032811e-03 2.556027e-02
-7.696393e-03 -8.495190e-02 -5.016236e-02
-2.494096e-03 -4.755879e-02 -1.345864e-01
1.810538e-02 -2.276041e-02 2.855734e-02
-6.667928e-02 1.426518e-02 -2.747546e-02
3.622193e-02 -4.453795e-02 -1.233469e-01
-4.033937e-03 2.635265e-02 2.305459e-02
3.856561e-03 7.543379e-02 -4.368824e-02
-1.774927e-03 -2.601584e-02 2.534739e-02
5.296020e-02 5.498033e-02 -2.494910e-02
-1.352326e-03 -5.472776e-04 3.038622e-02
-5.315126e-02 4.043999e-02 -1.101587e-02
7.252546e-02 -4.326671e-02 -6.158929e-02
-1.974662e-02 -7.582364e-02 -2.822834e-02
-1.443654e-02 1.879661e-02 2.525628e-02
-6.365169e-02 -3.855205e-02 -6.293520e-02
-2.602775e-02 -6.201425e-04 2.859517e-02
-1.233458e-02 -2.133576e-02 2.957370e-02
2.225182e-02 -7.436403e-02 -2.296000e-02
1.473827e-02 -1.971757e-02 2.864739e-02
5.405973e-02 -5.310934e-02 -4.470942e-02
1.000167e-03 3.821493e-04 3.024777e-02
-1.619066e-02 -6.308817e-02 -1.096102e-01
-2.855285e-02 -2.651988e-02 2.169220e-02
-2.722216e-03 7.658198e-02 -3.456263e-02
5.164001e-02 -5.152696e-02 -1.830595e-02
-5.677509e-02 -5.789697e-02 -7.116109e-02
-4.296337e-02 5.945308e-02 -2.898902e-02
-3.686553e-02 -5.395049e-02 -7.959224e-03
-1.713329e-03 9.812864e-03 -1.303943e-01
-2.292688e-02 -8.444567e-03 2.839654e-02
-5.745007e-02 1.471003e-02 -1.113537e-01
-4.033720e-04 1.326104e-03 2.999415e-02
-1.708759e-02 -1.754023e-02 2.859791e-02
-2.109930e-02 6.167423e-02 -1.265470e-02
-1.169035e-02 2.116329e-02 2.870266e-02
2.838192e-02 -6.242774e-02 -1.628671e-02
2.606874e-02 -4.603233e-03 2.858507e-02
9.917184e-03 2.175121e-02 2.898427e-02
-1.667938e-02 1.726509e-02 2.811201e-02
-2.269574e-02 -8.708391e-03 2.862404e-02
5.688349e-02 5.295400e-02 -2.755563e-02
-9.448255e-03 -7.611746e-02 -4.453333e-02
2.265265e-04 -6.946047e-04 3.182536e-02
-6.068656e-02 -8.282900e-03 -1.011787e-01
2.199463e-02 4.857369e-03 2.698725e-02
-1.169163e-02 5.520536e-02 -1.109697e-01
-6.867526e-02 -2.772061e-02 -1.116385e-02
1.811525e-02 1.499828e-02 2.751326e-02
3.984947e-03 -2.354138e-02 2.862338e-02
5.335006e-02 -2.317248e-02 -2.635308e-03
-2.325453e-02 6.864928e-04 2.701508e-02
2.219046e-02 1.149216e-03 2.822497e-02
2.396639e-02 1.489770e-02 -1.239104e-01
1.911414e-04 1.232215e-03 2.971299e-02
2.351769e-02 1.147608e-02 2.548659e-02
-2.315105e-04 2.279335e-02 2.939691e-02
5.401055e-02 3.004621e-02 -4.532093e-03
5.872006e-02 -1.662154e-02 -1.193290e-01
-3.699590e-03 1.648549e-02 -1.422418e-01
-2.323379e-02 7.509485e-03 2.640324e-02
-2.184006e-02 -2.199742e-03 2.926451e-02
2.764006e-02 -5.704547e-02 4.559122e-04
-3.351545e-02 6.361488e-02 -9.187522e-02
5.841297e-02 -2.506510e-02 -1.017746e-01
-1.478903e-03 -9.734465e-04 2.941750e-02
-6.375627e-02 3.348130e-02 -2.715747e-02
5.950730e-02 1.360514e-02 -1.591360e-03
-1.828414e-02 -1.521618e-02 -1.418612e-01
-3.336956e-02 4.762303e-02 6.627357e-03
-1.373638e-02 8.140184e-03 -1.360625e-01
1.582559e-02 -1.822965e-02 2.537676e-02
-9.931398e-03 7.495744e-03 -1.349229e-01
1.733534e-02 -1.196225e-02 2.759939e-02
2.179466e-02 -8.322079e-03 2.609705e-02
1.568004e-02 1.670402e-02 2.917022e-02
2.058941e-04 5.636801e-04 2.904120e-02
1.603767e-03 -2.669233e-04 2.908844e-02
-1.829547e-02 8.378029e-02 -5.798430e-02
1.507588e-02 1.608500e-02 2.565803e-02
-1.755872e-02 9.787279e-03 2.797130e-02
6.728021e-02 4.015772e-03 -2.121808e-03
-3.162937e-03 -2.134930e-02 2.684892e-02
5.003949e-02 1.021204e-02 -1.158348e-01
-2.032727e-02 -1.252819e-02 2.967687e-02
1.486241e-02 1.420313e-02 2.885473e-02
-5.326286e-02 2.285708e-02 6.887419e-03
-2.031114e-02 1.143349e-02 2.933010e-02
3.633911e-04 -2.656141e-04 3.218392e-02
-1.708334e-02 6.842156e-02 -7.742815e-03
6.524963e-03 -1.211061e-02 -1.436267e-01
2.401429e-02 6.662650e-02 -1.493397e-02
-2.199482e-02 -7.777686e-02 -4.549688e-02
-6.174879e-02 2.096042e-02 6.941758e-04
9.450395e-03 -1.850273e-02 2.943310e-02
5.513143e-03 -7.636995e-02 -7.868585e-02
-5.919265e-02 -4.491552e-02 -9.029550e-02
3.333691e-03 -2.041480e-02 2.911665e-02
3.999506e-02 6.438308e-02 -8.940017e-02
-3.409817e-04 3.565570e-04 3.232121e-02
-7.745489e-02 9.269562e-03 -2.386852e-02
7.447832e-02 -1.243059e-02 -3.987296e-02
-1.249770e-02 -1.945180e-02 2.892110e-02
7.287946e-02 1.287008e-02 -3.616112e-02
1.068584e-02 2.120789e-02 2.758833e-02
2.621658e-02 4.173833e-02 1.396352e-02
-2.389374e-02 -6.007158e-02 -9.542599e-03
-4.842445e-02 5.427187e-02 -3.361262e-02
-2.355359e-02 2.747545e-03 2.861952e-02
-7.738220e-03 2.140974e-02 2.641736e-02
-2.464799e-04 1.034534e-04 2.932542e-02
3.293278e-02 6.405034e-02 -1.027106e-02
-5.303784e-02 6.048210e-02 -8.131879e-02
-7.496725e-03 -1.794989e-02 2.863609e-02
-6.833231e-02 -1.156957e-02 -1.077965e-02
4.856886e-02 -6.747402e-02 -4.703748e-02
2.517100e-04 1.282904e-02 -1.439061e-01
7.137215e-03 2.111732e-02 2.954976e-02
9.404051e-04 -1.916603e-02 2.962237e-02
-6.540921e-03 1.936708e-02 3.025187e-02
3.819110e-02 4.707917e-02 4.542571e-03
-1.624308e-04 -8.957142e-05 2.977548e-02
-9.684571e-04 -6.877455e-02 -3.256959e-03
-5.024715e-03 -2.218031e-02 2.881359e-02
6.301332e-02 -1.097290e-02 3.118587e-03
3.570690e-02 -5.159762e-02 2.778586e-03
9.867496e-03 -4.883795e-02 1.065634e-02
8.118686e-03 -1.617884e-02 3.019123e-02
-3.569231e-02 -3.535729e-02 1.122988e-02
1.945189e-02 7.456718e-02 -9.039492e-02
-2.389753e-02 3.478997e-02 -1.285223e-01
-6.163770e-02 -6.504955e-03 5.093720e-03
9.307489e-04 4.900793e-05 2.982219e-02
7.025528e-02 3.186274e-02 -6.433694e-02
-4.785687e-02 1.778154e-02 -1.099517e-01
-4.696290e-02 -1.443751e-02 1.561161e-02
-1.483554e-02 1.630926e-02 3.038405e-02
-7.982324e-03 1.835957e-02 2.620948e-02
5.500393e-02 4.373275e-02 -4.080846e-03
5.764422e-02 -2.636680e-02 -9.638721e-02
1.492792e-02 -6.404019e-02 -1.052888e-01
-5.235497e-02 -5.719816e-02 -7.104920e-02
-1.160076e-02 -1.213157e-02 3.084571e-02
-6.623986e-04 2.707992e-04 2.891861e-02
4.535372e-02 2.732956e-02 1.209404e-02
-3.200943e-02 -2.089118e-02 1.895740e-02
-2.434544e-02 5.421149e-02 8.409626e-03
2.582684e-02 -4.289571e-02 -1.080170e-01
1.790573e-03 2.071728e-02 3.014772e-02
-2.106094e-02 -7.639766e-03 -1.401521e-01
-5.285331e-02 -2.788922e-02 2.562312e-03
8.477484e-03 1.785763e-02 2.775159e-02
-2.176510e-02 -5.020042e-03 2.957395e-02
1.502209e-02 7.842974e-02 -7.616661e-02
-1.968067e-05 -1.066929e-05 3.280980e-02
1.616925e-02 -1.100851e-02 2.960753e-02
3.939341e-03 1.865976e-02 2.942019e-02
3.130250e-03 6.910095e-02 -8.165727e-03
-5.015221e-03 -6.299565e-02 -5.050085e-04
3.396485e-02 3.678816e-02 1.028374e-02
-9.949565e-03 -4.511795e-02 1.818725e-02
-4.286399e-02 2.228104e-02 1.497199e-02
1.829227e-02 5.436912e-02 1.016292e-02
1.677945e-02 -4.948054e-02 1.237537e-02
-4.729347e-02 -1.516376e-02 9.470476e-03
-4.029263e-04 -1.025432e-04 3.254184e-02
1.222396e-02 1.851388e-02 -1.325484e-01
1.853421e-02 -7.354191e-02 -5.698822e-02
-2.763339e-02 -4.103157e-02 1.147187e-02
-4.487717e-04 1.868529e-02 2.709756e-02
-3.811443e-02 -6.034293e-02 -6.948284e-02
-4.607767e-02 -2.575224e-02 1.268324e-02
7.040720e-04 -4.888690e-02 1.531401e-02
4.425091e-02 5.972692e-03 -1.167912e-01