# vtk DataFile Version 2.0
Electric current density generated by TTH
ASCII
DATASET UNSTRUCTURED_GRID
POINTS 3498 double
-7.475751e-06 2.998360e-05 -2.811149e-22
1.339362e-05 2.528779e-05 -1.490707e-07
3.031564e-05 3.395841e-06 -8.675223e-07
-2.629926e-05 1.551004e-05 -8.434578e-07
1.016001e-06 3.048288e-05 8.722026e-07
2.694271e-05 -1.065775e-05 8.422545e-07
1.155451e-05 2.618204e-05 1.672426e-07
2.980920e-05 -6.445942e-06 8.735958e-07
-3.094769e-06 2.886921e-05 -8.944939e-07
-2.004505e-05 2.098128e-05 8.805018e-07
2.800895e-05 -1.211558e-05 8.571770e-07
-8.171414e-06 2.980153e-05 -2.811149e-22
-1.476245e-05 -2.490572e-05 8.213695e-07
-2.195727e-05 -1.887069e-05 8.213695e-07
-3.366950e-06 -2.875589e-05 8.215839e-07
1.040526e-05 2.671609e-05 -3.803083e-07
2.080461e-07 2.884565e-05 -7.028444e-07
1.664033e-05 -2.374119e-05 -8.586288e-07
-1.936735e-05 2.348565e-05 -9.190586e-07
4.690414e-06 2.835734e-05 5.430534e-07
9.183818e-06 2.714025e-05 -3.215039e-07
-2.728436e-05 1.370257e-05 8.436946e-07
-8.862652e-06 2.960332e-05 -2.811149e-22
1.046879e-05 -2.863320e-05 8.830160e-07
-2.973447e-05 6.760509e-06 -8.777000e-07
2.014465e-05 2.117681e-05 -1.020126e-06
2.014465e-05 -2.117681e-05 -1.020126e-06
2.809026e-05 -5.692396e-06 -3.516455e-07
2.492911e-05 1.767258e-05 8.190194e-07
2.492911e-05 -1.767258e-05 8.190194e-07
2.825827e-05 -1.142271e-05 -8.890597e-07
2.691820e-05 1.042686e-05 7.287726e-07
2.896093e-05 -4.250213e-06 -1.041335e-06
-9.549091e-06 2.938908e-05 -2.811149e-22
2.132915e-05 2.177679e-05 -8.870053e-07
2.132915e-05 -2.177679e-05 -8.870053e-07
-2.746585e-05 1.051401e-05 1.094882e-06
-2.661245e-05 -1.081604e-05 5.117829e-07
2.839783e-05 6.357125e-06 9.438163e-07
-1.073811e-05 2.683118e-05 -7.672398e-07
2.362456e-05 1.939777e-05 8.090627e-07
2.362456e-05 -1.939777e-05 8.090627e-07
-1.476428e-05 2.463937e-05 5.073315e-07
5.356450e-06 2.998441e-05 9.054407e-07
-1.023036e-05 2.915893e-05 -2.811149e-22
2.997173e-05 6.007077e-06 8.091268e-07
2.862595e-05 -7.424651e-06 -1.133435e-06
1.676248e-05 -2.550839e-05 8.517346e-07
1.432679e-05 2.693602e-05 8.641518e-07
-9.078705e-06 -2.908875e-05 8.947692e-07
-2.738858e-05 -1.335830e-05 8.947692e-07
4.240964e-06 -3.017602e-05 8.947692e-07
2.492834e-05 -1.765743e-05 -8.281357e-07
2.572416e-05 1.651349e-05 -8.084912e-07
2.946001e-05 -8.006572e-06 8.466979e-07
-1.090609e-05 2.891298e-05 -2.811149e-22
-2.867256e-05 5.363080e-06 -9.880803e-07
3.388487e-06 -2.888708e-05 -9.328627e-07
-8.034400e-06 -2.793235e-05 -9.180097e-07
-2.583830e-05 -1.334234e-05 -9.290249e-07
-2.789402e-05 1.242135e-05 8.411254e-07
1.511476e-05 -2.652848e-05 8.434055e-07
-2.643340e-05 1.093578e-05 2.074172e-08
2.529808e-05 1.352468e-05 4.219476e-07
2.529808e-05 -1.352468e-05 4.219476e-07
1.420310e-05 -2.549375e-05 -9.958688e-07
-1.157591e-05 2.865138e-05 -2.811149e-22
1.543539e-05 2.628991e-05 -8.836233e-07
-1.387661e-05 2.719204e-05 8.471415e-07
-2.291133e-05 1.716349e-05 2.192244e-07
2.718137e-05 -1.379328e-05 -8.880710e-07
2.718137e-05 1.379328e-05 -8.880710e-07
-1.148261e-05 -2.686303e-05 1.013030e-06
-2.946295e-05 8.078577e-06 8.262171e-07
-1.538571e-05 2.636977e-05 8.453843e-07
-3.052019e-05 -1.046753e-06 8.379004e-07
1.852996e-05 2.257035e-05 1.006623e-06
-1.223946e-05 2.837426e-05 -2.811149e-22
1.852996e-05 -2.257035e-05 1.006623e-06
-1.757945e-05 2.492755e-05 8.696430e-07
1.500522e-05 -2.478734e-05 -8.433959e-07
1.487846e-05 2.466533e-05 -6.463500e-07
2.539688e-05 -1.465299e-05 -1.062957e-06
2.539688e-05 1.465299e-05 -1.062957e-06
2.119535e-05 -2.105150e-05 1.141508e-06
2.119535e-05 2.105150e-05 1.141508e-06
-1.840646e-05 -2.253330e-05 9.401954e-07
8.941557e-06 2.915999e-05 8.719408e-07
-1.289639e-05 2.808178e-05 -2.811149e-22
2.841624e-05 5.169455e-06 7.472717e-07
-2.866306e-05 4.742315e-06 9.087568e-07
-5.210664e-06 2.860187e-05 9.237703e-07
-6.373737e-06 2.988680e-05 8.179811e-07
2.014610e-05 2.290493e-05 8.684945e-07
2.014610e-05 -2.290493e-05 8.684945e-07
-2.618992e-05 1.549392e-05 9.275085e-07
2.170387e-05 1.887498e-05 5.797609e-07
2.170387e-05 -1.887498e-05 5.797609e-07
9.376912e-06 2.775843e-05 1.053986e-06
-1.354633e-05 2.777409e-05 -2.811149e-22
-2.833618e-05 6.624907e-06 9.435625e-07
-3.056984e-05 -8.983774e-07 -7.934867e-07
-2.859839e-05 7.899730e-06 -1.144634e-06
1.132293e-05 -2.635017e-05 -4.052744e-07
-2.913128e-05 -2.195376e-06 -1.012834e-06
-1.786622e-05 2.234145e-05 3.862189e-08
-2.901239e-05 9.516028e-06 8.425300e-07
1.805771e-05 2.243539e-05 -6.381329e-07
1.220336e-05 2.800111e-05 -8.316142e-07
-3.053888e-05 6.212213e-07 -8.312269e-07
-1.418894e-05 2.745136e-05 -2.811149e-22
-2.943888e-05 2.434741e-06 1.127540e-06
2.833234e-05 -7.670106e-06 1.075200e-06
-2.884352e-05 -2.915395e-06 8.571477e-07
8.799051e-06 -2.789801e-05 1.032601e-06
-2.917911e-05 1.741967e-06 -1.021801e-06
2.910539e-05 -6.578786e-06 -1.144522e-06
-2.123815e-05 1.949979e-05 -6.842289e-07
-2.807400e-05 7.505899e-06 9.143820e-07
2.849463e-05 2.798598e-06 2.415140e-07
2.773044e-05 -8.602452e-06 8.940912e-07
-1.482386e-05 2.711377e-05 -2.811149e-22
2.933285e-05 1.082760e-06 1.075430e-06
1.405047e-05 2.529038e-05 -8.005122e-07
-2.095042e-05 -2.219168e-05 8.556760e-07
2.878180e-05 3.960394e-06 -9.089680e-07
1.352015e-05 -2.601352e-05 1.061463e-06
-2.818258e-05 -7.185780e-06 9.322239e-07
-6.193995e-06 2.878687e-05 1.105621e-06
-2.745101e-05 -9.740796e-06 9.621470e-07
2.694923e-05 -1.030239e-05 -7.091866e-07
-5.155320e-06 2.905535e-05 -1.121371e-06
-1.545075e-05 2.676149e-05 -2.811149e-22
-3.029409e-05 -3.967387e-06 8.239484e-07
-1.691493e-05 -2.308186e-05 -1.524986e-07
2.823926e-05 6.032120e-06 -7.398661e-07
-2.932887e-05 -1.637323e-06 1.083277e-06
-1.938412e-05 2.223829e-05 1.119469e-06
-1.907225e-05 -2.389525e-05 8.034208e-07
2.944360e-05 -8.195920e-06 -8.138833e-07
-2.753283e-05 9.395235e-06 9.375385e-07
-1.910073e-05 -2.194888e-05 9.407221e-07
2.779673e-05 -8.650541e-06 -9.513289e-07
-1.606928e-05 2.639472e-05 -2.811149e-22
-8.099749e-06 2.744204e-05 1.211030e-07
1.048231e-05 -2.723019e-05 -9.929347e-07
4.386451e-06 -2.838295e-05 -4.984219e-07
2.249446e-05 1.816038e-05 7.782701e-07
2.249446e-05 -1.816038e-05 7.782701e-07
3.030168e-05 -3.681965e-06 -8.504042e-07
-2.484097e-05 1.768313e-05 8.787524e-07
-2.938844e-05 -5.908247e-07 -1.090021e-06
1.241060e-05 -2.800296e-05 -7.414513e-07
-2.597761e-05 -1.222818e-05 -4.811433e-07
-1.667911e-05 2.601366e-05 -2.811149e-22
-8.940413e-06 -2.723518e-05 -3.633564e-07
6.970554e-06 -2.838978e-05 1.022793e-06
1.278859e-05 2.629457e-05 1.026111e-06
-2.852139e-05 2.229202e-06 7.322834e-08
1.621484e-05 2.455910e-05 1.100853e-06
-2.679949e-05 1.137275e-05 9.520495e-07
-2.277366e-05 2.033176e-05 8.463541e-07
2.912227e-05 -9.129016e-06 8.548796e-07
2.852472e-05 -1.096764e-05 8.163119e-07
-9.757890e-06 -2.760881e-05 1.046508e-06
-1.727990e-05 2.561851e-05 -2.811149e-22
-2.677819e-05 -1.184868e-05 1.046508e-06
2.650055e-05 -1.523065e-05 -8.113818e-07
2.643550e-05 1.534433e-05 -8.108491e-07
-2.462236e-05 1.489521e-05 6.030245e-07
-2.469023e-06 2.850663e-05 1.294116e-07
1.350177e-05 -2.525974e-05 -2.842709e-07
5.312493e-07 -3.054675e-05 -8.253116e-07
2.941337e-05 -3.423784e-06 1.138945e-06
2.822255e-05 1.178356e-05 -7.927576e-07
-2.562118e-05 -1.664158e-05 -8.252912e-07
-1.787134e-05 2.520949e-05 -2.811149e-22
-1.894709e-05 -2.396655e-05 -8.252912e-07
6.876012e-06 2.887937e-05 -1.145775e-06
-2.906642e-05 3.806045e-06 1.060372e-06
9.087221e-06 2.796419e-05 -1.093028e-06
5.155185e-06 -2.880922e-05 1.039321e-06
-3.030540e-05 4.015240e-06 8.066510e-07
-1.100904e-05 2.757354e-05 1.145968e-06
1.521737e-05 -2.644341e-05 -8.639173e-07
1.412530e-05 -2.500206e-05 4.909186e-07
6.886155e-06 -2.979185e-05 -7.993986e-07
-1.845310e-05 2.478682e-05 -2.811149e-22
-7.000093e-07 -2.927993e-05 -1.049114e-06
-1.714804e-05 -2.375151e-05 -1.052005e-06
-2.388389e-05 -1.695277e-05 -1.049359e-06
1.223018e-05 -2.654881e-05 -1.021468e-06
-8.826865e-06 2.817092e-05 -1.123974e-06
-1.594850e-05 -2.471837e-05 1.097180e-06
-2.302041e-05 -1.832404e-05 1.099026e-06
-2.318318e-06 -2.933152e-05 1.099042e-06
6.693496e-06 2.872257e-05 1.117533e-06
1.381268e-05 -2.733800e-05 -7.420777e-07
-1.902487e-05 2.435072e-05 -2.811149e-22
-2.839259e-05 3.502160e-06 6.309517e-08
5.795323e-06 -2.813063e-05 5.014881e-07
-2.308137e-05 1.838508e-05 1.121259e-06
-2.467416e-05 1.582447e-05 -1.059558e-06
-1.779769e-05 2.488857e-05 -7.782303e-07
-8.760125e-06 -2.740685e-05 5.958633e-07
-2.595569e-05 -1.241156e-05 5.921052e-07
-2.620034e-05 1.259479e-05 9.221024e-07
1.878258e-05 2.168199e-05 -4.212375e-07
1.878258e-05 -2.168199e-05 -4.212375e-07
-1.958633e-05 2.390144e-05 -2.811149e-22
-2.486824e-05 1.468053e-05 -7.420143e-07
-2.790464e-05 6.980849e-06 -5.820752e-07
2.845708e-05 -6.612469e-06 1.013550e-06
2.201971e-05 -2.125149e-05 -7.729792e-07
2.201971e-05 2.125149e-05 -7.729792e-07
4.245611e-06 -2.845804e-05 5.961492e-07
-1.693330e-05 2.410106e-05 1.108175e-06
1.512007e-05 -2.429335e-05 -1.382634e-07
-1.301205e-05 -2.768946e-05 7.813980e-07
4.296311e-06 -3.030348e-05 -7.681869e-07
-2.013719e-05 2.343921e-05 -2.811149e-22
3.351441e-06 2.842884e-05 2.115885e-07
9.894325e-06 -2.897727e-05 7.530440e-07
-3.015192e-05 -5.292019e-06 7.611613e-07
-2.072288e-05 2.248340e-05 7.999490e-07
7.022609e-06 -2.777858e-05 -3.233176e-07
2.609559e-05 -1.574727e-05 8.897557e-07
2.609172e-05 1.575523e-05 8.890989e-07
-2.753608e-05 7.756933e-06 6.352491e-08
-2.673913e-06 3.044729e-05 8.124430e-07
-1.341712e-05 2.527827e-05 1.677059e-07
-2.067714e-05 2.296430e-05 -2.811149e-22
8.342206e-06 -2.943639e-05 7.800948e-07
-1.146786e-05 -2.623348e-05 -2.358717e-07
3.065889e-05 -1.819751e-06 -6.304572e-07
2.992733e-05 6.697819e-06 -6.943330e-07
-2.378244e-06 3.048622e-05 -7.978423e-07
2.079763e-05 2.000824e-05 7.194432e-07
2.079763e-05 -2.000824e-05 7.194432e-07
-3.058887e-05 1.155007e-06 7.635644e-07
-6.579611e-06 2.985934e-05 -8.011201e-07
-2.924927e-05 -3.856592e-06 1.119880e-06
-2.120590e-05 2.247694e-05 -2.811149e-22
-2.936403e-05 -8.709535e-06 -7.431259e-07
[...]
POINT_DATA 3498
VECTORS 10.000GHz_fone_imag double
2.458228e+10 6.886695e+09 7.410007e+08
2.948826e+10 -1.806153e+10 9.331656e+08
3.627856e+09 -2.667326e+10 -4.052651e+07
1.218659e+10 2.262036e+10 3.366521e+08
2.603082e+10 -1.062025e+09 4.685718e+08
-1.152827e+10 -2.995491e+10 5.135238e+08
3.079552e+10 -1.323339e+10 -1.456910e+09
-4.374582e+09 -2.627111e+10 -3.288210e+08
3.245166e+10 1.911063e+09 -1.967363e+09
2.352403e+10 2.073672e+10 1.394347e+08
-9.829873e+09 -2.358038e+10 -5.280466e+08
2.480521e+10 6.213620e+09 -5.893150e+08
-2.843835e+10 1.641387e+10 2.602194e+08
-2.301899e+10 2.544826e+10 -1.293935e+08
-3.269710e+10 5.119926e+09 -4.983730e+08
3.191864e+10 -1.160698e+10 3.095400e+08
3.198110e+10 -9.071001e+08 4.195569e+07
-2.740631e+10 -1.981585e+10 6.285803e+08
2.270640e+10 1.737960e+10 -8.071858e+08
3.240514e+10 -5.530193e+09 4.704554e+08
3.261070e+10 -1.048872e+10 -1.107390e+09
1.187091e+10 2.364868e+10 -1.128042e+09
2.358054e+10 8.662851e+09 -1.763370e+08
-2.519423e+10 -7.351030e+09 1.625813e+09
5.695770e+09 2.558202e+10 -5.912835e+08
2.425099e+10 -2.271039e+10 4.995434e+08
-2.316773e+10 -2.192565e+10 -2.453031e+08
-6.141274e+09 -3.318675e+10 -3.878621e+08
1.452793e+10 -2.169779e+10 -3.721817e+08
-1.517260e+10 -2.188459e+10 -1.084916e+08
-9.587262e+09 -2.419257e+10 3.132354e+08
1.242190e+10 -3.093972e+10 1.235533e+09
-3.975865e+09 -3.129382e+10 -4.703159e+08
2.369990e+10 7.845890e+09 6.810048e+08
1.951420e+10 -2.080448e+10 -5.770392e+08
-1.953576e+10 -2.038035e+10 2.954540e+08
1.145017e+10 3.193229e+10 3.048085e+08
-1.248672e+10 3.058147e+10 4.692859e+07
7.189091e+09 -3.153771e+10 2.841184e+08
2.885881e+10 1.202998e+10 3.291365e+08
1.654196e+10 -2.048173e+10 7.039012e+08
-1.604673e+10 -2.047356e+10 -1.016151e+09
2.847086e+10 1.646194e+10 -1.162321e+09
2.686957e+10 -6.104133e+09 9.252324e+08
2.439078e+10 6.455198e+09 7.048623e+08
4.665673e+09 -2.508609e+10 -5.907518e+08
-7.138869e+09 -2.921334e+10 1.091521e+09
-2.155930e+10 -1.456579e+10 6.694634e+07
2.346236e+10 -1.239566e+10 2.103515e+08
-2.454107e+10 7.411701e+09 -1.330172e+09
-1.159786e+10 2.374306e+10 -1.353777e+08
-2.639118e+10 -3.694841e+09 1.252176e+08
-1.476167e+10 -2.206401e+10 -6.574770e+08
1.371864e+10 -2.274070e+10 -5.304112e+08
-6.572271e+09 -2.656310e+10 -2.080554e+08
2.648439e+10 1.055249e+10 7.067390e+08
7.183815e+09 3.164705e+10 3.792128e+08
-3.146128e+10 -4.879396e+09 2.587914e+08
-3.031030e+10 8.923560e+09 4.653965e+08
-1.354946e+10 2.890824e+10 -3.001823e+08
1.121664e+10 2.370013e+10 8.503967e+08
-2.281831e+10 -1.269920e+10 -2.661705e+07
1.321097e+10 3.342961e+10 2.232930e+09
1.507603e+10 -2.843762e+10 7.248762e+08
-1.508342e+10 -2.946742e+10 1.854886e+08
-2.711844e+10 -1.547322e+10 1.405140e+09
2.409218e+10 1.058489e+10 -5.417080e+08
2.444926e+10 -1.548403e+10 -6.809778e+07
2.354548e+10 1.089105e+10 5.459860e+08
2.206235e+10 2.541590e+10 1.348277e+09
-1.199195e+10 -2.398846e+10 6.394687e+08
1.303174e+10 -2.386323e+10 -1.250969e+08
-2.763848e+10 1.307850e+10 -5.446311e+08
7.999738e+09 2.487877e+10 7.385644e+08
2.507481e+10 1.504220e+10 -1.069329e+09
-1.147071e+09 2.915520e+10 -3.654543e+08
2.507529e+10 -2.101031e+10 5.496862e+08
2.322764e+10 9.454329e+09 3.338519e+08
-2.408145e+10 -1.909070e+10 2.433118e+08
1.971027e+10 1.439613e+10 -2.425502e+08
-2.937904e+10 -1.725755e+10 -2.710226e+08
2.827406e+10 -1.797234e+10 1.324924e+09
-1.650887e+10 -2.644787e+10 5.830856e+08
1.660799e+10 -2.734025e+10 -6.248927e+08
-2.090775e+10 -2.177917e+10 -2.128459e+08
1.973254e+10 -2.080409e+10 3.444979e+08
-2.594244e+10 2.136509e+10 3.855668e+08
2.595237e+10 -8.000800e+09 -5.155281e+08
2.383604e+10 1.119240e+10 -1.676310e+09
6.262558e+09 -3.272130e+10 6.474203e+07
4.865767e+09 3.217198e+10 -5.628002e+08
2.983211e+10 7.111370e+09 -1.433708e+09
2.470149e+10 5.641572e+09 7.017516e+08
1.783040e+10 -1.669416e+10 6.098614e+08
-1.930887e+10 -1.759574e+10 5.559469e+07
1.394095e+10 2.321698e+10 5.384386e+08
2.170155e+10 -2.459691e+10 -5.235262e+08
-2.136931e+10 -2.441724e+10 4.058258e+08
3.443614e+10 -1.088026e+10 9.242626e+08
2.217362e+10 1.170011e+10 -7.553793e+08
8.971648e+09 3.129248e+10 -3.025203e+08
-1.668506e+09 2.531512e+10 -1.351402e+09
7.588919e+09 2.836308e+10 -1.272120e+08
-3.204608e+10 -1.357765e+10 3.096880e+08
-2.661177e+09 3.176005e+10 2.935216e+08
2.719602e+10 2.170089e+10 4.232046e+07
8.028642e+09 2.542815e+10 2.032284e+09
2.484869e+10 -1.983063e+10 9.515145e+08
2.505884e+10 -9.831853e+09 1.265684e+09
3.002881e+08 2.693531e+10 -3.244801e+08
2.234803e+10 1.149514e+10 -1.076156e+08
2.390394e+09 3.113882e+10 4.206121e+08
-9.106166e+09 -3.089939e+10 2.978274e+08
-2.476891e+09 3.145335e+10 -7.364591e+08
-2.896116e+10 -8.957942e+09 1.611246e+09
1.836347e+09 3.168885e+10 -7.997791e+08
-4.114145e+09 -2.788525e+10 -3.991181e+08
2.277698e+10 2.343172e+10 2.837082e+08
8.077629e+09 2.972786e+10 -2.971727e+08
3.376795e+09 -3.299607e+10 1.323120e+09
-8.894228e+09 -3.073590e+10 9.345047e+07
2.150203e+10 1.228393e+10 7.478960e+08
1.008375e+09 -3.036928e+10 9.491190e+08
2.860156e+10 -1.685698e+10 1.476557e+09
-1.964156e+10 1.817293e+10 -9.447925e+08
3.240358e+09 -3.032098e+10 -1.301005e+09
-3.008106e+10 -1.512859e+10 -4.068381e+08
-8.092176e+09 3.290141e+10 -7.802676e+08
2.985996e+10 5.290646e+09 4.291519e+08
-1.038230e+10 2.944178e+10 3.299037e+08
-1.093047e+10 -2.966277e+10 -4.727661e+08
2.928455e+10 6.380558e+09 1.657467e+09
2.245742e+10 1.229291e+10 -3.161291e+08
-3.468735e+09 2.657937e+10 1.680953e+08
-2.697253e+10 1.955683e+10 -4.395172e+08
6.291469e+09 -3.158252e+10 3.713881e+08
-7.025814e+08 3.188832e+10 -4.094470e+08
2.194911e+10 1.926420e+10 -4.645673e+08
-2.256505e+10 1.892242e+10 1.220450e+09
-7.303035e+09 -2.463908e+10 8.284284e+08
9.616995e+09 2.980658e+10 4.304158e+08
-2.324830e+10 2.110481e+10 1.671697e+09
-8.650436e+09 -2.934024e+10 3.314104e+08
2.327770e+10 1.338029e+10 4.273426e+08
3.215302e+10 8.453040e+09 -9.326630e+08
-2.914447e+10 -1.155462e+10 9.954398e+08
-3.261761e+10 -6.480747e+09 1.716050e+08
2.084898e+10 -2.765148e+10 3.282902e+08
-2.061820e+10 -2.648962e+10 -6.865520e+08
-3.324988e+09 -2.746239e+10 5.866697e+08
1.558030e+10 2.233361e+10 -6.345969e+07
2.153370e+08 3.025309e+10 3.359848e+08
-2.345419e+10 -1.002925e+10 -3.874405e+08
-1.486326e+10 3.256887e+10 5.799199e+08
2.071296e+10 1.453999e+10 1.570181e+08
-3.339395e+10 1.274719e+10 5.025724e+08
-2.977858e+10 -7.340762e+09 6.344643e+08
2.821820e+10 -1.501993e+10 -5.596755e+08
1.659315e+09 3.547435e+10 1.317940e+08
2.508532e+10 -1.751952e+10 1.018821e+08
1.171914e+10 2.982561e+10 -1.044321e+08
1.865994e+10 1.968122e+10 1.169376e+08
-7.358225e+09 -2.517858e+10 -6.103684e+08
-9.026225e+09 -2.488623e+10 3.414145e+07
-3.106738e+10 1.338601e+10 -1.663428e+09
2.069936e+10 1.323222e+10 -8.217285e+08
-1.314104e+10 3.059271e+10 3.599842e+08
-1.246379e+10 -2.301727e+10 5.803240e+08
1.291300e+10 -2.312421e+10 -1.185274e+09
1.747156e+10 2.772384e+10 3.251688e+08
3.464132e+10 4.001343e+09 -1.221106e+09
-3.038192e+10 -1.786874e+10 -4.337414e+08
-2.551948e+10 -2.437977e+08 -1.115189e+09
-2.632077e+09 -2.955430e+10 -1.588046e+09
9.217992e+09 -2.415587e+10 1.608777e+09
-1.414290e+10 2.193200e+10 6.607211e+08
2.107635e+10 1.505555e+10 3.359101e+08
-1.999923e+10 1.563230e+10 9.648195e+08
3.045811e+10 -7.296674e+09 5.459730e+07
3.686460e+09 3.167587e+10 9.207439e+08
2.920529e+10 -9.349300e+09 -1.681734e+09
-3.094570e+10 -5.505562e+09 5.234377e+08
4.407745e+09 2.728231e+10 1.739246e+09
2.701257e+10 1.072019e+10 -2.311323e+08
-2.241916e+10 -1.305264e+10 2.089845e+08
-2.967288e+10 -1.618399e+10 -8.201815e+07
-2.595566e+10 -5.529881e+09 1.853593e+09
1.992100e+10 1.550910e+10 7.983431e+08
-3.074452e+10 -3.512990e+08 4.750090e+08
-2.378523e+10 1.844364e+10 -1.729037e+09
-1.689773e+10 2.565631e+10 -4.776816e+08
-2.803269e+10 -1.313996e+10 -1.298611e+09
2.934166e+10 6.862528e+09 4.129161e+08
-2.613489e+10 1.616816e+10 -1.161284e+09
-1.941142e+10 2.366330e+10 -1.871901e+08
-3.043363e+10 2.839907e+09 1.843094e+08
2.985862e+10 -5.761860e+09 4.660864e+08
-2.323523e+10 -1.102987e+10 1.645667e+08
2.068287e+10 1.585470e+10 3.123796e+08
5.435072e+09 3.258936e+10 -3.839834e+08
-3.248320e+10 -6.588633e+09 -3.819487e+07
2.105113e+10 2.532214e+10 3.695449e+08
1.910620e+10 2.711050e+10 2.991154e+08
2.067751e+10 1.545548e+10 -7.097225e+07
-3.161231e+10 1.025892e+10 -1.840471e+09
-1.329268e+10 2.992393e+10 -1.380632e+09
1.359094e+10 2.916456e+10 -1.004913e+09
2.449338e+10 -2.296458e+10 2.171807e+08
-2.367578e+10 -2.200841e+10 -9.642591e+06
1.895665e+10 1.641970e+10 5.606916e+08
1.722299e+10 2.925845e+10 1.282062e+09
8.084353e+09 3.095485e+10 1.155788e+09
-6.960760e+09 -3.021997e+10 1.889768e+08
-1.760538e+10 -1.827241e+10 -1.656076e+08
1.729415e+10 -1.821614e+10 -1.643825e+08
-3.248911e+10 -5.699823e+09 1.182791e+09
2.401613e+10 1.754922e+10 -1.149044e+07
-2.846149e+10 -1.698363e+10 -1.008421e+07
-2.316979e+10 1.084588e+10 7.628179e+08
-2.552724e+10 -3.498327e+09 1.484931e+08
1.958754e+10 1.624634e+10 1.312184e+07
3.301298e+10 -4.457373e+09 1.718032e+08
-2.478026e+10 -8.360212e+09 -2.030464e+07
-3.886268e+09 2.551329e+10 -1.361343e+08
1.904650e+10 1.750158e+10 -1.871895e+06
-3.206950e+10 -7.044373e+09 7.414443e+08
-1.378462e+10 -2.266523e+10 1.253064e+09
1.294971e+10 -2.258146e+10 -1.070193e+09
8.636795e+09 3.141203e+10 -1.293471e+08
2.606080e+10 2.290127e+09 -1.299630e+09
3.020333e+10 1.616440e+10 2.053427e+08
1.848493e+10 1.781106e+10 5.705756e+08
-2.507029e+10 -7.551059e+09 -5.554463e+08
-2.920485e+10 1.309437e+10 5.999690e+08
-2.454244e+09 -2.656962e+10 -1.494574e+09
5.366862e+09 -2.510465e+10 -1.310447e+08
2.671098e+10 2.699395e+09 -1.243206e+08
2.172375e+10 -2.407769e+10 -1.519437e+08
-2.299651e+10 -2.585408e+10 1.037454e+09
1.524038e+09 2.590487e+10 4.800184e+07
2.639879e+10 5.338267e+09 -5.655575e+08
-3.348675e+09 2.943667e+10 -4.095629e+08
1.867643e+10 1.720462e+10 -4.090500e+07
-7.679231e+09 2.508910e+10 -1.225707e+08
-1.163505e+10 2.303477e+10 3.294358e+08
-2.468750e+10 9.251415e+09 3.201997e+08
2.526533e+10 -1.783334e+10 -9.894373e+08
-3.133120e+10 2.640241e+09 -1.579190e+07
-2.860187e+10 1.656189e+10 -4.462635e+08
-1.966193e+10 2.447419e+10 2.621563e+07
3.103676e+10 2.980491e+09 5.879376e+07
-2.924359e+10 1.559902e+10 -8.597263e+08
2.731740e+10 -1.009967e+10 3.136704e+08
1.837100e+10 1.739913e+10 9.212065e+08
2.343236e+10 1.106210e+10 2.024262e+09
-6.987345e+09 3.223769e+10 3.312555e+08
1.669459e+10 2.450705e+10 2.216288e+08
3.119821e+10 -6.414337e+09 -4.287108e+08
-2.532871e+10 -1.804821e+10 5.004973e+08
-2.793649e+10 -1.264677e+10 1.231725e+08
-1.719143e+10 1.967795e+10 1.175580e+08
-2.262117e+10 1.348443e+10 7.986066e+08
-8.147373e+09 -3.265975e+10 -4.963109e+08
-2.598613e+10 3.216326e+09 -1.207465e+08
1.712817e+10 1.832031e+10 3.837886e+08
-1.672030e+10 -2.711295e+10 -2.470038e+06
1.761531e+10 -2.852546e+10 4.486338e+08
1.153683e+09 -3.287217e+10 1.616202e+09
2.975393e+10 -9.111807e+08 1.882094e+09
6.629782e+09 2.629206e+10 1.056500e+09
-2.725642e+10 -1.262477e+10 -5.608393e+06
2.490785e+10 -7.959222e+09 3.550517e+08
1.033294e+10 3.226480e+10 -1.811170e+08
2.545475e+10 -1.695729e+10 1.007725e+07
2.246928e+10 -1.297407e+10 2.148876e+09
1.758908e+10 1.856561e+10 3.300228e+08
1.466479e+10 2.889931e+10 7.951791e+08
-3.042765e+09 2.709452e+10 -9.891699e+08
2.392071e+10 -8.129002e+09 -5.370917e+08
-3.391209e+09 -2.564774e+10 -7.741910e+08
2.488075e+10 2.062504e+10 -6.267235e+08
-4.964068e+09 -2.590249e+10 6.112498e+08
4.657588e+09 2.912004e+10 1.175038e+08
-2.341920e+10 -2.030003e+10 2.632757e+08
2.311620e+10 -2.100367e+10 -9.248818e+08
1.201639e+10 2.673577e+10 1.067859e+09
1.663200e+10 1.951178e+10 9.934857e+07
2.933186e+10 -1.103235e+10 1.172299e+07
-2.388329e+10 1.910815e+10 -6.479983e+08
9.853743e+09 -2.424168e+10 5.218176e+08
-2.251280e+09 3.270890e+10 2.944311e+08
2.663197e+10 1.990249e+10 8.960292e+07
-3.105126e+10 -8.750634e+09 -6.715262e+08
3.016720e+10 1.459596e+09 4.312639e+08
-2.527135e+10 -1.999594e+10 2.142108e+08
2.556099e+10 7.814511e+09 2.515880e+08
2.413457e+10 -9.561212e+09 1.372474e+09
1.766663e+10 2.073036e+10 -3.669942e+08
-4.679754e+09 -3.379111e+10 3.318400e+08
-1.130689e+10 3.150413e+10 1.472097e+09
1.432177e+10 2.583928e+10 9.444556e+08
-8.881881e+09 2.851774e+10 3.716943e+08
-2.598700e+10 -2.353431e+10 3.022832e+07
2.368437e+10 -2.263660e+10 -8.007652e+07
2.608820e+10 -7.699941e+09 3.785865e+08
2.678484e+10 -1.838595e+10 1.478575e+07
-1.591371e+10 2.984734e+10 5.700396e+08
-1.790003e+10 2.940980e+10 4.053321e+08
1.480910e+10 2.020234e+10 -2.344015e+08
-3.216854e+10 9.857126e+09 7.989959e+08
-3.304986e+10 5.843480e+09 7.159975e+08
2.112239e+10 -1.480078e+10 -8.618824e+08
2.599158e+10 6.412275e+08 -5.460127e+08
2.352026e+10 2.106652e+10 2.309560e+08
1.751797e+09 2.665274e+10 -2.373590e+08
3.351341e+10 5.754015e+09 -8.294482e+08
-2.765956e+09 -2.624340e+10 -8.085299e+08
2.158982e+10 1.696794e+10 2.965094e+08
-2.345712e+10 1.605096e+10 -1.614010e+08
1.570875e+10 2.009280e+10 3.531582e+08
1.182741e+10 2.631293e+10 7.811658e+08
-1.702619e+09 2.620325e+10 -5.541368e+07
2.998627e+10 -1.747192e+10 1.561727e+09
5.365324e+09 3.141249e+10 5.208134e+08
-9.116708e+09 2.951660e+10 -7.017063e+08
1.905394e+10 2.266272e+10 6.178331e+08
-1.749286e+10 -2.929454e+10 -7.066556e+07
1.786937e+10 -2.979450e+10 2.058264e+08
2.520493e+10 -3.227980e+09 1.887850e+09
1.704654e+10 -2.478059e+10 1.501011e+09
1.520285e+10 2.071283e+10 -1.019752e+09
-1.702619e+10 -2.298776e+10 1.649788e+07
2.567184e+10 -6.428388e+09 9.534352e+08
-1.052527e+10 -2.475189e+10 6.559655e+08
1.305481e+10 2.702906e+10 -3.223180e+08
-5.574003e+09 -2.567805e+10 -5.250173e+07
-2.430278e+10 1.869270e+10 9.552899e+08
-1.662870e+10 2.524526e+10 4.789411e+08
-3.023902e+10 -3.583468e+08 -4.780113e+08
-2.431008e+10 2.139380e+10 7.253648e+07
1.166504e+10 -2.435239e+10 -1.424403e+08
1.417629e+10 2.133429e+10 -1.051783e+09
1.778489e+09 -2.560388e+10 -1.098372e+08
5.542271e+09 3.221786e+10 -1.719268e+08
-3.664061e+10 -2.357562e+09 -1.290364e+09
-3.351475e+10 -2.712089e+09 -9.603842e+08
-3.048074e+10 -1.516988e+10 6.285971e+08
-3.268903e+10 1.273828e+10 -6.051235e+08
-2.921273e+10 -9.543372e+09 -1.215360e+09
2.777826e+10 -1.387124e+10 3.682255e+08
5.011275e+09 -2.843773e+10 1.238700e+09
2.323709e+10 1.380167e+10 1.453090e+08
1.380746e+10 2.063746e+10 1.641228e+08
2.472584e+10 6.053944e+09 3.109059e+08
-1.024333e+10 -2.988140e+10 3.676085e+08
1.567193e+10 1.988200e+10 -9.534258e+08
3.461946e+10 1.189389e+10 -2.247576e+08
2.061610e+10 2.655351e+10 7.811410e+08
-2.573646e+08 3.110659e+10 -5.694721e+08
7.451328e+08 2.967558e+10 3.361741e+08
2.573896e+10 -2.241797e+10 -1.619379e+08
-2.368120e+10 -2.111379e+10 4.917812e+08
2.713812e+09 -2.568026e+10 1.525260e+08
1.335869e+10 2.066417e+10 -8.860685e+08
2.277001e+10 2.506611e+10 7.760182e+08
-3.035383e+10 -1.066833e+10 3.905621e+08
-2.752493e+10 -2.184864e+10 -3.946528e+08
9.273755e+09 -2.780727e+10 1.177162e+09
9.417236e+09 2.356360e+10 4.638494e+08
-3.456653e+09 3.069917e+10 9.355060e+07
-2.523361e+10 1.414944e+10 3.097367e+08
8.998576e+09 -2.736772e+10 -1.218021e+09
-1.049172e+10 3.202006e+10 -1.641680e+09
-2.008758e+10 2.255129e+10 7.017545e+08
1.338437e+10 2.246676e+10 5.814594e+08
1.445335e+10 2.078099e+10 7.573250e+08
-3.001487e+10 3.487084e+09 -1.628636e+08
-2.782360e+10 1.464304e+10 -2.880591e+07
-3.348323e+10 -1.231751e+10 -1.865793e+06
-5.189032e+09 -3.075306e+10 3.040630e+08
-2.522190e+10 9.005183e+09 5.219566e+08
-1.120369e+10 2.385273e+10 1.118696e+09
-2.590529e+10 -4.585293e+09 -3.058308e+08
2.174864e+10 -1.478870e+10 5.521637e+08
2.966283e+09 -2.977988e+10 -1.335474e+09
1.206081e+10 2.187713e+10 7.714441e+08
1.525472e+10 -2.158337e+10 -1.403363e+09
1.616187e+10 -2.227405e+10 -5.908167e+08
-1.437857e+10 -2.292223e+10 5.317309e+08
2.362716e+10 1.265930e+10 8.748131e+06
2.820114e+10 1.603918e+10 1.281332e+07
2.819569e+09 -2.784574e+10 6.591446e+08
2.657769e+10 -1.060906e+10 -7.096434e+08
-1.805010e+10 -1.817088e+10 3.345729e+08
1.983623e+10 -1.912026e+10 -6.759960e+08
-6.149234e+09 -3.172593e+10 -1.296622e+09
1.263574e+10 2.206331e+10 3.919728e+08
-5.970051e+08 -2.700442e+10 1.874652e+08
2.715005e+10 -1.334871e+10 -2.622152e+08
-2.433128e+09 -3.359124e+10 -2.504301e+09
-2.144988e+10 -1.469483e+10 4.566128e+08
5.437268e+09 2.927315e+10 -1.616382e+09
-3.399500e+10 -2.625346e+08 -6.588856e+08
-2.769842e+10 1.677468e+09 5.261695e+08
-1.694699e+10 2.203346e+10 -5.788793e+08
-1.731501e+10 2.004137e+10 9.289688e+07
-2.646648e+10 3.040735e+09 -1.764571e+08
1.186075e+10 2.467259e+10 2.834791e+08
1.025293e+10 -2.736454e+10 -1.058210e+09
-1.846837e+10 2.837803e+10 -1.440405e+08
4.265527e+09 -3.256015e+10 5.745829e+07
1.132081e+10 2.846485e+10 6.887631e+07
2.796031e+10 -9.487688e+09 -2.840741e+08
8.644746e+09 -3.194301e+10 -2.092731e+08
-2.881697e+10 -3.374873e+09 9.292410e+07
-1.562553e+10 -2.142552e+10 -1.084923e+09
1.516057e+10 -2.163919e+10 1.888740e+09
-3.223028e+10 -5.379086e+09 -3.007951e+08
1.110609e+10 2.369135e+10 4.082941e+08
-2.979418e+10 -6.875562e+09 -2.771004e+08
-1.692039e+10 -2.349380e+10 6.354186e+08
-1.777959e+10 -2.595293e+10 2.716562e+08
6.197696e+09 3.346132e+10 5.593230e+08
2.632498e+10 -1.131625e+09 -8.089363e+07
-1.212848e+10 2.894064e+10 6.980775e+08
-1.022319e+10 2.814594e+10 -1.811199e+09
5.020260e+09 -2.555398e+10 3.033761e+08
-1.641920e+10 -2.658238e+10 -5.036912e+08
1.654736e+10 -2.705049e+10 2.504220e+08
1.060767e+10 2.247404e+10 1.315184e+09
1.816989e+10 -2.465838e+10 1.053595e+09
-2.395178e+10 2.210978e+10 -1.212115e+09
3.416711e+10 3.155372e+09 -1.085317e+08
-1.330100e+08 -2.982269e+10 4.353172e+08
2.851719e+10 9.842965e+09 2.737478e+08
-9.065292e+09 -2.792397e+10 2.359147e+08
-2.513769e+10 -1.285267e+10 1.991582e+08
-2.588196e+10 -8.189414e+09 -9.245214e+08
3.010054e+10 3.747402e+09 8.017731e+08
-7.148111e+09 2.956023e+10 4.677105e+08
9.222315e+09 2.416047e+10 1.507107e+09
-5.941061e+09 2.968168e+10 -9.793704e+07
1.074205e+10 2.634130e+10 -9.130801e+08
6.331559e+09 3.268264e+10 2.225018e+08
-2.908445e+10 1.450414e+10 1.426147e+09
-3.174480e+09 -2.576501e+10 1.647221e+09
1.253076e+09 3.211986e+10 1.586776e+08
1.330407e+10 -3.041726e+10 6.408515e+07
-4.171136e+09 3.197342e+10 1.270611e+09
-1.237187e+10 2.604604e+10 -1.479674e+07
-2.695581e+10 1.014290e+10 8.485675e+08
8.536538e+09 2.328041e+10 -3.880566e+08
2.370231e+10 -2.000246e+10 -4.038640e+08
-2.215561e+10 1.290069e+10 2.052893e+08
-2.509439e+10 9.384715e+09 -3.757609e+08
-2.450051e+10 1.115413e+10 -1.331303e+08
-1.991545e+10 1.727805e+10 -1.228265e+09
-1.878650e+10 1.768318e+10 -1.113695e+09
-1.318184e+10 2.259984e+10 -5.438859e+08
-1.149078e+10 2.256471e+10 2.939996e+08
-4.556847e+09 2.692563e+10 9.877446e+08
-5.604868e+09 2.583385e+10 2.917789e+08
8.691921e+09 2.366956e+10 8.755975e+08
-9.038965e+09 2.427976e+10 1.373434e+09
-9.253716e+09 2.451210e+10 1.736823e+09
-2.458830e+10 7.443380e+09 1.280044e+08
-2.556387e+10 5.843275e+09 4.402828e+08
-2.686229e+10 -9.030433e+08 5.641866e+07
2.684505e+10 6.643247e+09 -1.374112e+09
2.572720e+10 -4.551235e+09 -1.576069e+09
1.410639e+09 2.660911e+10 2.685397e+08
2.590774e+10 1.235856e+10 5.491270e+08
-2.516655e+10 -3.395379e+09 -6.086070e+08
8.218818e+09 2.425279e+10 9.394515e+08
-1.173310e+10 3.035687e+10 -4.578865e+08
-2.410958e+10 -1.793965e+10 -1.521961e+08
-2.246792e+10 -1.276179e+10 5.456032e+08
-2.435141e+10 7.400381e+09 -3.548283e+08
-7.020989e+09 2.561527e+10 5.953892e+08
-1.102151e+10 2.526803e+10 -4.871954e+08
7.508521e+09 2.436653e+10 -5.776267e+07
-2.537406e+10 -1.294451e+09 6.105423e+08
-1.409934e+10 2.158123e+10 -3.884883e+07
-2.550055e+10 5.395662e+09 7.921940e+08
7.722511e+09 2.486830e+10 3.064663e+08
-2.259332e+10 1.450464e+10 1.948856e+07
-1.864398e+10 1.855682e+10 -5.988158e+08
-2.315131e+10 1.217655e+10 -2.570887e+08
-2.554458e+10 4.742189e+09 3.443650e+08
-1.041584e+10 2.844632e+10 1.610113e+09
-7.257046e+09 2.540744e+10 -6.042028e+08
1.114086e+10 2.456589e+10 -2.202695e+08
1.848741e+10 2.612755e+10 -5.629382e+08
1.165367e+10 2.449293e+10 -3.685443e+07