# vtk DataFile Version 2.0
Electric current density generated by TTH
ASCII
DATASET UNSTRUCTURED_GRID
POINTS 810 double
-1.538718e-05 -6.281442e-07 -9.797174e-23
-1.534876e-05 -1.255243e-06 -9.797174e-23
-1.528478e-05 -1.880252e-06 -9.797174e-23
-1.519537e-05 -2.502132e-06 -9.797174e-23
-1.508067e-05 -3.119848e-06 -9.797174e-23
-1.494086e-05 -3.732371e-06 -9.797174e-23
-1.477619e-05 -4.338681e-06 -9.797174e-23
-1.458693e-05 -4.937771e-06 -9.797174e-23
-1.437338e-05 -5.528642e-06 -9.797174e-23
-1.413592e-05 -6.110311e-06 -9.797174e-23
-1.387492e-05 -6.681810e-06 -9.797174e-23
-1.359083e-05 -7.242187e-06 -9.797174e-23
-1.328412e-05 -7.790511e-06 -9.797174e-23
-1.295530e-05 -8.325869e-06 -9.797174e-23
-1.260492e-05 -8.847368e-06 -9.797174e-23
-1.223356e-05 -9.354143e-06 -9.797174e-23
-1.184184e-05 -9.845348e-06 -9.797174e-23
-1.143041e-05 -1.032017e-05 -9.797174e-23
-1.099995e-05 -1.077781e-05 -9.797174e-23
-1.055118e-05 -1.121751e-05 -9.797174e-23
-1.008486e-05 -1.163854e-05 -9.797174e-23
-9.601743e-06 -1.204020e-05 -9.797174e-23
-9.102649e-06 -1.242183e-05 -9.797174e-23
-8.588405e-06 -1.278277e-05 -9.797174e-23
-8.059867e-06 -1.312244e-05 -9.797174e-23
-7.517914e-06 -1.344027e-05 -9.797174e-23
-6.963447e-06 -1.373573e-05 -9.797174e-23
-6.397391e-06 -1.400833e-05 -9.797174e-23
-5.820687e-06 -1.425762e-05 -9.797174e-23
-5.234295e-06 -1.448317e-05 -9.797174e-23
-4.639191e-06 -1.468461e-05 -9.797174e-23
-4.036366e-06 -1.486162e-05 -9.797174e-23
-3.426822e-06 -1.501389e-05 -9.797174e-23
-2.811575e-06 -1.514117e-05 -9.797174e-23
-2.191649e-06 -1.524325e-05 -9.797174e-23
-1.568074e-06 -1.531996e-05 -9.797174e-23
-9.418896e-07 -1.537117e-05 -9.797174e-23
-3.141375e-07 -1.539680e-05 -9.797174e-23
3.141375e-07 -1.539680e-05 -9.797174e-23
9.418896e-07 -1.537117e-05 -9.797174e-23
1.568074e-06 -1.531996e-05 -9.797174e-23
2.191649e-06 -1.524325e-05 -9.797174e-23
2.811575e-06 -1.514117e-05 -9.797174e-23
3.426822e-06 -1.501389e-05 -9.797174e-23
4.036366e-06 -1.486162e-05 -9.797174e-23
4.639191e-06 -1.468461e-05 -9.797174e-23
5.234295e-06 -1.448317e-05 -9.797174e-23
5.820687e-06 -1.425762e-05 -9.797174e-23
6.397391e-06 -1.400833e-05 -9.797174e-23
6.963447e-06 -1.373573e-05 -9.797174e-23
7.517914e-06 -1.344027e-05 -9.797174e-23
8.059867e-06 -1.312244e-05 -9.797174e-23
8.588405e-06 -1.278277e-05 -9.797174e-23
9.102649e-06 -1.242183e-05 -9.797174e-23
9.601743e-06 -1.204020e-05 -9.797174e-23
1.008486e-05 -1.163854e-05 -9.797174e-23
1.055118e-05 -1.121751e-05 -9.797174e-23
1.099995e-05 -1.077781e-05 -9.797174e-23
1.143041e-05 -1.032017e-05 -9.797174e-23
1.184184e-05 -9.845348e-06 -9.797174e-23
1.223356e-05 -9.354143e-06 -9.797174e-23
1.260492e-05 -8.847368e-06 -9.797174e-23
1.295530e-05 -8.325869e-06 -9.797174e-23
1.328412e-05 -7.790511e-06 -9.797174e-23
1.359083e-05 -7.242187e-06 -9.797174e-23
1.387492e-05 -6.681810e-06 -9.797174e-23
1.413592e-05 -6.110311e-06 -9.797174e-23
1.437338e-05 -5.528642e-06 -9.797174e-23
1.458693e-05 -4.937771e-06 -9.797174e-23
1.477619e-05 -4.338681e-06 -9.797174e-23
1.494086e-05 -3.732371e-06 -9.797174e-23
1.508067e-05 -3.119848e-06 -9.797174e-23
1.519537e-05 -2.502132e-06 -9.797174e-23
1.528478e-05 -1.880252e-06 -9.797174e-23
1.534876e-05 -1.255243e-06 -9.797174e-23
1.538718e-05 -6.281442e-07 -9.797174e-23
1.524940e-05 -3.735025e-21 3.127326e-07
1.491099e-05 -3.652140e-21 3.899712e-07
1.463961e-05 -3.585671e-21 1.735535e-07
1.463961e-05 -3.585671e-21 -1.735535e-07
1.491099e-05 -3.652140e-21 -3.899712e-07
1.524940e-05 -3.735025e-21 -3.127326e-07
2.776049e-07 1.459740e-05 -5.378161e-09
2.807477e-07 -1.459730e-05 0.000000e+00
-1.459522e-05 3.816940e-07 1.305419e-08
1.051167e-05 1.037988e-05 -3.292477e-07
1.051167e-05 -1.037988e-05 -3.292477e-07
1.398064e-05 5.676545e-06 -3.899463e-07
1.398064e-05 -5.676545e-06 -3.899463e-07
1.474944e-05 3.095210e-06 3.937010e-07
1.500772e-05 1.140211e-06 3.967396e-07
1.474389e-05 -3.036134e-06 3.964392e-07
1.500459e-05 -1.093998e-06 3.975258e-07
1.302182e-05 7.283846e-06 -3.920256e-07
1.306627e-05 -7.367514e-06 -3.999999e-07
1.405434e-05 -4.192314e-06 -2.205361e-07
1.405434e-05 4.192314e-06 -2.205361e-07
1.205476e-05 9.046419e-06 -3.935289e-07
1.205476e-05 -9.046419e-06 -3.935289e-07
9.435307e-06 1.124051e-05 -2.340595e-07
8.136002e-06 1.268560e-05 -3.937441e-07
6.476756e-06 1.344912e-05 -3.933562e-07
4.764059e-06 1.407435e-05 -3.742444e-07
3.024354e-06 1.461907e-05 -3.935810e-07
9.380199e-06 -1.128236e-05 -2.295432e-07
8.061423e-06 -1.262836e-05 -3.995974e-07
6.476756e-06 -1.344912e-05 -3.933562e-07
4.799644e-06 -1.416708e-05 -3.977925e-07
2.961203e-06 -1.466973e-05 -3.985198e-07
1.860821e-06 1.453565e-05 2.011902e-07
1.751885e-06 -1.452619e-05 -1.554675e-07
1.466493e-05 7.734594e-07 -2.469255e-07
1.468924e-05 -8.191784e-07 -2.776585e-07
1.223517e-05 8.004318e-06 -1.273700e-07
1.222482e-05 -7.986164e-06 4.211315e-08
1.446001e-05 2.024576e-06 -2.901879e-08
1.448869e-05 -2.067279e-06 1.645903e-07
1.115390e-05 -9.438414e-06 9.483152e-08
1.115390e-05 9.438414e-06 9.483152e-08
1.318986e-05 6.260010e-06 -2.131454e-09
1.318963e-05 -6.260511e-06 -2.731872e-09
7.180220e-06 1.282105e-05 -2.584725e-07
7.152864e-06 -1.274859e-05 1.190876e-07
3.874944e-06 1.409461e-05 1.172261e-07
3.871610e-06 -1.413795e-05 -2.082340e-07
1.178005e-05 8.745082e-06 2.278865e-07
5.482722e-06 1.355045e-05 1.174378e-07
5.564812e-06 -1.358792e-05 -2.443077e-07
8.678842e-06 -1.181031e-05 -2.045370e-07
8.679726e-06 1.188146e-05 -2.798216e-07
1.538718e-05 6.281442e-07 -9.797174e-23
4.731748e-06 1.397916e-05 3.186897e-07
1.177033e-05 -8.730797e-06 2.023334e-07
1.438514e-05 -3.283315e-06 -3.162519e-07
1.441094e-05 3.271082e-06 -3.324186e-07
1.379429e-05 4.985331e-06 2.223792e-07
1.379429e-05 -4.985331e-06 2.223792e-07
6.396973e-06 1.328345e-05 3.069482e-07
2.986911e-06 1.443808e-05 3.071860e-07
-7.334099e-07 1.478628e-05 -3.489451e-07
-1.782580e-06 1.449079e-05 -4.215245e-09
1.534876e-05 1.255243e-06 -9.797174e-23
-2.851469e-06 1.432143e-05 -4.501934e-08
-4.116621e-06 1.400928e-05 -3.561940e-08
-5.241849e-06 1.362828e-05 3.588711e-08
-6.335413e-06 1.315560e-05 -3.589921e-08
-7.386648e-06 1.259547e-05 3.638403e-08
-8.388717e-06 1.195148e-05 -3.638428e-08
-9.334961e-06 1.122795e-05 3.638428e-08
-1.021686e-05 1.043163e-05 -3.435675e-08
-1.103720e-05 9.559673e-06 -3.591430e-08
-1.177589e-05 8.633171e-06 3.435857e-08
1.528478e-05 1.880252e-06 -9.797174e-23
-1.244192e-05 7.641753e-06 3.219074e-08
-1.302549e-05 6.603385e-06 5.431002e-08
-1.415506e-05 5.115713e-06 3.967204e-07
-1.455365e-05 3.321775e-06 3.934526e-07
-1.480205e-05 1.539869e-06 3.821788e-07
-7.273510e-07 1.463316e-05 1.958448e-07
-1.349985e-05 5.804276e-06 2.584943e-07
-1.407890e-05 4.158067e-06 2.401136e-07
-1.443036e-05 2.332122e-06 -1.173195e-07
-1.446530e-05 3.313629e-06 -3.665988e-07
1.519537e-05 2.502132e-06 -9.797174e-23
-1.476598e-05 1.471835e-06 -3.662333e-07
-7.334099e-07 -1.478628e-05 -3.489451e-07
-1.782580e-06 -1.449079e-05 -4.215245e-09
-2.852051e-06 -1.432134e-05 -4.528083e-08
-4.113569e-06 -1.401020e-05 3.588674e-08
-5.239243e-06 -1.362914e-05 -3.435658e-08
-6.335363e-06 -1.315527e-05 -3.219454e-08
-7.389199e-06 -1.259389e-05 -3.561860e-08
-8.386067e-06 -1.195312e-05 3.435855e-08
-9.337332e-06 -1.122593e-05 3.591024e-08
1.508067e-05 3.119848e-06 -9.797174e-23
-1.021673e-05 -1.043176e-05 -3.435857e-08
-1.103721e-05 -9.559667e-06 -3.591015e-08
-1.177773e-05 -8.630888e-06 3.588687e-08
-1.244049e-05 -7.644436e-06 -3.435659e-08
-1.302550e-05 -6.603388e-06 -5.435573e-08
-1.415503e-05 -5.115705e-06 -3.967235e-07
-1.455365e-05 -3.321775e-06 -3.934525e-07
-1.496713e-05 -1.472879e-06 -3.980520e-07
-7.273510e-07 -1.463316e-05 1.958448e-07
-1.350625e-05 -5.634978e-06 1.627494e-07
1.494086e-05 3.732371e-06 -9.797174e-23
-1.407891e-05 -4.158063e-06 -2.401207e-07
-1.463069e-05 -7.459840e-07 1.930951e-07
-1.450671e-05 -2.388631e-06 -2.668840e-07
-1.380486e-05 -4.844973e-06 1.529083e-07
7.977215e-06 -1.241279e-05 3.162740e-07
1.473879e-05 5.901987e-07 3.127326e-07
1.473879e-05 -5.901987e-07 3.127326e-07
1.346113e-05 5.659311e-06 4.370632e-08
1.346113e-05 -5.659311e-06 4.370632e-08
1.079551e-05 1.015425e-05 3.575390e-07
1.477619e-05 4.338681e-06 -9.797174e-23
1.079551e-05 -1.015425e-05 3.575390e-07
-1.478482e-05 -1.513300e-06 3.754668e-07
1.421725e-05 -3.786466e-06 2.784564e-07
1.424715e-05 3.676267e-06 2.794560e-07
9.963105e-06 -1.082144e-05 2.748863e-07
1.003705e-05 -1.091685e-05 -3.619364e-07
9.998500e-06 1.078841e-05 2.746282e-07
1.003705e-05 1.091685e-05 -3.619364e-07
1.245716e-06 1.485685e-05 -3.895075e-07
9.719120e-07 1.474634e-05 3.329615e-07
1.540000e-05 -3.771912e-21 -9.797174e-23
1.458693e-05 4.937771e-06 -9.797174e-23
2.401650e-06 -1.458515e-05 3.350862e-07
3.284717e-06 -1.428536e-05 2.076670e-07
1.483508e-05 -1.482024e-06 -3.894931e-07
1.823305e-06 1.482185e-05 -3.944460e-07
2.373308e-06 1.442424e-05 -1.192299e-07
1.508046e-05 5.078104e-07 -3.899712e-07
1.508046e-05 -5.078104e-07 -3.899712e-07
2.369244e-06 1.474800e-05 3.950233e-07
1.408913e-05 -4.357746e-06 3.103651e-07
1.408913e-05 4.357746e-06 3.103651e-07
1.437338e-05 5.528642e-06 -9.797174e-23
2.340950e-06 -1.451729e-05 -2.699425e-07
1.025991e-06 -1.476180e-05 3.449018e-07
1.084113e-06 -1.464505e-05 -2.466774e-07
1.483725e-05 1.505702e-06 -3.905254e-07
-1.458060e-05 9.754954e-07 1.018845e-07
1.463511e-05 -2.540828e-06 -3.724146e-07
-1.317573e-06 1.485846e-05 -3.912431e-07
-1.317573e-06 -1.485846e-05 -3.912431e-07
1.470507e-05 2.608063e-06 -3.946100e-07
-3.562641e-06 -1.444788e-05 3.817779e-07
1.413592e-05 6.110311e-06 -9.797174e-23
-1.160594e-05 -9.313214e-06 3.817806e-07
-9.990315e-06 -1.105296e-05 -3.869868e-07
-1.160594e-05 9.313214e-06 3.817809e-07
-8.007071e-06 -1.254277e-05 3.817854e-07
-4.728460e-06 1.410943e-05 3.817855e-07
-3.564337e-06 -1.446188e-05 -3.858774e-07
-1.164035e-05 -9.292243e-06 -3.858132e-07
-1.000612e-05 -1.101535e-05 3.820599e-07
-1.164507e-05 9.294840e-06 -3.872254e-07
-8.048488e-06 -1.253870e-05 -3.871871e-07
1.387492e-05 6.681810e-06 -9.797174e-23
[...]
POINT_DATA 810
VECTORS 10.000GHz_fone_imag double
-6.760444e+09 4.975427e+11 1.771171e+10
-6.843811e+10 5.048963e+11 2.207038e+10
-4.600956e+10 4.807908e+11 -2.019805e+10
-7.031538e+10 4.249384e+11 1.733945e+09
-1.015936e+11 4.615557e+11 -1.450526e+10
-1.066500e+11 4.562106e+11 1.143729e+10
-1.217836e+11 4.011560e+11 2.131461e+09
-1.280561e+11 3.936864e+11 -3.293606e+09
-1.563760e+11 4.376853e+11 -9.836982e+09
-2.109036e+11 4.358636e+11 -1.189372e+10
-1.990337e+11 4.287028e+11 2.037274e+10
-2.592916e+11 5.124445e+11 6.196650e+08
-3.032138e+11 4.946029e+11 -2.286048e+09
-2.887261e+11 4.778742e+11 -3.223619e+09
-3.364985e+11 4.664668e+11 -4.761363e+09
-3.261276e+11 4.445709e+11 4.419557e+09
-3.682402e+11 4.192597e+11 3.357791e+09
-3.803763e+11 4.377433e+11 2.092996e+09
-4.140624e+11 4.064295e+11 -2.277791e+09
-3.958930e+11 3.948974e+11 -2.597794e+09
-4.257184e+11 3.527403e+11 -6.761353e+09
-4.470536e+11 3.663858e+11 -3.705817e+09
-4.710989e+11 3.352437e+11 4.004090e+09
-4.520053e+11 3.186714e+11 6.718292e+09
-4.850259e+11 2.786747e+11 2.480228e+09
-5.008380e+11 2.928890e+11 2.297883e+09
-5.003381e+11 2.394372e+11 -2.017390e+09
-5.224320e+11 2.489126e+11 2.581646e+09
-5.411808e+11 2.086198e+11 -2.319583e+09
-5.195297e+11 2.042610e+11 -3.270499e+09
-5.503502e+11 1.658983e+11 -4.751670e+09
-5.277524e+11 1.543283e+11 4.381268e+09
-5.622252e+11 1.218162e+11 2.618551e+09
-4.809437e+11 5.885598e+10 6.638666e+09
-4.779419e+11 9.225152e+10 -3.304050e+09
-4.669437e+11 4.071181e+10 -1.881236e+10
-4.806959e+11 2.188594e+10 -1.824419e+10
-4.840960e+11 1.016944e+10 3.500774e+10
-4.761802e+11 -7.613201e+08 1.426498e+10
-4.527897e+11 -1.907157e+10 -1.011668e+10
-4.330708e+11 -4.870791e+10 8.073064e+09
-4.819374e+11 -7.614698e+10 2.680052e+10
-4.904798e+11 -8.511132e+10 -6.044513e+10
-4.837005e+11 -1.036081e+11 1.293124e+10
-4.619778e+11 -1.206703e+11 2.297019e+09
-4.628829e+11 -1.642675e+11 -1.221151e+10
-4.559304e+11 -1.603947e+11 2.289479e+09
-4.026743e+11 -1.622133e+11 -5.700156e+09
-4.473427e+11 -2.204186e+11 -4.817576e+09
-4.381069e+11 -2.178667e+11 1.521302e+10
-4.012014e+11 -2.457573e+11 -2.220899e+10
-4.230172e+11 -2.782267e+11 5.209317e+10
-4.405462e+11 -2.750646e+11 2.585222e+08
-4.108138e+11 -3.158714e+11 1.607838e+10
-4.069790e+11 -3.180018e+11 -1.538340e+10
-3.726571e+11 -3.153306e+11 -8.929419e+10
-3.416045e+11 -2.953733e+11 2.963664e+10
-2.881477e+11 -3.033743e+11 3.504631e+10
-3.257781e+11 -3.434743e+11 -4.318145e+10
-3.168959e+11 -3.731068e+11 7.566655e+09
-2.691958e+11 -3.503869e+11 1.196341e+09
-2.452807e+11 -3.455729e+11 1.463081e+09
-2.516435e+11 -4.038174e+11 1.920735e+10
-2.588647e+11 -4.257009e+11 -1.676206e+10
-2.338048e+11 -4.259492e+11 3.649677e+09
-2.037017e+11 -4.444287e+11 5.443676e+09
-1.841695e+11 -4.323404e+11 -5.483010e+09
-1.503798e+11 -3.909077e+11 -3.079364e+09
-1.348250e+11 -3.740667e+11 -2.840660e+09
-1.042880e+11 -3.843760e+11 5.224850e+09
-9.986171e+10 -3.854231e+11 3.597630e+09
-7.459334e+10 -4.120964e+11 -5.033096e+09
-9.066469e+10 -4.619578e+11 -1.286879e+10
-4.100866e+10 -4.915651e+11 -5.125989e+09
-4.091309e+10 -4.353799e+11 2.652031e+10
-2.626351e+10 -3.761577e+11 -3.598071e+09
-1.384140e+09 -3.383814e+11 1.112450e+09
-5.112118e+09 -3.659091e+11 5.053276e+09
-5.743961e+09 -3.751099e+11 6.023336e+09
-4.908946e+09 -3.687451e+11 -3.440794e+09
-3.606993e+09 -3.685373e+11 -7.489897e+09
-1.041996e+09 -3.403811e+11 -1.959641e+09
5.126239e+11 -1.077361e+10 -1.599020e+10
-5.002932e+11 -1.127280e+10 1.574668e+10
5.773186e+09 4.967476e+11 -1.780019e+09
2.962947e+11 -3.145418e+11 -6.876446e+09
-2.981195e+11 -3.096366e+11 8.506466e+09
1.441284e+11 -4.325796e+11 -1.962155e+10
-1.475911e+11 -4.299100e+11 1.815261e+10
1.028687e+11 -4.839658e+11 -2.510097e+10
2.184097e+10 -4.313521e+11 -8.080816e+09
-7.382902e+10 -4.356456e+11 -7.106520e+09
-1.751483e+10 -4.312871e+11 -4.749384e+09
2.657749e+11 -4.338032e+11 2.511599e+10
-2.603419e+11 -4.296971e+11 -1.814488e+10
-1.186849e+11 -4.130816e+11 1.984249e+09
1.176887e+11 -4.145073e+11 1.721297e+09
2.670075e+11 -3.556846e+11 -9.551784e+09
-2.605747e+11 -3.460030e+11 2.405203e+09
3.528347e+11 -3.007277e+11 8.260635e+09
3.839428e+11 -2.786517e+11 -1.933896e+10
4.826880e+11 -2.460773e+11 4.593971e+09
5.265369e+11 -1.799560e+11 -3.201725e+09
5.470689e+11 -1.139638e+11 -6.717237e+09
-3.900510e+11 -3.333211e+11 -2.074099e+10
-4.564024e+11 -2.714075e+11 7.668707e+09
-4.469602e+11 -2.446285e+11 2.744558e+10
-4.719526e+11 -1.610169e+11 -8.951105e+09
-4.997206e+11 -6.119586e+10 -4.339096e+10
4.797979e+11 -6.362630e+10 -1.006506e+10
-4.687116e+11 -5.260666e+10 1.413883e+10
6.685159e+09 -4.194234e+11 -5.211952e+09
-1.641936e+10 -4.094549e+11 6.341620e+09
2.924735e+11 -4.272665e+11 -2.794253e+09
-2.717328e+11 -4.059906e+11 9.107100e+09
6.605675e+10 -4.811170e+11 -1.502730e+09
-8.449997e+10 -5.067683e+11 -1.104181e+10
-3.353942e+11 -3.781873e+11 3.671792e+09
3.347387e+11 -3.799236e+11 -2.557037e+08
2.097541e+11 -4.671601e+11 2.937220e+09
-2.102826e+11 -4.659799e+11 -6.441941e+09
3.896924e+11 -1.860127e+11 3.993004e+10
-3.997055e+11 -2.492035e+11 -2.418928e+10
4.535702e+11 -1.619761e+11 2.914672e+10
-4.355397e+11 -1.487875e+11 3.069682e+10
2.463728e+11 -3.250018e+11 6.251755e+09
4.589158e+11 -1.643893e+11 -1.479027e+10
-3.764879e+11 -1.469476e+11 -4.929161e+09
-4.267540e+11 -3.270127e+11 1.621264e+10
3.812346e+11 -2.787567e+11 2.352755e+10
2.129688e+10 -3.765458e+11 1.510212e+09
5.171127e+11 -1.812170e+11 2.938658e+08
-2.374503e+11 -3.387648e+11 -1.682110e+10
-9.790181e+10 -4.061286e+11 -4.250382e+09
1.039239e+11 -5.075561e+11 2.049251e+10
1.463852e+11 -3.908322e+11 5.099477e+09
-1.457035e+11 -3.900434e+11 -5.982617e+09
4.681906e+11 -2.456476e+11 4.988851e+09
5.462360e+11 -1.022427e+11 -7.332373e+09
5.049588e+11 2.761485e+10 8.577517e+09
4.940343e+11 6.973533e+10 -8.102105e+09
2.912448e+10 -4.199186e+11 -3.880857e+10
4.906909e+11 5.645469e+10 1.666278e+09
4.570520e+11 1.378466e+11 1.091655e+09
4.515621e+11 1.774799e+11 -2.048591e+08
4.348802e+11 2.023622e+11 -1.018423e+09
4.166750e+11 2.484113e+11 -1.858731e+08
3.941876e+11 2.707739e+11 -6.883245e+08
3.709598e+11 3.131046e+11 -2.031155e+08
3.342219e+11 3.389698e+11 -1.774742e+08
3.178691e+11 3.558166e+11 5.418569e+08
2.826774e+11 3.909022e+11 1.021970e+09
6.012615e+10 -4.477140e+11 2.465023e+10
2.546341e+11 4.069374e+11 5.134996e+08
1.956354e+11 4.463352e+11 1.352133e+10
1.390985e+11 4.126041e+11 2.982625e+09
1.233184e+11 5.012214e+11 -5.578173e+09
7.855303e+10 5.505760e+11 -1.920000e+10
4.913573e+11 1.205542e+10 2.071218e+10
2.358270e+11 4.954311e+11 -6.039325e+10
1.245196e+11 4.120344e+11 -9.584546e+09
5.927357e+10 4.746222e+11 1.203419e+10
1.269242e+11 4.935446e+11 -2.906088e+09
7.862775e+10 -4.681383e+11 -1.744374e+10
5.485250e+10 5.505322e+11 -1.023800e+10
-5.050690e+11 2.688497e+10 -8.564515e+09
-4.938730e+11 6.967273e+10 8.073629e+09
-4.920453e+11 5.504030e+10 -3.480361e+09
-4.657574e+11 1.392823e+11 5.630660e+08
-4.429587e+11 1.772709e+11 5.681896e+08
-4.343114e+11 2.047678e+11 5.014723e+08
-4.148665e+11 2.346458e+11 -4.346325e+08
-3.931511e+11 2.795851e+11 -9.789029e+08
-3.731406e+11 3.063194e+11 1.002987e+09
1.101365e+11 -4.842163e+11 -2.192619e+10
-3.354020e+11 3.388722e+11 4.966096e+08
-3.173420e+11 3.566024e+11 -6.415039e+08
-2.838464e+11 3.934098e+11 1.967917e+08
-2.441618e+11 4.097511e+11 5.006001e+08
-1.889968e+11 4.424219e+11 1.464380e+10
-1.397667e+11 4.122787e+11 3.700179e+09
-1.096813e+11 4.810721e+11 -4.366718e+09
-4.556669e+10 5.067680e+11 -1.074559e+10
-4.911727e+11 1.199102e+10 -2.055494e+10
-2.009239e+11 4.540813e+11 -2.128687e+10
9.585620e+10 -4.558517e+11 5.385199e+10
-1.366254e+11 3.899086e+11 1.079454e+10
-1.519342e+10 5.223099e+11 3.323161e+10
-7.375505e+10 3.998244e+11 1.264482e+10
-1.152633e+11 4.020850e+11 1.104136e+10
-4.388868e+11 -2.991678e+11 1.813329e+10
-4.251388e+09 -4.200692e+11 9.181166e+08
-1.543086e+10 -3.842048e+11 -6.317938e+09
1.736742e+11 -4.612255e+11 -1.488576e+10
-1.734805e+11 -4.427546e+11 1.245393e+10
3.315150e+11 -3.213466e+11 -4.548027e+08
1.051714e+11 -3.797677e+11 1.917238e+09
-3.400429e+11 -3.248603e+11 -8.469016e+08
-8.077489e+10 5.109168e+11 -1.604111e+10
-9.727343e+10 -4.054425e+11 1.709023e+10
1.116529e+11 -4.300300e+11 1.371551e+10
-3.605982e+11 -2.894435e+11 -1.616743e+10
-3.662644e+11 -3.109186e+11 -1.746872e+09
3.694564e+11 -3.362542e+11 -8.411993e+09
3.589023e+11 -3.167913e+11 -2.092595e+09
5.033591e+11 -3.346168e+10 1.008432e+10
5.004209e+11 -1.959111e+10 7.522269e+09
3.484359e+09 -3.377515e+11 -1.090305e+09
1.341801e+11 -3.751117e+11 2.513072e+09
-4.867548e+11 -9.708712e+10 -1.246968e+10
-4.977154e+11 -1.157157e+11 5.377235e+09
-1.230971e+10 -4.802033e+11 2.969683e+10
4.834374e+11 -4.532939e+10 -9.063395e+09
4.783703e+11 -6.853274e+10 -2.145835e+10
9.871779e+09 -3.847180e+11 -8.358592e+09
-1.574296e+10 -3.737990e+11 1.058732e+10
4.597544e+11 -1.008792e+11 -3.713377e+10
-1.255286e+11 -4.002972e+11 -3.564521e+09
1.265777e+11 -4.061740e+11 5.666991e+09
1.495154e+11 -3.995942e+11 3.369237e+09
-4.798300e+11 -9.063497e+10 -1.599713e+10
-4.654956e+11 -1.902863e+10 -8.154825e+09
-4.629484e+11 -3.729407e+10 8.790644e+09
4.273452e+10 -4.636108e+11 -1.016443e+10
1.099770e+10 4.969778e+11 1.410910e+10
-1.212394e+11 -4.652703e+11 -3.465024e+10
4.825856e+11 8.009155e+09 1.323263e+10
-4.825944e+11 8.001718e+09 -1.323529e+10
1.019116e+11 -4.732542e+11 -1.975500e+10
-5.456960e+11 1.495822e+11 7.858917e+09
1.871709e+11 -4.340260e+11 6.118695e+09
-3.549871e+11 4.411567e+11 7.482848e+09
-4.163910e+11 3.859697e+11 -7.366655e+09
3.545326e+11 4.413179e+11 -7.178253e+09
-4.773610e+11 3.041469e+11 7.171999e+09
5.320423e+11 1.876002e+11 -6.172387e+09
-5.498191e+11 1.429092e+11 9.157180e+09
-3.599547e+11 4.382148e+11 7.666780e+09
-4.184780e+11 3.812216e+11 -7.124557e+09
3.594262e+11 4.394982e+11 -7.380599e+09
-4.815399e+11 3.008221e+11 7.402367e+09
2.033677e+11 -4.439649e+11 -6.638933e+09
5.348028e+11 1.823961e+11 -8.240196e+09
4.983160e+11 2.684052e+11 -9.257784e+09
5.055212e+11 2.613605e+11 -8.477898e+09
4.483411e+11 3.455530e+11 -9.072041e+09
4.562751e+11 3.399333e+11 -8.420789e+09
4.100196e+11 3.879390e+11 7.356395e+09
4.080034e+11 3.922231e+11 6.267670e+09
4.747227e+11 3.010892e+11 8.076515e+09
4.721885e+11 3.105084e+11 8.176654e+09
5.179147e+11 2.181416e+11 8.649940e+09
2.416501e+11 -4.343508e+11 -7.150518e+09
-3.049963e+11 4.748610e+11 -7.705337e+09
-5.305505e+11 1.919220e+11 -7.614945e+09
5.157239e+11 2.292982e+11 8.582296e+09
-3.004813e+11 4.786415e+11 -6.680166e+09
-5.294600e+11 1.976583e+11 -6.669967e+09
-4.888157e+11 7.074564e+10 -5.816344e+09
4.893233e+11 7.611682e+10 4.533403e+09
1.808403e+10 4.950432e+11 -1.483165e+10
4.815804e+11 8.718396e+10 6.558942e+09
-4.828697e+11 8.653111e+10 -7.152847e+09
2.465538e+11 -4.380846e+11 1.865678e+10
-3.849184e+11 4.091084e+11 -1.028394e+08
3.112890e+11 4.664002e+11 4.807294e+08
-4.454525e+11 3.404431e+11 1.029241e+08
3.850040e+11 4.090896e+11 1.375921e+08
-2.747679e+11 4.905636e+11 -2.375510e+09
-5.158854e+11 2.211299e+11 -3.544674e+08
5.467991e+11 1.474392e+11 8.807059e+08
2.471893e+11 4.561492e+11 -2.230079e+10
2.845512e+11 4.832335e+11 -1.713480e+09
-5.006588e+11 2.581486e+11 1.420821e+09
2.859335e+11 -4.131703e+11 1.299940e+10
-5.039766e+11 2.587662e+11 -6.360981e+08
-5.184726e+11 2.230985e+11 1.522883e+08
-2.749506e+11 4.899224e+11 -4.992145e+08
-2.257321e+11 4.363354e+11 1.680993e+10
3.870333e+11 4.109637e+11 7.323653e+07
-4.490721e+11 3.429971e+11 6.952499e+07
3.149760e+11 4.687395e+11 5.291697e+08
2.846080e+11 4.878444e+11 -1.609351e+09
-3.869775e+11 4.109946e+11 -6.652414e+07
5.500926e+11 1.500221e+11 -5.118419e+08
2.594677e+11 -3.860963e+11 -3.009480e+10
4.807080e+11 7.954873e+10 9.310364e+08
-4.806911e+11 7.951015e+10 -9.435423e+08
4.879426e+11 2.234595e+10 -1.884436e+10
-4.868462e+11 3.528118e+10 1.424616e+10
4.280344e+11 -1.931246e+11 3.755469e+10
1.124482e+11 4.415914e+11 -1.385799e+10
3.301004e+10 4.966332e+11 9.373857e+09
-4.281544e+11 -3.036230e+11 1.380251e+10
-4.316796e+11 -3.406801e+11 7.711818e+09
-3.950289e+11 -3.155062e+11 -5.620756e+10
2.726655e+11 -3.483173e+11 -1.869122e+09
-4.325768e+11 -6.405883e+10 3.514495e+10
-1.392984e+11 -3.849939e+11 -1.752841e+09
1.410509e+11 -3.861474e+11 2.468801e+09
-6.351248e+09 4.785204e+11 -4.715070e+09
-5.100293e+10 4.667804e+11 -1.767912e+10
1.682731e+11 4.777400e+11 1.843500e+10
1.131967e+11 4.025773e+11 1.155094e+10
2.115242e+11 4.359347e+11 -1.261130e+09
-4.369206e+11 2.102450e+11 8.360393e+08
2.539475e+11 4.130671e+11 8.325669e+08
3.156409e+11 -3.725306e+11 -7.023144e+09
-2.115565e+11 4.324514e+11 1.861908e+10
-1.711898e+11 4.492179e+11 -2.911847e+10
-3.183634e+10 5.154243e+11 2.610729e+10
-4.231618e+11 2.456051e+11 -6.620210e+07
-4.556666e+11 1.764144e+11 -4.184034e+08
-2.548732e+11 4.168559e+11 -4.208026e+08
3.475813e+11 3.436097e+11 2.300155e+08
-3.996433e+11 2.785819e+11 2.632311e+09
2.334722e+11 4.367737e+11 2.416350e+09
2.892146e+11 3.921440e+11 -2.639498e+09
3.262108e+11 -3.435071e+11 4.806881e+10
-3.479429e+11 3.437550e+11 2.211203e+07
4.691914e+11 1.412951e+11 -3.486894e+09
-2.448711e+11 -4.388997e+11 1.708950e+10
-2.662158e+11 -4.336016e+11 1.563656e+10
-2.456964e+11 -4.526423e+11 -1.522428e+10
2.506662e+11 -4.453703e+11 8.271231e+09
-4.218541e+11 -2.259722e+11 -1.895101e+09
-4.271151e+11 -2.593895e+11 -6.411784e+09
4.347651e+11 -1.917426e+11 -2.200076e+10
4.875600e+11 -1.678057e+11 -8.675724e+09
2.913575e+11 -3.093986e+11 -2.734678e+10
8.917501e+10 4.597416e+11 1.586104e+10
6.474914e+10 4.968889e+11 1.378973e+10
4.612708e+11 -1.307214e+11 1.531451e+10
4.803512e+11 -1.647082e+11 1.372085e+10
4.434292e+10 4.909613e+11 4.267691e+09
-1.163930e+09 4.876566e+11 -1.203227e+10
-6.875509e+09 4.923839e+11 -6.652807e+09
-2.689509e+11 -3.680663e+11 -1.116843e+10
-2.111799e+11 4.309342e+11 3.487931e+09
-6.441221e+10 4.488762e+11 1.092180e+10
3.437858e+11 -3.069863e+11 -3.531503e+10
-1.161251e+11 4.872539e+11 -4.706728e+09
-1.347366e+11 4.423630e+11 -2.700349e+09
-1.176509e+11 3.949947e+11 7.031172e+09
4.896652e+11 2.581127e+10 1.844709e+10
-4.896565e+11 2.582098e+10 -1.844417e+10
4.097646e+11 -1.981318e+11 -7.063499e+09
3.462737e+11 -2.302440e+11 3.346650e+09
1.209133e+11 3.959225e+11 2.810781e+09
4.769066e+11 7.400374e+10 -1.383226e+08
2.522248e+11 -4.608746e+11 2.000096e+10
3.596448e+11 -3.218364e+11 5.330860e+10
2.459437e+11 -4.490070e+11 2.514101e+10
-4.534965e+11 1.772766e+11 -3.206182e+09
-2.525850e+11 4.163330e+11 -3.211470e+09
3.456701e+11 3.437871e+11 3.355304e+09
4.663697e+11 1.364797e+11 -1.450889e+09
-4.214362e+11 2.435087e+11 3.011340e+09
-3.975584e+11 2.832520e+11 5.369283e+09
2.857178e+11 3.956855e+11 -5.385736e+09
-3.455842e+11 3.429054e+11 -3.021056e+09
3.210150e+11 3.660930e+11 -2.895389e+09
3.664504e+11 -2.918365e+11 -2.347073e+10
-3.776241e+11 3.096148e+11 -5.285301e+09
-3.207950e+11 3.665481e+11 3.128569e+09
-3.377218e+11 -3.586482e+11 -2.806372e+10
-3.086719e+11 -3.783659e+11 1.296175e+10
3.416535e+11 -3.613384e+11 3.086300e+10
3.094528e+11 -3.774272e+11 -1.108054e+10
4.171078e+11 -2.447186e+11 -1.136257e+09
-4.786342e+11 7.078169e+10 2.135484e+09
6.442253e+10 -4.458037e+11 2.253700e+10
6.991185e+10 -4.779489e+11 -1.143899e+10
3.780052e+11 -2.770511e+11 -3.176399e+09
8.775647e+10 -5.110607e+11 -3.614840e+10
6.151925e+10 -4.766235e+11 5.054963e+08
3.784706e+11 3.158717e+11 -1.471121e+09
4.011269e+11 2.810216e+11 -1.530389e+09
4.414616e+11 2.110784e+11 -1.570842e+09
4.248586e+11 2.501093e+11 -1.462297e+09
4.580817e+11 1.770307e+11 -1.424656e+09
-2.896342e+11 3.965207e+11 1.444806e+09
-4.717218e+11 1.395759e+11 1.649257e+09
2.918057e+11 -3.807068e+11 -2.616369e+09
3.475997e+11 -2.396733e+11 -1.456526e+10
3.385798e+11 -3.533713e+11 2.005640e+10
4.964849e+11 -3.140707e+10 -5.282582e+09
1.467073e+10 -3.859150e+11 5.954716e+08
-1.966007e+10 -3.696701e+11 -9.202921e+09
4.933988e+11 -1.875903e+08 -1.922529e+10
4.952546e+11 -3.287098e+10 -1.742709e+10
-4.946780e+11 2.202869e+09 1.717758e+10
-4.764768e+11 -2.327927e+10 1.505680e+10
-6.086830e+10 4.906376e+11 -1.411854e+09
-4.474556e+11 -2.385817e+11 3.540726e+08
3.943579e+11 -2.461820e+11 3.011771e+09
-4.467597e+11 -1.907385e+11 2.432270e+10
-1.054103e+10 -3.753824e+11 4.165504e+09
-2.846088e+09 -3.743824e+11 6.712963e+08
4.677748e+11 5.735502e+10 2.922379e+09
-4.678536e+11 5.732862e+10 -2.930207e+09
-2.909482e+11 -3.844095e+11 4.433035e+09
-3.404151e+11 -3.530741e+11 -1.947828e+10
4.724291e+11 -1.544237e+11 1.518822e+10
1.051313e+11 4.932781e+11 1.338224e+10
4.659095e+11 -2.266019e+11 -1.214161e+10
3.970774e+11 -2.010446e+11 5.654996e+09
-4.679157e+11 -5.018519e+08 8.435509e+08
4.679987e+11 -4.795196e+08 -7.995972e+08
1.993622e+11 -4.593024e+11 6.383380e+09
2.196894e+11 -4.496734e+11 -9.155584e+09
2.307599e+11 -4.528012e+11 2.111765e+10
2.881557e+11 -4.299877e+11 2.024016e+09
2.886222e+11 -3.952937e+11 -1.835841e+10
1.703843e+11 -4.201717e+11 2.467367e+09
-2.008167e+11 -4.595828e+11 -6.635603e+09
-1.750409e+11 -4.204015e+11 -1.433549e+09
4.581079e+11 -2.071121e+11 3.086292e+10
-2.180156e+11 -4.479185e+11 4.915456e+09
-2.625003e+11 -4.301155e+11 -1.583629e+10
-2.817895e+11 -4.193248e+11 1.870890e+10
-2.524573e+11 -3.902969e+11 2.069629e+10
-2.804837e+10 -4.845215e+11 3.408359e+10
-5.167857e+10 -4.948086e+11 8.330639e+09
2.747833e+11 -3.686090e+11 -1.018675e+10
2.805596e+11 -4.052753e+11 -1.320926e+09
-2.934266e+11 -3.255571e+11 2.890054e+10
3.206966e+11 -3.238549e+11 -2.975375e+10
4.445089e+11 -2.314577e+11 -2.391646e+10
-2.112016e+11 4.377317e+11 3.146733e+10
-9.346157e+10 -4.515321e+11 -2.030354e+10
-7.521409e+10 -4.798654e+11 -1.032349e+10
1.241814e+11 4.872481e+11 -5.251158e+09
1.367967e+11 4.764009e+11 3.885491e+10
4.566588e+11 -2.182468e+11 1.370370e+10
1.179874e+11 4.675852e+11 7.563659e+09
1.791293e+11 4.743577e+11 1.419460e+10
-4.541313e+11 -2.782195e+11 1.716339e+10
-7.820603e+10 -4.941276e+11 -5.750203e+09
4.401590e+11 -1.646398e+11 -3.156743e+10
-1.294576e+11 4.660351e+11 -4.798129e+09
-9.461880e+10 4.814335e+11 -4.472060e+08
-3.279701e+10 -3.941810e+11 1.834615e+10
-1.450388e+11 -3.992266e+11 -2.693110e+09
-1.229022e+11 -3.926466e+11 1.062699e+09
1.442475e+11 -3.983860e+11 4.122669e+09
1.212062e+11 -3.912738e+11 -8.101120e+08
4.178884e+10 -4.036385e+11 -1.932705e+10
4.033551e+09 4.923270e+11 -3.075081e+10
3.851287e+11 -2.791934e+11 -7.868028e+09
5.015118e+11 -1.532760e+11 4.622519e+10
3.599765e+11 -3.091913e+11 1.032329e+10
3.686652e+11 -2.780296e+11 2.640219e+09
-4.836880e+11 -1.261926e+10 1.403303e+10
5.035765e+11 3.331645e+10 2.172780e+10
-5.034751e+11 3.331379e+10 -2.173190e+10
4.339791e+11 -2.085689e+11 -3.813741e+10
9.925590e+10 4.780562e+11 2.352688e+10
4.583118e+11 -1.300545e+11 4.033060e+10
5.598324e+10 4.797260e+11 -5.625458e+09
4.633233e+11 -1.796868e+11 -3.162789e+10
4.973819e+11 -1.802248e+11 -3.725765e+10
4.686000e+11 -1.393348e+11 2.164375e+10
-4.244583e+11 -3.196268e+11 6.682957e+08
3.899225e+11 -2.818357e+11 6.530584e+09
2.442471e+11 -4.417170e+11 -8.146831e+09
-2.367853e+11 -4.442334e+11 3.645241e+09
2.067379e+11 4.913420e+11 -4.315565e+10
-2.520581e+11 -3.302578e+11 -1.630145e+10
-1.193315e+11 4.438111e+11 1.612414e+10
-3.982061e+11 -2.855760e+11 3.741041e+10
4.414216e+11 -2.131372e+11 -2.068378e+09
4.571616e+11 -1.453750e+11 3.554709e+10
2.840373e+11 -3.905224e+11 -1.523451e+10
8.694624e+10 -4.033597e+11 3.776381e+10
-1.006849e+11 -4.031954e+11 7.247611e+09
-4.799316e+11 -6.688827e+10 -6.759682e+10
-4.726856e+11 -1.332328e+11 2.278969e+10
-4.424821e+11 -1.886476e+11 -2.499246e+10
-4.348205e+11 -1.506743e+11 -1.436955e+10
-4.275945e+11 -1.617381e+11 4.359786e+09
-4.685116e+11 -2.047609e+11 2.250274e+10
-4.151475e+11 -2.540205e+11 -1.989868e+10
5.435757e+11 -1.173943e+11 1.576723e+10
-4.577787e+11 -1.593523e+11 -3.143045e+09
-4.504813e+11 -1.643458e+11 -2.845951e+10
-4.213539e+11 -1.768892e+11 -1.769977e+10
-8.995871e+10 4.533865e+11 -1.547151e+10
-4.923978e+11 -1.375295e+11 2.847761e+10
-4.515452e+11 -1.486028e+11 -1.244734e+10
-7.518223e+10 4.509040e+11 1.330292e+10