# vtk DataFile Version 2.0
Electric current density generated by TTH
ASCII
DATASET UNSTRUCTURED_GRID
POINTS 640 double
1.540000e-05 -3.771912e-21 -9.797174e-23
1.437338e-05 5.528642e-06 -9.797174e-23
-9.601743e-06 -1.204020e-05 -9.797174e-23
-9.102649e-06 -1.242183e-05 -9.797174e-23
-8.588405e-06 -1.278277e-05 -9.797174e-23
-8.059867e-06 -1.312244e-05 -9.797174e-23
-7.517914e-06 -1.344027e-05 -9.797174e-23
-6.963447e-06 -1.373573e-05 -9.797174e-23
-6.397391e-06 -1.400833e-05 -9.797174e-23
-5.820687e-06 -1.425762e-05 -9.797174e-23
-5.234295e-06 -1.448317e-05 -9.797174e-23
-4.639191e-06 -1.468461e-05 -9.797174e-23
1.413592e-05 6.110311e-06 -9.797174e-23
-4.036366e-06 -1.486162e-05 -9.797174e-23
-3.426822e-06 -1.501389e-05 -9.797174e-23
-2.811575e-06 -1.514117e-05 -9.797174e-23
-2.191649e-06 -1.524325e-05 -9.797174e-23
-1.568074e-06 -1.531996e-05 -9.797174e-23
-9.418896e-07 -1.537117e-05 -9.797174e-23
-3.141375e-07 -1.539680e-05 -9.797174e-23
3.141375e-07 -1.539680e-05 -9.797174e-23
9.418896e-07 -1.537117e-05 -9.797174e-23
1.568074e-06 -1.531996e-05 -9.797174e-23
1.387492e-05 6.681810e-06 -9.797174e-23
2.191649e-06 -1.524325e-05 -9.797174e-23
2.811575e-06 -1.514117e-05 -9.797174e-23
3.426822e-06 -1.501389e-05 -9.797174e-23
4.036366e-06 -1.486162e-05 -9.797174e-23
4.639191e-06 -1.468461e-05 -9.797174e-23
5.234295e-06 -1.448317e-05 -9.797174e-23
5.820687e-06 -1.425762e-05 -9.797174e-23
6.397391e-06 -1.400833e-05 -9.797174e-23
6.963447e-06 -1.373573e-05 -9.797174e-23
7.517914e-06 -1.344027e-05 -9.797174e-23
1.359083e-05 7.242187e-06 -9.797174e-23
8.059867e-06 -1.312244e-05 -9.797174e-23
8.588405e-06 -1.278277e-05 -9.797174e-23
9.102649e-06 -1.242183e-05 -9.797174e-23
9.601743e-06 -1.204020e-05 -9.797174e-23
1.008486e-05 -1.163854e-05 -9.797174e-23
1.055118e-05 -1.121751e-05 -9.797174e-23
1.099995e-05 -1.077781e-05 -9.797174e-23
1.143041e-05 -1.032017e-05 -9.797174e-23
1.184184e-05 -9.845348e-06 -9.797174e-23
1.223356e-05 -9.354143e-06 -9.797174e-23
1.328412e-05 7.790511e-06 -9.797174e-23
1.260492e-05 -8.847368e-06 -9.797174e-23
1.295530e-05 -8.325869e-06 -9.797174e-23
1.328412e-05 -7.790511e-06 -9.797174e-23
1.359083e-05 -7.242187e-06 -9.797174e-23
1.387492e-05 -6.681810e-06 -9.797174e-23
1.413592e-05 -6.110311e-06 -9.797174e-23
1.437338e-05 -5.528642e-06 -9.797174e-23
1.458693e-05 -4.937771e-06 -9.797174e-23
1.477619e-05 -4.338681e-06 -9.797174e-23
1.494086e-05 -3.732371e-06 -9.797174e-23
1.295530e-05 8.325869e-06 -9.797174e-23
1.508067e-05 -3.119848e-06 -9.797174e-23
1.519537e-05 -2.502132e-06 -9.797174e-23
1.528478e-05 -1.880252e-06 -9.797174e-23
1.534876e-05 -1.255243e-06 -9.797174e-23
1.538718e-05 -6.281442e-07 -9.797174e-23
1.524940e-05 -3.735025e-21 3.127326e-07
1.491099e-05 -3.652140e-21 3.899712e-07
1.463961e-05 -3.585671e-21 1.735535e-07
1.463961e-05 -3.585671e-21 -1.735535e-07
1.491099e-05 -3.652140e-21 -3.899712e-07
1.260492e-05 8.847368e-06 -9.797174e-23
1.524940e-05 -3.735025e-21 -3.127326e-07
2.776049e-07 1.459740e-05 -5.378161e-09
2.807477e-07 -1.459730e-05 0.000000e+00
-1.459522e-05 3.816940e-07 1.305419e-08
1.051167e-05 1.037988e-05 -3.292477e-07
1.051167e-05 -1.037988e-05 -3.292477e-07
1.398064e-05 5.676545e-06 -3.899463e-07
1.398064e-05 -5.676545e-06 -3.899463e-07
1.474944e-05 3.095210e-06 3.937010e-07
1.500772e-05 1.140211e-06 3.967396e-07
1.223356e-05 9.354143e-06 -9.797174e-23
1.474389e-05 -3.036134e-06 3.964392e-07
1.500459e-05 -1.093998e-06 3.975258e-07
1.302182e-05 7.283846e-06 -3.920256e-07
1.306627e-05 -7.367514e-06 -3.999999e-07
1.405434e-05 -4.192314e-06 -2.205361e-07
1.405434e-05 4.192314e-06 -2.205361e-07
1.205476e-05 9.046419e-06 -3.935289e-07
1.205476e-05 -9.046419e-06 -3.935289e-07
9.435307e-06 1.124051e-05 -2.340595e-07
8.136002e-06 1.268560e-05 -3.937441e-07
1.184184e-05 9.845348e-06 -9.797174e-23
6.476756e-06 1.344912e-05 -3.933562e-07
4.764059e-06 1.407435e-05 -3.742444e-07
3.024354e-06 1.461907e-05 -3.935810e-07
9.380199e-06 -1.128236e-05 -2.295432e-07
8.061423e-06 -1.262836e-05 -3.995974e-07
6.476756e-06 -1.344912e-05 -3.933562e-07
4.799644e-06 -1.416708e-05 -3.977925e-07
2.961203e-06 -1.466973e-05 -3.985198e-07
1.860821e-06 1.453565e-05 2.011902e-07
1.751885e-06 -1.452619e-05 -1.554675e-07
1.143041e-05 1.032017e-05 -9.797174e-23
1.466493e-05 7.734594e-07 -2.469255e-07
1.468924e-05 -8.191784e-07 -2.776585e-07
1.223517e-05 8.004318e-06 -1.273700e-07
1.222482e-05 -7.986164e-06 4.211315e-08
1.446001e-05 2.024576e-06 -2.901879e-08
1.448869e-05 -2.067279e-06 1.645903e-07
1.115390e-05 -9.438414e-06 9.483152e-08
1.115390e-05 9.438414e-06 9.483152e-08
1.318986e-05 6.260010e-06 -2.131454e-09
1.318963e-05 -6.260511e-06 -2.731872e-09
1.538718e-05 6.281442e-07 -9.797174e-23
1.099995e-05 1.077781e-05 -9.797174e-23
7.180220e-06 1.282105e-05 -2.584725e-07
7.152864e-06 -1.274859e-05 1.190876e-07
3.874944e-06 1.409461e-05 1.172261e-07
3.871610e-06 -1.413795e-05 -2.082340e-07
1.178005e-05 8.745082e-06 2.278865e-07
5.482722e-06 1.355045e-05 1.174378e-07
5.564812e-06 -1.358792e-05 -2.443077e-07
8.678842e-06 -1.181031e-05 -2.045370e-07
8.679726e-06 1.188146e-05 -2.798216e-07
4.731748e-06 1.397916e-05 3.186897e-07
1.055118e-05 1.121751e-05 -9.797174e-23
1.177033e-05 -8.730797e-06 2.023334e-07
1.438514e-05 -3.283315e-06 -3.162519e-07
1.441094e-05 3.271082e-06 -3.324186e-07
1.379429e-05 4.985331e-06 2.223792e-07
1.379429e-05 -4.985331e-06 2.223792e-07
6.396973e-06 1.328345e-05 3.069482e-07
2.986911e-06 1.443808e-05 3.071860e-07
-7.334099e-07 1.478628e-05 -3.489451e-07
-1.782580e-06 1.449079e-05 -4.215245e-09
-2.851469e-06 1.432143e-05 -4.501934e-08
1.008486e-05 1.163854e-05 -9.797174e-23
-4.116621e-06 1.400928e-05 -3.561940e-08
-5.241849e-06 1.362828e-05 3.588711e-08
-6.335413e-06 1.315560e-05 -3.589921e-08
-7.386648e-06 1.259547e-05 3.638403e-08
-8.388717e-06 1.195148e-05 -3.638428e-08
-9.334961e-06 1.122795e-05 3.638428e-08
-1.021686e-05 1.043163e-05 -3.435675e-08
-1.103720e-05 9.559673e-06 -3.591430e-08
-1.177589e-05 8.633171e-06 3.435857e-08
-1.244192e-05 7.641753e-06 3.219074e-08
9.601743e-06 1.204020e-05 -9.797174e-23
-1.302549e-05 6.603385e-06 5.431002e-08
-1.415506e-05 5.115713e-06 3.967204e-07
-1.455365e-05 3.321775e-06 3.934526e-07
-1.480205e-05 1.539869e-06 3.821788e-07
-7.273510e-07 1.463316e-05 1.958448e-07
-1.349985e-05 5.804276e-06 2.584943e-07
-1.407890e-05 4.158067e-06 2.401136e-07
-1.443036e-05 2.332122e-06 -1.173195e-07
-1.446530e-05 3.313629e-06 -3.665988e-07
-1.476598e-05 1.471835e-06 -3.662333e-07
9.102649e-06 1.242183e-05 -9.797174e-23
-7.334099e-07 -1.478628e-05 -3.489451e-07
-1.782580e-06 -1.449079e-05 -4.215245e-09
-2.852051e-06 -1.432134e-05 -4.528083e-08
-4.113569e-06 -1.401020e-05 3.588674e-08
-5.239243e-06 -1.362914e-05 -3.435658e-08
-6.335363e-06 -1.315527e-05 -3.219454e-08
-7.389199e-06 -1.259389e-05 -3.561860e-08
-8.386067e-06 -1.195312e-05 3.435855e-08
-9.337332e-06 -1.122593e-05 3.591024e-08
-1.021673e-05 -1.043176e-05 -3.435857e-08
8.588405e-06 1.278277e-05 -9.797174e-23
-1.103721e-05 -9.559667e-06 -3.591015e-08
-1.177773e-05 -8.630888e-06 3.588687e-08
-1.244049e-05 -7.644436e-06 -3.435659e-08
-1.302550e-05 -6.603388e-06 -5.435573e-08
-1.415503e-05 -5.115705e-06 -3.967235e-07
-1.455365e-05 -3.321775e-06 -3.934525e-07
-1.496713e-05 -1.472879e-06 -3.980520e-07
-7.273510e-07 -1.463316e-05 1.958448e-07
-1.350625e-05 -5.634978e-06 1.627494e-07
-1.407891e-05 -4.158063e-06 -2.401207e-07
8.059867e-06 1.312244e-05 -9.797174e-23
-1.463069e-05 -7.459840e-07 1.930951e-07
-1.450671e-05 -2.388631e-06 -2.668840e-07
-1.380486e-05 -4.844973e-06 1.529083e-07
7.977215e-06 -1.241279e-05 3.162740e-07
1.473879e-05 5.901987e-07 3.127326e-07
1.473879e-05 -5.901987e-07 3.127326e-07
1.346113e-05 5.659311e-06 4.370632e-08
1.346113e-05 -5.659311e-06 4.370632e-08
1.079551e-05 1.015425e-05 3.575390e-07
1.079551e-05 -1.015425e-05 3.575390e-07
7.517914e-06 1.344027e-05 -9.797174e-23
-1.478482e-05 -1.513300e-06 3.754668e-07
1.421725e-05 -3.786466e-06 2.784564e-07
1.424715e-05 3.676267e-06 2.794560e-07
9.963105e-06 -1.082144e-05 2.748863e-07
1.003705e-05 -1.091685e-05 -3.619364e-07
9.998500e-06 1.078841e-05 2.746282e-07
1.003705e-05 1.091685e-05 -3.619364e-07
1.245716e-06 1.485685e-05 -3.895075e-07
9.719120e-07 1.474634e-05 3.329615e-07
2.401650e-06 -1.458515e-05 3.350862e-07
6.963447e-06 1.373573e-05 -9.797174e-23
3.284717e-06 -1.428536e-05 2.076670e-07
1.483508e-05 -1.482024e-06 -3.894931e-07
1.823305e-06 1.482185e-05 -3.944460e-07
2.373308e-06 1.442424e-05 -1.192299e-07
1.508046e-05 5.078104e-07 -3.899712e-07
1.508046e-05 -5.078104e-07 -3.899712e-07
2.369244e-06 1.474800e-05 3.950233e-07
1.408913e-05 -4.357746e-06 3.103651e-07
1.408913e-05 4.357746e-06 3.103651e-07
2.340950e-06 -1.451729e-05 -2.699425e-07
6.397391e-06 1.400833e-05 -9.797174e-23
1.025991e-06 -1.476180e-05 3.449018e-07
1.084113e-06 -1.464505e-05 -2.466774e-07
1.483725e-05 1.505702e-06 -3.905254e-07
-1.458060e-05 9.754954e-07 1.018845e-07
1.463511e-05 -2.540828e-06 -3.724146e-07
-1.317573e-06 1.485846e-05 -3.912431e-07
-1.317573e-06 -1.485846e-05 -3.912431e-07
1.470507e-05 2.608063e-06 -3.946100e-07
-3.562641e-06 -1.444788e-05 3.817779e-07
-1.160594e-05 -9.313214e-06 3.817806e-07
1.534876e-05 1.255243e-06 -9.797174e-23
5.820687e-06 1.425762e-05 -9.797174e-23
-9.990315e-06 -1.105296e-05 -3.869868e-07
-1.160594e-05 9.313214e-06 3.817809e-07
-8.007071e-06 -1.254277e-05 3.817854e-07
-4.728460e-06 1.410943e-05 3.817855e-07
-3.564337e-06 -1.446188e-05 -3.858774e-07
-1.164035e-05 -9.292243e-06 -3.858132e-07
-1.000612e-05 -1.101535e-05 3.820599e-07
-1.164507e-05 9.294840e-06 -3.872254e-07
-8.048488e-06 -1.253870e-05 -3.871871e-07
-4.767552e-06 1.411066e-05 -3.857830e-07
5.234295e-06 1.448317e-05 -9.797174e-23
-6.959168e-06 1.315386e-05 3.819924e-07
-6.982209e-06 1.316167e-05 -3.870432e-07
-9.003890e-06 1.184838e-05 3.819931e-07
-9.027868e-06 1.185237e-05 -3.870465e-07
-1.000540e-05 1.101572e-05 3.819931e-07
-1.000529e-05 1.103970e-05 -3.870447e-07
-8.082666e-06 1.249499e-05 3.819931e-07
-8.078270e-06 1.251889e-05 -3.870465e-07
[...]
POINT_DATA 640
VECTORS 10.000GHz_fone_imag double
-2.727524e-05 -7.429201e-05 7.392515e-02
-9.905279e-05 6.783414e-04 8.048751e-02
-1.525869e-03 -9.064394e-04 9.037431e-02
-4.080240e-04 -1.707084e-03 9.036141e-02
8.260384e-04 -2.852183e-04 8.973113e-02
1.049330e-03 8.553486e-04 9.013538e-02
1.211857e-03 1.486696e-03 9.020421e-02
4.415917e-04 1.729072e-03 8.978005e-02
1.046540e-03 1.422263e-03 9.029496e-02
3.888814e-04 1.837021e-03 9.019366e-02
-1.166929e-04 1.151498e-03 8.999622e-02
-4.602501e-04 1.931704e-04 9.004918e-02
-2.057421e-03 2.088728e-04 8.322226e-02
4.932302e-04 1.337572e-04 8.929455e-02
2.704862e-04 5.949867e-04 9.039662e-02
1.113249e-03 1.661828e-03 8.217628e-02
-5.170884e-05 2.564269e-03 8.142791e-02
-3.472697e-03 -2.026204e-03 8.163199e-02
-3.079323e-03 -1.016314e-02 8.024253e-02
5.100013e-03 -4.833911e-03 8.036685e-02
2.692258e-03 3.547492e-03 8.096245e-02
-7.077808e-04 1.150768e-02 8.145789e-02
1.551842e-03 3.618701e-05 8.057324e-02
-1.270191e-03 -2.114992e-03 8.448687e-02
2.907112e-03 1.250610e-02 8.204847e-02
-1.004565e-02 5.647875e-03 8.314452e-02
2.151877e-03 -5.183196e-03 8.436730e-02
-1.335888e-03 7.417919e-03 8.397622e-02
-4.527779e-04 -3.019939e-03 8.378301e-02
-1.218228e-03 2.530214e-03 8.305412e-02
-9.502304e-04 1.586938e-04 8.102464e-02
6.613115e-04 -4.374272e-03 8.403146e-02
3.058509e-03 -6.449229e-04 8.358321e-02
1.715376e-04 -4.925896e-03 8.134101e-02
4.433619e-03 7.965175e-04 8.465312e-02
3.988578e-03 6.360586e-03 8.002425e-02
-5.072324e-03 9.960732e-03 7.981679e-02
-6.665237e-03 1.243524e-02 7.892869e-02
-1.122196e-02 1.274476e-02 7.847498e-02
-1.016280e-02 -3.041063e-03 8.017755e-02
9.605523e-03 -2.982774e-03 7.936421e-02
-4.652870e-03 1.025256e-02 7.763308e-02
-6.660669e-03 -3.065455e-03 8.100645e-02
3.212285e-03 -1.658398e-03 8.213401e-02
2.336547e-04 -2.599412e-04 8.033898e-02
2.255552e-04 3.935739e-03 8.482321e-02
7.609519e-04 -3.878208e-04 7.956341e-02
-1.686385e-03 4.164734e-03 8.231974e-02
-4.629790e-03 -1.025517e-03 8.363590e-02
1.867258e-03 -4.670834e-04 8.434858e-02
-1.429247e-03 1.956479e-03 8.453705e-02
-1.930601e-03 -2.185153e-04 8.325277e-02
5.590235e-05 -6.421628e-04 8.018277e-02
2.401810e-03 -1.216788e-03 7.875584e-02
2.461300e-03 3.787575e-04 7.842581e-02
8.127057e-04 1.459802e-04 7.809326e-02
-6.272970e-03 -1.009469e-03 8.425103e-02
-1.941859e-03 -8.630011e-05 7.871869e-02
5.449190e-03 -1.037472e-03 8.298465e-02
3.187423e-03 -1.793829e-03 8.278863e-02
1.739894e-03 3.070738e-03 7.915320e-02
-9.356759e-04 -1.423805e-04 7.693756e-02
-6.050210e-02 1.650301e-05 4.600326e-02
-8.177888e-02 2.112777e-04 -2.131839e-02
-3.714507e-02 1.043254e-04 -8.161692e-02
3.701668e-02 6.543862e-05 -8.089180e-02
8.173606e-02 -6.579626e-05 -2.150741e-02
-1.360423e-03 -6.072083e-03 8.203264e-02
6.057743e-02 -3.272331e-05 4.616715e-02
-1.862930e-03 3.687788e-03 -9.789436e-02
-8.379133e-04 -5.013736e-03 -9.746877e-02
5.472471e-03 -2.952692e-04 -9.472213e-02
5.168189e-02 4.833561e-02 -5.781926e-02
5.129029e-02 -4.892028e-02 -5.779463e-02
8.118978e-02 2.778001e-02 1.052335e-02
8.175923e-02 -2.831968e-02 1.017911e-02
-8.717127e-02 -2.111442e-02 1.515291e-02
-8.754916e-02 -3.694398e-03 7.628756e-03
1.061644e-03 6.206136e-04 8.071484e-02
-8.395719e-02 1.564751e-02 8.402658e-03
-8.602760e-02 4.770138e-03 8.964229e-03
7.623287e-02 4.527059e-02 -1.767727e-02
7.634928e-02 -4.602394e-02 -4.960976e-03
4.456337e-02 -1.321087e-02 -7.923606e-02
4.468718e-02 1.237718e-02 -7.899165e-02
6.831949e-02 5.114745e-02 1.324212e-02
6.706377e-02 -5.030135e-02 1.368417e-02
3.244510e-02 3.425946e-02 -8.148368e-02
5.088158e-02 7.093974e-02 4.950393e-03
3.262063e-03 1.710375e-03 8.216240e-02
4.146982e-02 8.519089e-02 -8.062733e-03
2.918406e-02 8.586171e-02 -2.288993e-02
1.941329e-02 9.221173e-02 -3.233733e-02
3.525944e-02 -3.835683e-02 -8.742741e-02
4.914369e-02 -7.764783e-02 -2.119353e-03
4.076531e-02 -7.833700e-02 -1.730287e-02
2.807934e-02 -8.262695e-02 -1.064922e-02
1.271684e-02 -8.800168e-02 -1.356908e-02
-5.094434e-03 -3.663236e-02 -8.724389e-02
7.760030e-04 -2.639015e-02 -9.253363e-02
-6.975131e-03 2.897978e-03 8.094269e-02
5.259014e-02 3.222260e-03 -7.617146e-02
6.126755e-02 -2.613687e-03 -6.616628e-02
1.591248e-02 1.234643e-02 -9.248958e-02
-2.405734e-03 1.596032e-03 -9.637547e-02
4.444174e-03 2.978384e-04 -9.670136e-02
-2.281989e-02 4.967305e-03 -9.481160e-02
-1.239294e-02 1.252023e-02 -9.268901e-02
-1.221176e-02 -1.262357e-02 -9.280662e-02
3.477751e-03 4.881494e-04 -9.367502e-02
3.699617e-03 -2.278518e-04 -9.371352e-02
-4.274372e-04 6.236850e-05 7.709167e-02
-4.914281e-03 -1.043651e-02 7.825097e-02
2.790555e-02 4.740104e-02 -7.200884e-02
-1.023704e-02 2.352344e-02 -8.910385e-02
-4.261506e-03 -2.666262e-02 -8.977103e-02
1.024167e-02 -3.773780e-02 -7.970132e-02
-3.877935e-02 -3.004302e-02 -7.158055e-02
-1.275045e-02 -2.464112e-02 -9.143061e-02
1.825801e-02 -4.570891e-02 -6.902305e-02
2.526923e-02 -3.506047e-02 -9.178658e-02
3.360108e-02 4.228216e-02 -7.547736e-02
-2.815165e-02 -8.365601e-02 -3.886814e-02
9.424795e-03 1.480189e-03 8.063906e-02
-3.630189e-02 2.885188e-02 -7.630433e-02
6.535433e-02 -1.579172e-02 -6.072938e-02
7.922545e-02 1.629989e-02 -4.339842e-02
-4.674002e-02 -1.739170e-02 -7.580453e-02
-4.672489e-02 1.723606e-02 -7.569471e-02
-3.513963e-02 -7.166463e-02 -4.414314e-02
-1.433353e-02 -7.016962e-02 -6.153854e-02
-3.582570e-03 8.428994e-02 -3.709469e-02
-2.058727e-03 2.270608e-03 -9.773182e-02
-7.808260e-04 7.629227e-03 -9.406789e-02
-5.573471e-03 6.142612e-03 8.138609e-02
-1.556353e-03 5.345312e-03 -8.795386e-02
1.621156e-03 -4.294139e-03 -8.876782e-02
-1.732124e-03 3.457180e-03 -8.758781e-02
2.382104e-03 -4.136665e-03 -8.865616e-02
-2.358274e-03 3.315578e-03 -8.737765e-02
3.018240e-03 -3.698674e-03 -8.872392e-02
-3.704432e-03 3.845151e-03 -8.774630e-02
-4.283515e-03 3.652717e-03 -8.785308e-02
3.670737e-03 -2.727635e-03 -8.844955e-02
4.050640e-03 -2.526702e-03 -8.830027e-02
-1.608716e-03 -6.708237e-03 8.166520e-02
8.412951e-03 -2.443025e-03 -9.074528e-02
8.156888e-02 -2.776896e-02 1.103695e-02
9.055106e-02 -2.153913e-02 -9.202375e-03
8.569272e-02 -1.326231e-02 -4.148194e-02
4.002744e-03 -4.158066e-02 -8.802521e-02
3.623356e-02 -2.075566e-02 -8.699273e-02
5.243719e-02 -1.653166e-02 -7.606403e-02
-2.632954e-02 7.286180e-03 -8.957817e-02
-8.125663e-02 2.019501e-02 -2.978165e-02
-8.152904e-02 8.332522e-03 -4.801777e-02
-5.200085e-03 -6.159054e-03 8.276460e-02
-3.564895e-03 -8.434309e-02 -3.703001e-02
-2.050256e-03 -2.281840e-03 -9.766793e-02
-3.154624e-04 -6.146671e-03 -9.404778e-02
1.244073e-03 4.426803e-03 -8.902982e-02
-1.896281e-03 -5.016919e-03 -8.797507e-02
-2.062526e-03 -4.253651e-03 -8.826162e-02
-2.835025e-03 -4.737958e-03 -8.784436e-02
2.598768e-03 3.724372e-03 -8.843426e-02
3.115095e-03 3.721696e-03 -8.842168e-02
-3.701180e-03 -3.831375e-03 -8.786518e-02
3.127521e-03 1.328170e-03 8.036820e-02
-4.288807e-03 -3.685860e-03 -8.793932e-02
3.685208e-03 2.745976e-03 -8.880019e-02
-4.530921e-03 -2.797256e-03 -8.801611e-02
-8.072611e-03 -2.584953e-03 -9.118116e-02
-8.064256e-02 -2.742285e-02 1.057216e-02
-8.501507e-02 -1.911642e-02 -1.565585e-02
-8.799565e-02 -8.438767e-03 1.826135e-03
4.020580e-03 4.154906e-02 -8.793777e-02
2.494971e-02 8.269797e-03 -8.976739e-02
-5.068353e-02 -1.451758e-02 -7.169555e-02
1.874167e-04 2.732606e-03 8.300586e-02
3.056314e-02 3.891640e-03 -9.020785e-02
-5.378624e-02 -8.045230e-03 -6.734443e-02
3.828399e-02 1.268063e-02 -8.067556e-02
-4.644679e-02 6.887551e-02 -4.231819e-02
-6.568017e-02 -1.936521e-04 -6.273247e-02
-6.821262e-02 3.320724e-03 -5.577859e-02
-4.981049e-03 6.925739e-04 -9.579565e-02
-4.662036e-03 -7.383247e-04 -9.574507e-02
-5.969322e-02 -6.027452e-02 -2.799671e-02
-5.983228e-02 6.005310e-02 -2.817257e-02
-8.420017e-04 7.742569e-04 7.998381e-02
8.693288e-02 1.133909e-02 -2.520077e-02
-5.772085e-02 1.292939e-02 -6.772136e-02
-5.742328e-02 -1.610835e-02 -7.248774e-02
-3.487082e-02 4.355588e-02 -7.818303e-02
5.531059e-02 -6.660540e-02 -3.888563e-02
-3.745806e-02 -3.743458e-02 -8.030553e-02
5.570524e-02 6.320277e-02 -3.949530e-02
5.351507e-03 8.870179e-02 -1.749100e-02
-3.665755e-03 -8.379317e-02 -4.056274e-02
-1.310686e-02 7.799441e-02 -4.270584e-02
-6.434562e-03 -3.682236e-03 7.927004e-02
-5.032134e-03 3.012084e-02 -9.120037e-02
8.602369e-02 -5.939416e-03 -2.135572e-02
9.041177e-03 8.732133e-02 -2.032135e-02
6.594744e-04 2.294150e-02 -8.914693e-02
8.046629e-02 2.441316e-03 1.881503e-02
7.974559e-02 -3.573849e-03 1.913612e-02
-1.543226e-02 -8.492850e-02 -1.542802e-02
-6.214675e-02 1.995415e-02 -6.290318e-02
-6.260250e-02 -2.039265e-02 -6.335491e-02
1.103236e-02 -5.608624e-02 -7.837696e-02
-1.203895e-04 -8.396341e-03 7.964025e-02
-1.602317e-03 8.027750e-02 -4.482446e-02
1.886373e-03 -5.008280e-02 -8.061381e-02
8.716666e-02 9.436123e-03 -1.769596e-02
1.788044e-02 3.095148e-04 -9.055451e-02
8.148299e-02 -1.498541e-02 -3.281881e-02
-3.262284e-03 8.671317e-02 -1.589852e-02
-3.267140e-03 -8.672956e-02 -1.586221e-02
8.472657e-02 1.667848e-02 -1.485579e-02
2.026624e-02 8.139642e-02 -4.465602e-02
6.529871e-02 5.311855e-02 -4.402977e-02
3.882117e-03 -4.423736e-03 7.851684e-02
5.874351e-03 2.917170e-03 7.934715e-02
-5.724403e-02 -6.376244e-02 -4.142440e-02
6.517879e-02 -5.305857e-02 -4.425508e-02
4.472448e-02 7.111272e-02 -4.424874e-02
2.615905e-02 -7.992626e-02 -4.413270e-02
-2.030798e-02 -8.314355e-02 -4.260987e-02
-6.688817e-02 -5.312257e-02 -4.186588e-02
5.701018e-02 6.187375e-02 -4.412266e-02
-6.725327e-02 5.322384e-02 -4.128840e-02
-4.659597e-02 -7.206148e-02 -4.130604e-02
-2.749670e-02 8.082337e-02 -4.193297e-02
-3.855756e-03 2.689785e-03 7.858185e-02
3.934785e-02 -7.385469e-02 -4.402772e-02
-4.028901e-02 7.568837e-02 -4.142238e-02
5.084564e-02 -6.649219e-02 -4.404958e-02
-5.207412e-02 6.812492e-02 -4.142389e-02
5.676406e-02 -6.197015e-02 -4.424132e-02
-5.761667e-02 6.341175e-02 -4.148219e-02
4.526805e-02 -7.026642e-02 -4.414985e-02
-4.631588e-02 7.203966e-02 -4.151119e-02
3.348163e-02 -7.674828e-02 -4.388326e-02
7.035388e-02 4.623394e-02 -4.401513e-02
4.634447e-03 -2.293279e-04 7.897021e-02
2.775950e-02 7.945786e-02 -4.401606e-02
-3.350423e-02 7.843281e-02 -4.203406e-02
-7.079326e-02 -4.764679e-02 -4.205249e-02
-2.722631e-02 -8.090700e-02 -4.206394e-02
1.203792e-02 8.645622e-02 -2.151076e-02
1.266300e-02 -8.677723e-02 -2.154626e-02
-8.447935e-02 1.423620e-03 -2.519718e-02
-1.425271e-02 8.803387e-02 -1.190069e-02
-1.411796e-02 -8.811323e-02 -1.195526e-02
5.992409e-02 5.636254e-02 -4.609022e-02
-3.721833e-03 6.255050e-03 8.075048e-02
-6.820426e-02 4.558470e-02 -4.601840e-02
-4.980366e-02 -6.515362e-02 -4.594978e-02
5.991722e-02 -5.637023e-02 -4.608110e-02
7.210964e-02 3.982240e-02 -4.622860e-02
3.255788e-02 7.545164e-02 -4.607339e-02
1.994657e-02 -7.942488e-02 -4.720076e-02
-7.576289e-02 3.799116e-02 -2.259433e-02
-7.156537e-02 3.981949e-02 -4.615014e-02
3.865782e-02 7.250878e-02 -4.607670e-02
-4.105604e-02 -7.702730e-02 -3.997722e-02
-4.755413e-03 -8.474102e-03 8.683851e-02
-3.453614e-02 -8.006510e-02 -4.007047e-02
-7.625032e-02 -4.226932e-02 -4.035141e-02
-7.694443e-02 -3.787642e-02 -2.205808e-02
-6.348857e-02 5.972351e-02 -4.006049e-02
5.292664e-02 6.925378e-02 -4.011742e-02
7.238072e-02 -4.863783e-02 -4.012261e-02
7.661025e-02 -4.248527e-02 -4.021618e-02
-6.349104e-02 -5.973013e-02 -4.007784e-02
-2.099282e-02 8.562879e-02 -3.935410e-02
1.217943e-02 -8.716896e-02 7.318289e-04
-1.410256e-05 -1.000176e-02 8.666592e-02
1.216014e-02 8.716075e-02 7.626896e-04
-1.281899e-03 8.697837e-02 -3.001532e-03
-3.166588e-03 -8.670045e-02 -4.346833e-03
-3.875596e-02 -7.547000e-02 -8.393914e-04
-8.234671e-02 2.349445e-02 -1.957632e-03
-8.758887e-02 4.625636e-03 -7.393151e-03
-4.655585e-02 6.689101e-02 -3.354749e-02
-4.782624e-02 6.093344e-02 -5.019791e-02
-5.003300e-02 6.404051e-02 -4.334969e-02
-1.120962e-02 8.425250e-02 -4.405796e-03
7.090283e-03 1.513795e-04 8.207116e-02
7.760977e-02 -2.818516e-02 1.511064e-02
7.760896e-02 2.815532e-02 1.492549e-02
-8.716290e-02 -4.332811e-05 -7.522828e-03
8.551336e-02 1.211353e-02 8.389791e-03
-8.189422e-02 3.127333e-02 -1.081938e-02
-3.928575e-02 1.414978e-02 -7.876166e-02
-7.787597e-02 3.824278e-02 2.046397e-03
3.789296e-02 7.844391e-02 3.903811e-03
-7.429237e-02 4.543737e-02 3.850374e-03
8.006156e-02 3.784121e-02 3.592645e-03
-1.492874e-03 7.192149e-03 8.122727e-02
-8.218066e-02 -3.090459e-02 1.483295e-03
-8.823818e-02 -6.543704e-03 -1.267827e-03
-4.472947e-02 -7.620230e-02 7.299327e-03
-3.152124e-02 -8.245190e-02 7.268750e-03
-7.514415e-02 -4.627158e-02 7.196938e-03
-6.179971e-02 6.309107e-02 7.217978e-03
5.023034e-02 7.226631e-02 7.179278e-03
7.948187e-02 -4.042560e-02 6.023770e-03
7.078922e-02 -5.236351e-02 7.161432e-03
-6.177015e-02 -6.312797e-02 7.263241e-03
-2.835837e-03 -5.059658e-03 8.143276e-02
-2.496301e-02 8.488093e-02 7.205670e-03
7.667033e-02 -4.427517e-02 7.330668e-03
1.032414e-02 -1.138237e-02 -9.342282e-02
-7.924925e-03 6.949095e-03 -9.324240e-02
7.748129e-02 4.638059e-02 9.133610e-03
4.278923e-02 -7.476116e-02 1.070568e-02
4.702470e-02 -7.633556e-02 -2.423479e-02
3.320747e-02 7.849415e-02 1.314560e-02
2.911368e-02 8.400862e-02 -3.363579e-02
8.347225e-02 -1.476691e-02 1.301444e-02
1.362571e-03 -3.247421e-03 8.041474e-02
8.659137e-02 -1.296174e-02 -3.335320e-02
2.368721e-02 8.270791e-02 1.201475e-02
2.831626e-02 8.402519e-02 -3.336424e-02
8.756945e-02 -7.499154e-03 9.022016e-03
8.891219e-02 5.228022e-04 9.988895e-03
8.897564e-02 1.431462e-03 1.572279e-02
6.981577e-02 -5.092465e-02 9.459859e-03
7.916793e-02 3.756277e-02 1.473757e-02
8.586374e-02 1.293210e-02 9.712701e-03
8.588180e-02 2.063351e-02 8.423844e-03
3.214105e-04 4.174645e-03 8.097216e-02
5.208440e-03 4.641395e-03 8.017774e-02
8.267228e-02 2.497500e-02 1.060101e-02
7.861680e-02 2.358556e-02 1.534914e-02
3.481011e-03 -8.822656e-02 1.134910e-02
3.503709e-03 8.821089e-02 1.139038e-02
-3.891686e-02 -7.575380e-02 1.286011e-02
-3.200015e-02 -4.958391e-02 -6.592706e-02
-7.809945e-02 2.398756e-02 1.506524e-02
1.497382e-02 -8.562311e-02 3.279238e-04
1.218263e-02 5.577321e-03 -9.462288e-02
-1.144914e-02 -1.020869e-02 -9.227012e-02
-3.089382e-03 1.014313e-02 8.017860e-02
3.170934e-02 8.175600e-02 1.326940e-03
7.489190e-02 4.562966e-02 1.249748e-03
6.166468e-02 -6.243608e-02 1.310509e-03
2.430074e-02 -8.414977e-02 1.142710e-03
4.406200e-02 7.579382e-02 1.256955e-03
-5.066663e-02 -7.136957e-02 5.336522e-03
-7.085930e-02 5.130330e-02 5.313811e-03
6.161695e-02 6.243294e-02 1.339896e-03
6.609239e-02 -5.767260e-02 1.248456e-03
-5.558231e-02 -6.760166e-02 5.250754e-03
-3.478262e-03 2.015103e-03 8.158364e-02
6.613351e-02 5.762106e-02 1.259099e-03
6.675339e-02 -6.143689e-02 -1.548166e-02
6.956799e-02 -5.528820e-02 -6.180984e-03
6.686693e-02 6.150422e-02 -1.548572e-02
6.944331e-02 5.557918e-02 -6.211802e-03
-7.231845e-03 -1.121208e-02 -9.485293e-02
1.481576e-02 8.490695e-02 7.148520e-03
-8.795110e-02 -1.216222e-02 -1.596739e-02
-8.832894e-02 -1.500919e-02 -6.017509e-03
-1.890066e-02 -1.716502e-03 -9.577648e-02
-5.848786e-05 -2.549029e-03 8.132719e-02
8.643295e-02 1.144925e-02 -4.227860e-04
-5.632055e-02 6.783548e-02 5.801601e-03
5.010504e-02 -7.128482e-02 8.696482e-03
3.770069e-02 -7.839759e-02 9.381590e-03
-4.450935e-02 7.611473e-02 5.797548e-03
-3.144298e-02 8.208358e-02 6.357528e-03
-7.085609e-02 -5.200170e-02 6.334177e-03
-2.459013e-02 -8.446290e-02 6.260683e-03
-6.970156e-02 -5.546087e-02 -2.073529e-03
-6.366064e-02 -5.689563e-02 9.911419e-03
6.150956e-04 -2.165817e-03 8.181964e-02
5.039914e-03 8.838460e-02 7.265153e-04
-8.108452e-02 -3.613086e-03 1.860420e-02
-7.924820e-02 3.906225e-03 1.862892e-02
6.992619e-04 -9.092526e-02 -1.222676e-02
-4.016994e-03 -8.780820e-02 -1.474389e-02
1.118066e-03 9.101063e-02 -1.209645e-02
-3.914223e-03 8.739383e-02 -1.068162e-02
6.576860e-03 2.027919e-03 -9.704041e-02
7.623359e-03 -1.216468e-02 -9.560191e-02
-1.013638e-02 1.369096e-02 -9.315788e-02
1.616566e-04 -2.369613e-03 8.989813e-02
-7.682667e-04 -7.194527e-04 -8.874709e-02
-1.750381e-03 1.943039e-04 -9.075667e-02
-1.143903e-02 8.412530e-02 1.230019e-02
-1.141740e-02 -8.414856e-02 1.232590e-02
-7.021907e-02 5.509641e-02 -2.372616e-03
-6.369062e-02 5.698080e-02 9.882344e-03
7.210489e-03 2.183026e-02 -9.139498e-02
2.524897e-02 -4.008002e-03 -9.700408e-02
1.019092e-02 2.389387e-02 -9.862907e-02
1.431240e-03 8.438404e-02 2.223943e-02
1.113202e-03 -2.090670e-03 8.973025e-02
1.373274e-03 -8.439836e-02 2.216932e-02
-8.191261e-02 -3.587526e-02 -8.734872e-03
-7.917778e-02 -3.984282e-02 7.675624e-03
-7.858890e-02 -4.029298e-02 7.146915e-03
-7.325779e-02 -4.701783e-02 1.536002e-03
-6.913944e-02 -4.733342e-02 -2.759675e-02
-8.079363e-02 -3.100280e-02 9.020332e-03
-8.191073e-02 3.589588e-02 -8.805445e-03
-8.106224e-02 3.146978e-02 8.962123e-03
-7.918101e-02 3.945679e-02 6.904931e-03
8.693890e-04 -8.609367e-04 9.047943e-02
-7.641600e-02 4.301931e-02 7.118729e-03
-7.245564e-02 4.730230e-02 -2.247237e-02
-7.103317e-02 4.875608e-02 8.778498e-03
-2.278544e-02 -2.208655e-03 -9.384430e-02
-9.013268e-02 1.024298e-02 4.505240e-03
3.606252e-02 3.052347e-02 -8.181721e-02
7.345863e-02 5.159222e-02 1.293994e-02
-5.861637e-02 5.938650e-02 1.381526e-02
-5.892537e-02 -6.179842e-02 1.312588e-02
2.441635e-02 1.581269e-02 -8.925760e-02
5.266129e-04 8.105903e-05 8.959515e-02
-2.792496e-02 9.286138e-03 -8.992932e-02
-8.819908e-02 1.541010e-02 6.323683e-03
1.584659e-02 -3.137601e-03 -9.862790e-02
3.244166e-02 -4.553976e-03 -8.989114e-02
6.793993e-03 1.480654e-02 -1.002322e-01
8.770292e-02 -2.304860e-02 -1.350440e-03
8.555507e-02 -3.355267e-02 8.748675e-03
1.298178e-02 -2.341951e-02 -9.664982e-02
8.388240e-02 -1.180690e-02 4.151959e-03
8.170447e-03 1.547888e-03 -9.589047e-02
-4.265927e-04 -2.725491e-04 9.019614e-02
-1.044576e-04 1.563435e-03 -9.588497e-02
7.744238e-02 -6.010395e-03 2.257719e-02
4.469785e-02 -1.581068e-02 -7.819805e-02
7.746257e-02 -2.494743e-02 1.884849e-02
4.464560e-02 1.551224e-02 -7.816570e-02
7.709681e-02 2.478586e-02 1.872919e-02
7.898877e-02 7.180843e-03 1.999196e-02
3.308614e-02 -3.483682e-03 -8.914551e-02
-4.832351e-02 -6.317197e-02 -4.575639e-02
-5.573470e-02 -6.647672e-02 -2.690437e-02
1.627827e-03 -2.846432e-03 8.098141e-02
2.804196e-04 -5.587002e-04 9.102007e-02
-7.148160e-03 -8.254193e-03 -9.221017e-02
4.454980e-03 -8.677858e-02 1.586777e-02
1.382040e-03 -4.173563e-03 -9.766199e-02
1.379491e-03 4.154799e-03 -9.760534e-02
-3.460564e-02 -7.707805e-02 -1.031880e-03
-8.510670e-02 1.609463e-02 -1.246993e-03
-2.371708e-02 -8.204266e-02 -1.693947e-03
-8.612819e-02 1.227488e-02 5.682609e-03
-2.824049e-02 -8.071081e-02 7.024747e-03
-2.702877e-02 -8.063734e-02 7.155831e-03
1.336974e-04 -6.932074e-04 9.071465e-02
5.610249e-02 -7.363233e-02 1.466779e-02
5.380589e-02 7.367093e-02 4.154655e-03
7.772612e-02 4.100287e-02 5.634034e-03
7.846479e-02 -4.041685e-02 6.329340e-03
8.521936e-02 -3.484948e-02 7.343739e-03
3.991251e-02 -2.708699e-02 -7.568613e-02
-8.277600e-02 -2.358132e-02 1.023613e-02
-4.622943e-02 7.125115e-02 5.502605e-03
4.096395e-02 8.212697e-02 -1.861695e-03
1.803905e-02 1.427938e-02 -9.215385e-02
6.222055e-04 -5.314053e-07 8.973451e-02
7.695670e-02 1.822458e-02 1.321043e-02
8.115204e-02 -2.002453e-02 1.451139e-02
5.204207e-03 8.282343e-03 -9.223362e-02
-2.190724e-02 7.961602e-02 -3.608811e-02
-3.159021e-02 7.751718e-02 -2.928704e-02
-3.160220e-02 8.068703e-02 7.286409e-03
-3.069105e-02 8.051914e-02 1.386928e-02
-3.568304e-02 8.121442e-02 6.909543e-03
-4.505601e-02 7.501513e-02 5.682370e-03
-2.412049e-03 7.182736e-03 -9.716404e-02
-2.990695e-04 -5.155203e-04 9.026645e-02
3.362067e-03 -1.626009e-03 -9.543157e-02
3.254186e-02 -7.927895e-02 8.927631e-03
-8.367157e-02 -1.492737e-02 1.441139e-02
2.494761e-02 -8.612883e-02 5.190250e-03
2.387995e-02 -8.305005e-02 1.396215e-02
-8.523972e-02 -1.463010e-02 1.174901e-02
3.138197e-02 -8.013715e-02 1.081709e-02
3.845718e-02 7.694155e-02 1.076947e-02
-7.729453e-02 -2.459330e-02 1.997491e-02
7.711539e-02 -2.393520e-02 2.104249e-02
5.290594e-04 -5.220935e-04 9.126004e-02
-3.199235e-02 -1.383465e-02 -8.427656e-02
-6.768869e-03 -1.422821e-03 -9.283231e-02