# vtk DataFile Version 2.0
Electric current density generated by TTH
ASCII
DATASET UNSTRUCTURED_GRID
POINTS 4371 double
3.369146e-05 -8.252027e-21 -2.358214e-22
3.325267e-05 5.419797e-06 -2.358214e-22
-6.906215e-06 3.297603e-05 -2.358214e-22
1.114027e-05 2.978811e-05 2.652902e-07
2.259531e-05 -2.436831e-05 -8.207856e-07
2.259531e-05 2.436831e-05 -8.207856e-07
2.713297e-05 -1.700847e-05 6.552693e-07
2.713297e-05 1.700847e-05 6.552693e-07
2.376721e-05 2.322590e-05 -8.211540e-07
2.376721e-05 -2.322590e-05 -8.211540e-07
3.069990e-05 -9.665514e-06 -7.949864e-07
3.069990e-05 9.665514e-06 -7.949864e-07
-3.325015e-05 -5.929944e-07 8.059126e-07
-7.497055e-06 3.284674e-05 -2.358214e-22
1.491037e-06 3.320048e-05 8.195642e-07
3.229916e-05 -7.599947e-06 8.498027e-07
3.229916e-05 7.599947e-06 8.498027e-07
-3.166691e-05 -2.664744e-06 -1.576737e-07
-6.711077e-07 3.177174e-05 -1.576828e-07
-2.463492e-05 2.231024e-05 8.183444e-07
-1.830649e-05 2.773983e-05 8.183444e-07
3.258863e-05 6.644503e-06 8.035035e-07
3.258863e-05 -6.644503e-06 8.035035e-07
3.163813e-05 -9.735160e-06 8.874626e-07
-8.085478e-06 3.270687e-05 -2.358214e-22
3.163813e-05 9.735160e-06 8.874626e-07
3.254725e-06 3.308579e-05 8.123272e-07
-2.838599e-05 -1.725001e-05 8.301432e-07
-2.167740e-05 2.525772e-05 7.861046e-07
6.485852e-06 3.138829e-05 -6.843432e-07
3.178791e-05 9.098461e-07 2.575855e-07
3.178791e-05 -9.098461e-07 2.575855e-07
-1.911086e-05 -2.576535e-05 7.108402e-07
3.084161e-05 8.402104e-06 5.871911e-07
3.084161e-05 -8.402104e-06 5.871911e-07
-8.671296e-06 3.255646e-05 -2.358214e-22
3.102563e-05 -6.829090e-06 6.916007e-08
3.102563e-05 6.829090e-06 6.916007e-08
5.669053e-06 -3.210150e-05 -9.539411e-07
1.324854e-05 -3.047850e-05 -8.198601e-07
8.740424e-06 3.089601e-05 7.365331e-07
2.798288e-05 -1.606835e-05 8.455526e-07
2.798288e-05 1.606835e-05 8.455526e-07
1.536289e-05 2.947395e-05 -8.173542e-07
-9.851059e-06 -3.045564e-05 6.398578e-07
-1.520555e-05 -2.816703e-05 6.398809e-07
-9.254320e-06 3.239555e-05 -2.358214e-22
-5.474406e-06 -3.153767e-05 6.399395e-07
-2.585833e-05 -2.083560e-05 8.349658e-07
3.247396e-05 7.103090e-06 -8.147149e-07
3.247396e-05 -7.103090e-06 -8.147149e-07
3.053743e-05 1.315032e-05 -8.103794e-07
3.053743e-05 -1.315032e-05 -8.103794e-07
1.870095e-05 2.601348e-05 6.707278e-07
1.870095e-05 -2.601348e-05 6.707278e-07
2.555036e-05 -2.124133e-05 -8.239720e-07
2.555036e-05 2.124133e-05 -8.239720e-07
-9.834361e-06 3.222421e-05 -2.358214e-22
3.152880e-05 5.042764e-06 -5.370586e-07
3.152880e-05 -5.042764e-06 -5.370586e-07
-2.622211e-05 -2.044081e-05 -8.107637e-07
1.723173e-05 2.713450e-05 -7.647117e-07
1.723173e-05 -2.713450e-05 -7.647117e-07
1.521762e-05 -2.960179e-05 7.863236e-07
2.825455e-05 1.755471e-05 -8.003133e-07
2.825455e-05 -1.755471e-05 -8.003133e-07
-2.523925e-05 -1.975218e-05 6.824473e-07
1.051111e-05 3.047707e-05 8.288496e-07
-1.041123e-05 3.204248e-05 -2.358214e-22
-2.390494e-06 3.323292e-05 7.607508e-07
-3.315651e-05 3.284413e-06 7.607505e-07
-3.301724e-05 -4.472490e-06 7.607505e-07
1.215146e-05 2.986461e-05 8.308315e-07
-2.660709e-05 -1.776585e-05 6.213564e-07
-2.328158e-05 -2.300907e-05 -9.628042e-07
-2.796302e-05 1.806931e-05 7.800017e-07
-1.361108e-05 3.039010e-05 7.757364e-07
2.733759e-05 -1.896630e-05 7.944473e-07
2.733759e-05 1.896630e-05 7.944473e-07
-1.098475e-05 3.185042e-05 -2.358214e-22
-2.077236e-05 -2.596386e-05 -8.089559e-07
-2.150061e-05 -2.540439e-05 -7.882537e-07
1.365241e-05 2.911059e-05 7.717709e-07
-2.328368e-05 2.364162e-05 8.493095e-07
-2.013700e-05 2.637342e-05 8.493095e-07
-3.817101e-07 -3.268071e-05 -9.617286e-07
1.709212e-05 2.860739e-05 -7.562699e-07
1.709212e-05 -2.860739e-05 -7.562699e-07
-2.986901e-05 1.461230e-05 8.083272e-07
-1.568885e-05 2.762638e-05 -9.343817e-08
-1.155473e-05 3.164811e-05 -2.358214e-22
-2.492066e-05 1.970577e-05 -9.343817e-08
3.207274e-07 -3.196424e-05 5.874965e-07
2.135657e-05 2.469397e-05 9.594351e-07
2.135657e-05 -2.469397e-05 9.594351e-07
-2.693476e-05 -1.954467e-05 7.901844e-07
-3.135998e-05 1.083836e-05 8.504135e-07
-3.095072e-05 -1.195708e-05 8.504135e-07
-9.990073e-06 3.164043e-05 8.504135e-07
-3.200253e-05 -3.480633e-06 7.988904e-07
-3.211669e-05 2.329815e-06 8.054142e-07
-1.212098e-05 3.143559e-05 -2.358214e-22
-1.464310e-06 3.215794e-05 7.988919e-07
3.235751e-05 2.197567e-06 9.159931e-07
3.235751e-05 -2.197567e-06 9.159931e-07
1.370392e-05 3.031166e-05 -7.992387e-07
2.266826e-05 -2.257567e-05 -6.203935e-07
2.266826e-05 2.257567e-05 -6.203935e-07
-2.289892e-05 -2.404981e-05 8.351513e-07
3.115899e-05 8.172713e-06 -8.130825e-07
3.115899e-05 -8.172713e-06 -8.130825e-07
-9.937874e-06 -3.117287e-05 -9.627620e-07
3.315002e-05 6.015842e-06 -2.358214e-22
-1.268333e-05 3.121294e-05 -2.358214e-22
-5.731735e-06 -3.221270e-05 -9.627624e-07
-3.174361e-05 1.303724e-06 -9.343817e-08
3.294311e-06 3.159912e-05 -9.342612e-08
-1.566392e-05 -2.872566e-05 -9.627641e-07
5.687588e-06 -3.133666e-05 -3.906125e-07
1.260746e-05 -2.950573e-05 -7.172949e-07
-2.254969e-05 -2.265640e-05 -5.872069e-07
-2.576085e-05 2.108836e-05 7.809765e-07
-1.692768e-05 2.866696e-05 7.809708e-07
3.173748e-05 -3.926017e-06 6.046754e-07
-1.324159e-05 3.098023e-05 -2.358214e-22
3.173748e-05 3.926017e-06 6.046754e-07
-2.160557e-05 -2.376850e-05 -7.466412e-07
3.949434e-06 3.158256e-05 3.418009e-07
-3.000325e-05 -1.446079e-05 -7.702747e-07
2.649286e-05 2.012059e-05 7.980701e-07
2.649286e-05 -2.012059e-05 7.980701e-07
1.500415e-05 2.977693e-05 7.409023e-07
1.923562e-05 -2.579651e-05 -7.903040e-07
1.923562e-05 2.579651e-05 -7.903040e-07
1.583995e-06 3.325945e-05 -7.770579e-07
-1.379558e-05 3.073754e-05 -2.358214e-22
-2.175087e-05 2.521035e-05 -7.774713e-07
-2.473830e-05 2.228713e-05 -7.770569e-07
-3.329328e-05 -5.075164e-07 -7.770569e-07
-1.826794e-05 2.783850e-05 -7.770569e-07
-5.985651e-07 3.333903e-05 -7.401721e-07
-3.323566e-05 -2.690759e-06 -7.401719e-07
-2.008044e-05 2.662001e-05 -7.401719e-07
5.073324e-06 -3.178541e-05 7.965184e-07
1.035442e-05 -3.057280e-05 8.511762e-07
-1.143060e-05 -3.125777e-05 -7.877544e-07
-1.434512e-05 3.048494e-05 -2.358214e-22
-1.232083e-05 -3.099028e-05 -7.357572e-07
-1.469374e-05 -2.986305e-05 -7.877393e-07
-1.386718e-05 -3.032569e-05 -7.389541e-07
-4.450594e-06 -3.298341e-05 -7.876841e-07
-3.585014e-06 -3.315460e-05 -7.372829e-07
-2.156726e-05 -2.420045e-05 9.107010e-07
1.769180e-05 -2.642035e-05 -2.421427e-07
1.769180e-05 2.642035e-05 -2.421427e-07
-1.516488e-05 2.828527e-05 -7.241107e-07
-2.565154e-05 1.928804e-05 -7.241140e-07
-1.489005e-05 3.022252e-05 -2.358214e-22
-2.770701e-05 -1.562984e-05 2.929672e-07
2.092389e-05 -2.390254e-05 -4.699751e-08
2.092389e-05 2.390254e-05 -4.699751e-08
1.918842e-05 -2.539191e-05 3.371505e-07
1.918842e-05 2.539191e-05 3.371505e-07
-9.693574e-06 -3.180224e-05 8.115126e-07
-1.628760e-05 -2.898386e-05 8.114904e-07
-6.241040e-06 -3.265579e-05 8.114780e-07
2.460096e-05 2.057500e-05 -7.030520e-07
2.460096e-05 -2.057500e-05 -7.030520e-07
-1.543017e-05 2.995036e-05 -2.358214e-22
2.196487e-05 2.329107e-05 -6.457848e-07
2.196487e-05 -2.329107e-05 -6.457848e-07
-3.138848e-06 3.203418e-05 7.964104e-07
-3.193805e-05 4.000221e-06 7.964110e-07
-3.177387e-05 -5.144098e-06 7.964110e-07
1.228948e-05 -2.971015e-05 7.707236e-07
3.148829e-05 -5.964604e-06 6.812114e-07
3.148829e-05 5.964604e-06 6.812114e-07
9.732957e-06 -3.184878e-05 -7.729042e-07
3.128563e-05 -7.703939e-06 8.176190e-07
-1.596533e-05 2.966855e-05 -2.358214e-22
3.128563e-05 7.703939e-06 8.176190e-07
2.400078e-05 2.306561e-05 7.840009e-07
2.400078e-05 -2.306561e-05 7.840009e-07
4.550936e-06 -3.301256e-05 7.560722e-07
8.189195e-07 -3.331471e-05 7.560721e-07
3.319381e-05 -3.071127e-06 -7.474240e-07
3.319381e-05 3.071127e-06 -7.474240e-07
1.411962e-05 -3.018714e-05 -7.550430e-07
3.018533e-05 1.064678e-05 6.384265e-07
3.018533e-05 -1.064678e-05 6.384265e-07
-1.649533e-05 2.937717e-05 -2.358214e-22
2.293302e-05 -2.411222e-05 7.917761e-07
2.293302e-05 2.411222e-05 7.917761e-07
1.154341e-05 3.117042e-05 -8.162920e-07
2.467593e-05 -2.234374e-05 7.830949e-07
2.467593e-05 2.234374e-05 7.830949e-07
1.167988e-05 -2.980652e-05 -6.443785e-07
3.736511e-06 3.303455e-05 -8.125152e-07
-4.596244e-06 3.292596e-05 -8.125053e-07
-1.264020e-05 3.074849e-05 -8.125052e-07
-3.184475e-05 9.547589e-06 -8.125052e-07
-1.702002e-05 2.907633e-05 -2.358214e-22
-2.612754e-05 2.058686e-05 -8.005160e-07
-3.250535e-05 -6.974707e-06 -8.125052e-07
-3.322008e-05 1.659313e-06 -8.019196e-07
-3.026310e-05 1.376187e-05 -8.125052e-07
-2.829964e-05 1.744633e-05 -8.125052e-07
-3.148150e-05 -1.068454e-05 -8.125052e-07
-3.273477e-05 5.803394e-06 -8.125052e-07
-1.637626e-05 2.895316e-05 -8.005160e-07
-9.001972e-06 3.200326e-05 -8.125052e-07
7.528485e-06 3.238184e-05 -8.123378e-07
-1.753923e-05 2.876612e-05 -2.358214e-22
-2.330989e-05 -2.382621e-05 -7.501103e-07
-7.206029e-07 -3.193797e-05 -5.609179e-07
1.373311e-05 -2.914531e-05 8.167070e-07
3.291166e-05 5.159816e-06 7.646848e-07
3.291166e-05 -5.159816e-06 7.646848e-07
1.299711e-05 -3.065706e-05 7.761735e-07
1.997125e-05 -2.479830e-05 3.713536e-07
1.997125e-05 2.479830e-05 3.713536e-07
-2.416971e-05 -2.290974e-05 7.733945e-07
-5.723164e-06 3.134294e-05 4.177535e-07
3.303669e-05 6.609948e-06 -2.358214e-22
-1.805279e-05 2.844664e-05 -2.358214e-22
-3.092174e-05 -7.679910e-06 4.177535e-07
-3.117749e-05 6.564988e-06 4.177535e-07
2.034923e-05 2.632919e-05 7.918311e-07
2.034923e-05 -2.632919e-05 7.918311e-07
1.886452e-05 -2.742058e-05 -7.872076e-07
1.886452e-05 2.742058e-05 -7.872076e-07
-6.225832e-06 3.271328e-05 7.746335e-07
-3.225780e-05 -8.267631e-06 7.746335e-07
-3.253379e-05 7.104370e-06 7.746335e-07
6.232026e-06 3.275175e-05 7.443097e-07
-1.856052e-05 2.811799e-05 -2.358214e-22
-2.791027e-05 -1.822432e-05 -7.492632e-07
-2.794205e-05 -1.807573e-05 7.900258e-07
2.747435e-05 -1.644743e-05 -6.531106e-07
2.747435e-05 1.644743e-05 -6.531106e-07
-3.203352e-05 2.358265e-06 -7.461991e-07
-3.191007e-05 -3.573373e-06 -7.373622e-07
-1.562672e-06 3.207148e-05 -7.373628e-07
-2.157575e-05 -2.544165e-05 7.281924e-07
[...]
POINT_DATA 4371
VECTORS 10.000GHz_fone_imag double
-1.585871e-04 8.242687e-07 1.820659e-02
6.189098e-05 1.767391e-04 1.818427e-02
-8.135387e-05 -7.536099e-05 1.824051e-02
-2.121457e-03 -5.581066e-03 -2.228114e-02
1.143085e-02 -1.224570e-02 9.383222e-03
1.143166e-02 1.224513e-02 9.383432e-03
-1.264773e-02 7.937371e-03 -1.640834e-02
-1.264819e-02 -7.938688e-03 -1.640888e-02
1.214443e-02 1.206139e-02 9.171542e-03
1.214641e-02 -1.206087e-02 9.169318e-03
1.698902e-02 -5.165559e-03 -1.234142e-02
1.698848e-02 5.165661e-03 -1.234078e-02
1.602415e-02 4.806706e-04 9.973242e-03
1.955352e-04 6.714605e-04 1.825986e-02
-5.719826e-04 -1.667696e-02 9.322070e-03
-1.680015e-02 3.710255e-03 8.547453e-03
-1.679991e-02 -3.709705e-03 8.547375e-03
-3.823601e-03 -1.183796e-04 -2.257454e-02
1.106654e-04 3.902492e-03 -2.260641e-02
1.219640e-02 -1.112938e-02 9.804566e-03
9.237726e-03 -1.371646e-02 9.830718e-03
-1.618618e-02 -3.404066e-03 9.882656e-03
-1.618754e-02 3.404517e-03 9.881307e-03
-1.737320e-02 5.391352e-03 7.191243e-03
-1.646427e-04 5.664868e-04 1.832809e-02
-1.737311e-02 -5.391050e-03 7.192533e-03
-1.290568e-03 -1.613542e-02 9.952676e-03
1.444068e-02 8.907368e-03 8.992267e-03
1.010543e-02 -1.198039e-02 1.054860e-02
2.691819e-03 1.459996e-02 -1.616314e-02
-5.643569e-03 6.034853e-04 -2.200686e-02
-5.598146e-03 -6.201519e-04 -2.199047e-02
9.498288e-03 1.296570e-02 -1.518497e-02
-1.254871e-02 -3.152647e-03 -1.798179e-02
-1.254946e-02 3.152668e-03 -1.798161e-02
-4.844699e-04 -1.286626e-04 1.841292e-02
-1.598359e-03 4.316675e-04 -2.264092e-02
-1.598027e-03 -4.316577e-04 -2.264187e-02
3.730788e-03 -2.006500e-02 -3.190847e-03
6.654928e-03 -1.507893e-02 9.404414e-03
-4.148751e-03 -1.592827e-02 -1.437368e-02
-1.609518e-02 9.286454e-03 -1.093600e-02
-1.609518e-02 -9.286152e-03 -1.093622e-02
7.939114e-03 1.500561e-02 9.622996e-03
4.394305e-03 1.379455e-02 -1.691759e-02
7.023677e-03 1.259331e-02 -1.688376e-02
-6.675830e-05 -4.129848e-04 1.827471e-02
2.641367e-03 1.415441e-02 -1.689690e-02
1.341482e-02 1.046101e-02 9.122981e-03
1.624728e-02 3.717059e-03 9.553857e-03
1.624919e-02 -3.717274e-03 9.553611e-03
1.510758e-02 6.599511e-03 9.477738e-03
1.510685e-02 -6.600474e-03 9.477948e-03
-8.906160e-03 -1.229034e-02 -1.595597e-02
-8.905815e-03 1.228593e-02 -1.595482e-02
1.276550e-02 -1.074108e-02 9.241322e-03
1.276230e-02 1.073944e-02 9.245482e-03
9.515847e-05 -1.242577e-04 1.857345e-02
1.171589e-02 1.898598e-03 -1.869712e-02
1.171575e-02 -1.899308e-03 -1.869680e-02
-1.257984e-02 -9.906781e-03 9.702122e-03
9.310454e-03 1.460776e-02 -1.348492e-02
9.308069e-03 -1.456525e-02 -1.355430e-02
-7.426880e-03 1.387637e-02 1.065781e-02
1.353761e-02 8.366351e-03 1.026072e-02
1.353631e-02 -8.365481e-03 1.025902e-02
1.208677e-02 9.516884e-03 -1.604614e-02
-6.110935e-03 -1.724656e-02 -1.143046e-02
1.531561e-04 -2.184768e-04 1.832118e-02
1.059170e-03 -1.510127e-02 1.090535e-02
1.500034e-02 -1.236046e-03 1.097763e-02
1.497250e-02 1.760942e-03 1.105239e-02
-6.843849e-03 -1.682509e-02 -1.133238e-02
1.161945e-02 7.837825e-03 -1.739267e-02
-1.438856e-02 -1.446925e-02 -7.480319e-04
1.313301e-02 -8.718335e-03 1.044219e-02
6.021138e-03 -1.409915e-02 1.090812e-02
-1.323730e-02 9.197283e-03 1.025370e-02
-1.323696e-02 -9.197822e-03 1.025395e-02
7.863480e-05 8.394053e-05 1.828057e-02
-1.062006e-02 -1.328501e-02 9.372818e-03
-1.052932e-02 -1.200968e-02 1.059412e-02
-7.274183e-03 -1.527085e-02 -1.378554e-02
1.225368e-02 -1.203202e-02 8.640985e-03
1.041083e-02 -1.376330e-02 8.652472e-03
-3.008991e-04 -2.031805e-02 -1.495767e-03
8.099954e-03 1.323896e-02 1.108617e-02
8.035796e-03 -1.293582e-02 1.125225e-02
1.474605e-02 -7.345173e-03 9.705196e-03
-1.320610e-03 1.847578e-03 -2.273239e-02
6.998494e-06 2.980752e-05 1.841810e-02
-1.607897e-03 1.633887e-03 -2.271195e-02
-6.521232e-06 1.353018e-02 -1.784443e-02
-1.339110e-02 -1.551905e-02 -2.310566e-03
-1.338778e-02 1.552736e-02 -2.307293e-03
1.291707e-02 9.333276e-03 1.057508e-02
1.659916e-02 -5.644810e-03 8.641816e-03
1.631058e-02 6.144954e-03 8.632195e-03
5.211490e-03 -1.672260e-02 8.458430e-03
1.761404e-02 1.850398e-03 -1.254239e-02
1.775396e-02 -1.605856e-03 -1.227440e-02
-9.183036e-05 2.846041e-04 1.829736e-02
1.010622e-03 -1.766786e-02 -1.248763e-02
-1.982723e-02 -1.244180e-03 -7.953154e-03
-1.982782e-02 1.242550e-03 -7.954237e-03
6.714057e-03 1.472336e-02 9.984930e-03
1.005909e-02 -9.831973e-03 -1.709170e-02
1.005840e-02 9.832195e-03 -1.709287e-02
1.182438e-02 1.223124e-02 8.797940e-03
1.732723e-02 4.582738e-03 -1.207711e-02
1.732780e-02 -4.583748e-03 -1.207590e-02
-6.489761e-03 -1.937555e-02 -1.173702e-03
1.583085e-05 -1.283143e-04 1.825011e-02
-4.784624e-05 9.365172e-05 1.821142e-02
-3.329022e-03 -2.006230e-02 -1.224282e-03
-2.040670e-03 -1.361899e-05 -2.266903e-02
-1.152769e-05 1.930961e-03 -2.277957e-02
-9.535774e-03 -1.795796e-02 -1.200417e-03
1.903921e-03 -9.109559e-03 -2.073420e-02
6.405603e-03 -1.457209e-02 -1.530998e-02
-9.205036e-03 -9.393299e-03 -1.766298e-02
1.221126e-02 -1.014903e-02 1.079862e-02
8.061770e-03 -1.371799e-02 1.077004e-02
-1.363548e-02 1.202037e-03 -1.754148e-02
2.621421e-04 1.794980e-04 1.827850e-02
-1.362955e-02 -1.202419e-03 -1.754305e-02
-1.096193e-02 -1.215104e-02 -1.433620e-02
-6.217061e-04 -7.949599e-03 -2.112061e-02
-1.403876e-02 -6.721030e-03 1.070931e-02
-1.298569e-02 -9.772517e-03 1.040848e-02
-1.298485e-02 9.772168e-03 1.040950e-02
-6.344483e-03 -1.351653e-02 1.146703e-02
1.065655e-02 -1.402153e-02 -1.317107e-02
1.065578e-02 1.402616e-02 -1.317343e-02
6.211932e-04 1.532655e-02 1.076400e-02
-1.547878e-04 3.294678e-04 1.811677e-02
-1.007145e-02 1.184381e-02 1.074599e-02
-1.120232e-02 1.043337e-02 1.070485e-02
-1.548812e-02 -4.256639e-04 1.077367e-02
-8.671088e-03 1.285474e-02 1.063696e-02
-3.916163e-04 1.477115e-02 1.119383e-02
-1.460031e-02 -1.318462e-03 1.132239e-02
-9.179739e-03 1.183894e-02 1.143048e-02
-2.830756e-03 1.731057e-02 -1.270969e-02
-6.234350e-03 1.770354e-02 -1.037772e-02
-5.550809e-03 -1.517878e-02 1.025810e-02
-1.461486e-04 2.239242e-04 1.830815e-02
-5.637303e-03 -1.366673e-02 1.195716e-02
-6.975589e-03 -1.427270e-02 1.057489e-02
-6.214047e-03 -1.340241e-02 1.168534e-02
-2.098159e-03 -1.580989e-02 1.064775e-02
-1.513891e-03 -1.487601e-02 1.163130e-02
1.296882e-02 1.450678e-02 -7.516502e-03
2.919549e-03 -4.573142e-03 -2.202929e-02
2.918465e-03 4.592041e-03 -2.204141e-02
-7.613164e-03 1.426997e-02 -1.509022e-02
-1.292794e-02 9.619563e-03 -1.505138e-02
-9.583466e-05 1.103724e-04 1.812937e-02
5.837705e-03 3.577165e-03 -2.141662e-02
8.765117e-04 -8.847573e-04 -2.278543e-02
8.770554e-04 8.854733e-04 -2.278286e-02
-4.361807e-03 5.853398e-03 -2.123235e-02
-4.360680e-03 -5.854642e-03 -2.123471e-02
4.846431e-03 1.561608e-02 9.727513e-03
8.161295e-03 1.379949e-02 1.008898e-02
3.345468e-03 1.567754e-02 1.009916e-02
1.222582e-02 1.070419e-02 -1.501606e-02
1.222545e-02 -1.070316e-02 -1.501564e-02
1.156591e-05 -9.477687e-06 1.803736e-02
9.805434e-03 1.059754e-02 -1.686949e-02
9.804506e-03 -1.059799e-02 -1.686973e-02
1.791760e-03 -1.763259e-02 -1.261087e-02
1.738341e-02 -2.369697e-03 -1.270524e-02
1.730437e-02 2.999226e-03 -1.277294e-02
-6.456558e-03 1.581861e-02 -1.375053e-02
-1.500656e-02 3.097425e-03 -1.615523e-02
-1.500720e-02 -3.097768e-03 -1.615486e-02
4.501885e-03 -1.488969e-02 1.107401e-02
-1.746858e-02 4.378706e-03 -1.184255e-02
-8.187186e-05 -1.677992e-05 1.818537e-02
-1.746903e-02 -4.378075e-03 -1.184182e-02
-1.148203e-02 -1.140030e-02 1.022737e-02
-1.148298e-02 1.140023e-02 1.022741e-02
-2.089939e-03 1.494283e-02 1.116333e-02
-3.208679e-04 1.510139e-02 1.133982e-02
1.494932e-02 -1.431792e-03 1.145442e-02
1.494956e-02 1.431846e-03 1.145321e-02
6.361849e-03 -1.360038e-02 1.119292e-02
-1.360189e-02 -5.074292e-03 -1.666835e-02
-1.361223e-02 5.076074e-03 -1.666349e-02
2.932197e-04 1.099789e-04 1.809833e-02
-1.117835e-02 1.161605e-02 1.029771e-02
-1.117855e-02 -1.161437e-02 1.029762e-02
5.597591e-03 1.529951e-02 9.795037e-03
-1.185817e-02 1.024167e-02 1.055371e-02
-1.185766e-02 -1.024110e-02 1.055421e-02
5.297219e-03 -1.372656e-02 -1.673127e-02
1.780997e-03 1.604642e-02 9.910350e-03
-2.188839e-03 1.623173e-02 9.842073e-03
-6.318712e-03 1.510273e-02 9.704943e-03
-1.587789e-02 4.788897e-03 9.748628e-03
-3.550573e-04 4.989894e-04 1.819472e-02
-1.269898e-02 1.002591e-02 1.009379e-02
-1.579484e-02 -3.463223e-03 9.947042e-03
-1.619635e-02 8.593889e-04 1.015323e-02
-1.496460e-02 6.676578e-03 9.690626e-03
-1.393814e-02 8.726395e-03 9.702000e-03
-1.546051e-02 -5.375277e-03 9.668284e-03
-1.609223e-02 2.683332e-03 9.734592e-03
-7.927722e-03 1.406015e-02 1.007898e-02
-4.389976e-03 1.584948e-02 9.863651e-03
3.908297e-03 1.591947e-02 9.750333e-03
-9.038492e-05 -9.850987e-05 1.823906e-02
-1.054787e-02 -1.086522e-02 1.127949e-02
-1.763381e-04 -1.265213e-02 -1.841800e-02
-7.657100e-03 1.649667e-02 -1.193935e-02
-1.544101e-02 -2.429919e-03 1.116374e-02
-1.544250e-02 2.430527e-03 1.116294e-02
-6.072854e-03 1.426593e-02 1.065641e-02
-5.231157e-03 6.467310e-03 -2.093363e-02
-5.229224e-03 -6.467588e-03 -2.093281e-02
1.110466e-02 1.062557e-02 1.087217e-02
1.890974e-03 -9.649005e-03 -2.041529e-02
3.436134e-04 1.020731e-04 1.819695e-02
8.273980e-05 -5.095251e-05 1.819489e-02
9.708575e-03 2.579085e-03 -2.029015e-02
9.758637e-03 -2.241661e-03 -2.027817e-02
-9.908000e-03 -1.248478e-02 1.074391e-02
-9.909959e-03 1.248509e-02 1.074459e-02
8.783271e-03 -1.324917e-02 1.038385e-02
8.777229e-03 1.324980e-02 1.038342e-02
2.670449e-03 -1.508368e-02 1.125790e-02
1.504017e-02 3.886540e-03 1.097133e-02
1.518046e-02 -3.363652e-03 1.093265e-02
-2.856381e-03 -1.490035e-02 1.121572e-02
-3.671848e-05 6.684601e-05 1.803692e-02
-1.262304e-02 -7.928077e-03 1.101203e-02
1.328326e-02 8.708997e-03 1.036034e-02
1.230563e-02 -7.330697e-03 -1.666637e-02
1.230561e-02 7.329284e-03 -1.666319e-02
-1.675879e-02 1.279550e-03 -1.430314e-02
-1.653620e-02 -1.885969e-03 -1.447154e-02
-7.383151e-04 1.678288e-02 -1.444479e-02
9.615748e-03 1.148596e-02 1.170435e-02
-1.326860e-02 -7.425335e-03 1.122303e-02
-1.326837e-02 7.425195e-03 1.122304e-02
-7.185279e-05 3.990034e-05 1.827953e-02
-6.749429e-03 -1.659934e-02 -1.204116e-02
-7.456713e-03 -1.667925e-02 -1.177594e-02
-1.305029e-03 -1.808909e-02 -1.198352e-02
-1.677828e-03 -1.852691e-02 -1.203642e-02
-1.197500e-02 -9.907828e-03 1.092447e-02
-1.197600e-02 9.906528e-03 1.092456e-02
1.444374e-02 -7.519488e-03 -1.474336e-02
1.444322e-02 7.519068e-03 -1.474344e-02
1.504704e-02 -9.838701e-03 -1.180387e-02
1.504666e-02 9.838770e-03 -1.180482e-02
-6.149270e-05 1.550821e-04 1.812746e-02
-1.023500e-03 1.972351e-02 -7.832669e-03
-9.839036e-03 -1.517653e-02 -1.212753e-02
-9.362376e-03 -1.541691e-02 -1.217891e-02
-4.553574e-03 -1.744237e-02 -1.198568e-02
-4.111678e-03 -1.760060e-02 -1.227303e-02
3.943786e-03 -1.757515e-02 -1.203319e-02
6.436253e-04 -1.155973e-03 -2.288960e-02
3.615213e-03 -1.494889e-02 1.116713e-02
2.442601e-03 -1.520124e-02 1.087668e-02
-8.915478e-04 -1.550038e-02 1.085558e-02
-1.197389e-04 -1.516629e-04 1.817758e-02
-4.467412e-04 -1.608096e-02 1.017655e-02
-3.358204e-03 -1.491260e-02 1.116875e-02
-4.255246e-03 -1.503310e-02 1.095475e-02
-7.943834e-03 -1.314212e-02 1.104326e-02
-8.343151e-03 -1.295896e-02 1.135800e-02
1.469457e-02 1.273238e-02 -8.775372e-03
6.597687e-03 -1.251002e-02 1.214776e-02
-5.018703e-03 1.771126e-02 -1.026275e-02
4.069313e-03 -1.480041e-02 1.140325e-02
8.958235e-03 -1.250684e-02 -1.598084e-02
6.308819e-05 9.356281e-05 1.821806e-02
1.121755e-02 -1.077765e-02 -1.565968e-02
9.362447e-03 -1.209337e-02 -1.588639e-02
-1.017267e-02 -1.167235e-02 -1.572716e-02
-5.060004e-03 5.779094e-03 -2.116238e-02
-4.190722e-03 6.540851e-03 -2.114699e-02
-5.831118e-03 5.293547e-03 -2.120810e-02
-4.348882e-03 5.718828e-03 -2.167067e-02
1.527202e-02 8.017373e-04 -1.614493e-02
-2.796137e-04 -1.542904e-02 -1.606545e-02
-1.731042e-02 -6.861999e-03 -1.069070e-02
-8.909521e-05 1.644393e-04 1.812969e-02
-1.730689e-02 6.860623e-03 -1.069390e-02
-1.826499e-03 4.229446e-03 -2.204477e-02
-1.181384e-02 5.278280e-03 -1.828014e-02
-1.181299e-02 -5.279142e-03 -1.828011e-02
1.350594e-02 1.292740e-02 -1.098641e-02
4.654979e-03 -1.776026e-02 -1.173373e-02
-1.143433e-02 -8.117697e-03 -1.714132e-02
-1.143414e-02 8.117377e-03 -1.714068e-02
8.312948e-03 -1.150471e-02 1.226609e-02
9.785417e-03 -1.055508e-02 1.234319e-02
-1.346456e-04 1.513118e-04 1.827930e-02
5.431866e-03 1.593859e-02 -1.402833e-02
-9.133118e-03 1.049247e-02 1.241725e-02
-9.134706e-03 -1.049058e-02 1.241772e-02
6.338936e-03 1.571246e-02 -1.378798e-02
3.093355e-04 7.827977e-03 -2.140378e-02
-7.885953e-03 -6.675792e-05 -2.126342e-02
-9.553074e-03 -1.299780e-02 1.038709e-02
-1.191593e-02 -1.222293e-02 -1.353233e-02
-1.191503e-02 1.222239e-02 -1.353260e-02
7.590145e-03 1.219773e-02 1.213101e-02
-9.925433e-05 -2.001092e-05 1.798960e-02
-1.057005e-02 -5.532826e-03 -1.892256e-02
1.320409e-02 -1.019212e-02 -1.446584e-02
8.088132e-03 -1.458955e-02 -1.444737e-02
1.310227e-02 4.652447e-03 1.260352e-02
1.310162e-02 -4.651080e-03 1.260304e-02
-1.224815e-02 -1.198320e-02 -1.332704e-02
-1.224890e-02 1.198334e-02 -1.332550e-02
-1.794988e-02 7.843209e-03 -8.397002e-03
-1.795039e-02 -7.843420e-03 -8.395551e-03
1.470298e-02 -3.868348e-03 1.137210e-02
2.360507e-04 1.739135e-04 1.826782e-02
1.470359e-02 3.868923e-03 1.137262e-02
-7.982502e-03 -4.247979e-03 -2.056522e-02
-7.982593e-03 4.248171e-03 -2.056483e-02
-4.473830e-03 -1.463002e-02 1.161168e-02
-2.920183e-03 -1.480512e-02 1.152597e-02
-7.413907e-03 -1.308995e-02 1.154224e-02
-1.098140e-02 -9.224643e-03 1.230572e-02
1.142789e-02 9.860062e-03 -1.636684e-02
1.142704e-02 -9.859520e-03 -1.636646e-02
-1.097675e-02 1.337567e-02 -1.281980e-02
-7.426435e-05 2.220584e-04 1.824739e-02
-3.051120e-04 4.931849e-04 1.821213e-02
-1.051915e-02 1.464441e-02 -1.205151e-02
-1.292975e-02 1.275371e-02 -1.206282e-02
-1.551290e-02 -1.010836e-02 -1.026602e-02
-1.377840e-02 -1.029058e-02 -1.376623e-02
-1.377797e-02 1.029097e-02 -1.376543e-02
2.047329e-02 2.236079e-04 -2.634613e-03
2.046835e-02 -2.053042e-04 -2.659373e-03
3.655030e-03 1.383114e-02 1.225904e-02
-1.828286e-03 1.920060e-02 -1.021299e-02
-1.239321e-02 1.093718e-02 -1.463155e-02
-4.503935e-04 1.189459e-04 1.815304e-02
-1.239345e-02 -1.093658e-02 -1.463207e-02
3.643347e-04 1.795308e-02 -1.184923e-02
-1.785847e-02 -8.894542e-04 -1.200429e-02
-8.469554e-03 -1.377653e-02 -1.449923e-02
-8.418050e-03 1.367586e-02 -1.449942e-02
1.343089e-02 5.110381e-03 1.193971e-02
1.343323e-02 -5.110932e-03 1.193963e-02
1.226893e-02 6.300973e-03 1.284905e-02
1.226800e-02 -6.300269e-03 1.284999e-02
5.193637e-03 1.287286e-02 1.252946e-02
-2.094797e-04 2.223355e-04 1.814299e-02
1.445982e-03 1.379005e-02 1.252429e-02
5.665475e-03 1.229278e-02 1.271201e-02
-6.012727e-03 -1.381612e-02 1.115380e-02
7.254165e-04 1.384244e-02 1.259682e-02
-2.786891e-03 1.357666e-02 1.268055e-02
-9.798647e-03 -1.053777e-02 1.250272e-02
-4.318243e-03 -1.397308e-02 1.158254e-02
-3.715260e-03 -1.406526e-02 1.172691e-02
-5.249000e-03 -1.385767e-02 1.120265e-02
1.468376e-02 -2.165639e-03 1.121870e-02
-1.436055e-04 1.332594e-04 1.804901e-02
1.460314e-02 2.673364e-03 1.125475e-02
1.909572e-03 -1.490054e-02 1.122384e-02
-7.350804e-04 6.185779e-04 -2.292329e-02
-5.869797e-04 -1.494233e-03 -2.266707e-02
1.089562e-02 -1.535222e-02 -1.043999e-02
1.089424e-02 1.535917e-02 -1.043986e-02
1.241947e-02 -8.534535e-03 1.151997e-02
1.241913e-02 8.534623e-03 1.152045e-02
2.271451e-03 1.376458e-03 -2.254706e-02
9.595197e-03 -7.814357e-03 1.384294e-02
-2.889307e-04 4.891105e-04 1.808585e-02
9.595004e-03 7.814707e-03 1.384275e-02
-3.637552e-03 1.996895e-02 -4.299670e-03
-1.923146e-03 1.848137e-02 -1.159625e-02
-1.711082e-02 -3.179866e-03 -1.315567e-02
-1.726957e-02 2.568563e-03 -1.317315e-02
-3.728917e-03 8.103251e-03 -2.096755e-02
4.489574e-03 1.685557e-02 -1.313840e-02
1.700087e-03 -1.403427e-02 1.227597e-02
-4.697270e-03 1.402243e-02 1.162117e-02
7.803629e-03 1.803214e-02 -7.731792e-03
-7.569655e-05 -1.434318e-05 1.794556e-02
1.790147e-02 3.279137e-03 -1.134155e-02
1.790015e-02 -3.278947e-03 -1.134050e-02
1.870738e-03 1.957863e-02 -7.166126e-03
-3.316650e-03 -1.869847e-02 -1.046856e-02
1.497818e-02 -9.173313e-04 -1.628866e-02
1.497896e-02 9.187773e-04 -1.628570e-02
1.483079e-02 -1.057013e-02 -1.173515e-02
7.724464e-03 -1.634951e-02 -1.186957e-02
4.487103e-04 -5.340867e-03 -2.207070e-02
6.142874e-03 -1.204187e-02 1.291512e-02
-8.968289e-05 2.046558e-04 1.814826e-02
1.098906e-02 -7.740222e-03 1.304715e-02
-1.366072e-02 3.811854e-03 1.232591e-02
-1.366052e-02 -3.812575e-03 1.232517e-02
-1.448388e-02 -6.016485e-03 1.105245e-02
-1.448358e-02 6.017274e-03 1.105155e-02
-9.043417e-03 -8.149811e-03 -1.880286e-02
-2.496951e-03 -1.932505e-02 -8.908673e-03
7.163256e-03 -1.883265e-02 -3.037228e-03
1.723073e-02 9.498470e-03 -8.026047e-03
-2.939896e-03 -5.974512e-03 -2.190040e-02
-2.217292e-04 -6.924638e-06 1.809665e-02
-2.288593e-03 -6.393015e-03 -2.179790e-02
-8.972622e-04 -6.561414e-03 -2.180170e-02
7.996698e-03 1.655634e-02 -1.151855e-02
-1.586916e-02 -1.178512e-02 -8.282864e-03
-1.148299e-02 -6.570012e-03 1.341449e-02
1.477641e-02 -2.452521e-03 1.150905e-02
1.477610e-02 2.452764e-03 1.150878e-02
-4.721282e-03 3.252532e-03 -2.208106e-02
-5.148723e-03 2.278407e-03 -2.214543e-02
-2.283895e-03 5.237439e-03 -2.220910e-02
-3.686650e-04 1.040168e-04 1.813803e-02
1.198039e-02 1.561793e-02 -7.244734e-03
1.187634e-02 -6.165968e-03 1.353938e-02
1.094368e-02 -4.110463e-04 -1.926257e-02
1.066786e-02 5.026756e-04 -1.934180e-02
2.458598e-04 -2.019246e-02 -6.871216e-03
2.486423e-04 2.014720e-02 -6.540639e-03
1.407867e-02 1.035802e-02 -1.331706e-02
-5.724237e-03 1.254000e-02 1.291469e-02
-1.410894e-02 1.856200e-03 1.237714e-02
-1.410732e-02 -1.856822e-03 1.237785e-02
1.973211e-04 -7.940783e-05 1.808973e-02
4.871990e-03 -1.697274e-02 -1.294025e-02
1.665778e-02 5.925589e-03 -1.294336e-02
1.678624e-02 -5.295436e-03 -1.311461e-02
-1.160962e-02 -6.926689e-03 1.304083e-02
-1.394038e-02 -1.141752e-02 -1.206207e-02
1.036937e-02 9.496728e-03 1.238624e-02
-1.736852e-02 -1.038774e-02 -5.579842e-03
3.502682e-03 -1.242599e-02 1.374881e-02
1.212926e-02 -4.162093e-03 1.387306e-02
1.210154e-02 4.254649e-03 1.391168e-02
-1.044195e-04 1.949162e-04 1.822248e-02
1.235826e-05 1.134057e-04 1.813285e-02
1.766588e-02 -9.818670e-03 -6.558619e-03
1.766550e-02 9.818840e-03 -6.558800e-03
7.780793e-04 -2.648827e-03 -2.265704e-02
2.530474e-03 1.017054e-03 -2.274442e-02
2.528717e-03 -6.603208e-04 -2.278671e-02
5.215203e-03 -1.330849e-02 1.226907e-02
1.360601e-02 -2.047400e-03 1.280986e-02
1.360537e-02 2.047090e-03 1.281032e-02
2.252499e-03 -1.650138e-02 -1.377981e-02
-1.958762e-02 3.193377e-03 -7.816947e-03
-2.709706e-04 5.345064e-04 1.805341e-02
-1.958772e-02 -3.192652e-03 -7.816920e-03
1.073432e-02 -9.291511e-03 1.225797e-02
1.073514e-02 9.290477e-03 1.225785e-02
2.563022e-03 1.018948e-02 -2.002626e-02
-1.022539e-02 1.724114e-03 -2.012494e-02
-1.026665e-02 -2.053030e-03 -2.007525e-02
-1.109044e-03 8.123542e-03 -2.133257e-02
-4.194005e-03 1.253318e-02 1.310154e-02
9.496240e-03 1.427302e-02 -1.335223e-02
8.799926e-03 1.469143e-02 -1.354787e-02
-3.953134e-04 -1.899052e-04 1.806669e-02
9.591236e-04 2.001001e-02 -6.697336e-03
-1.309723e-02 1.499314e-02 -7.108772e-03
-1.987220e-02 -1.087634e-04 -6.837566e-03
-1.507832e-02 1.293896e-02 -6.795598e-03
-1.054882e-02 1.676726e-02 -6.910680e-03
1.370497e-02 -4.113521e-03 1.259315e-02
1.370422e-02 4.113161e-03 1.259441e-02
3.775717e-03 1.677750e-02 -1.360361e-02
4.538783e-03 1.653565e-02 -1.378929e-02
-9.845594e-03 -1.112905e-02 -1.636437e-02
2.012486e-04 -1.995790e-04 1.822096e-02
-9.845772e-03 1.113109e-02 -1.636545e-02
-1.126731e-02 -1.679710e-02 -4.502290e-03
-1.127274e-02 1.679223e-02 -4.508117e-03
1.230212e-02 -1.561450e-02 -6.748869e-03
1.230188e-02 1.561635e-02 -6.749583e-03
3.845069e-03 -1.899415e-02 -8.513068e-03
1.877353e-02 -4.671700e-03 -8.589329e-03
1.858415e-02 5.336830e-03 -8.620039e-03
4.271748e-03 1.254935e-02 1.341955e-02
6.053785e-03 1.175315e-02 1.332568e-02
-1.054497e-04 2.169357e-04 1.836445e-02
1.986290e-03 1.309770e-02 1.332635e-02