# vtk DataFile Version 2.0
Electric current density generated by TTH
ASCII
DATASET UNSTRUCTURED_GRID
POINTS 2214 double
-2.464743e-05 6.522962e-06 -3.688710e-22
-1.989961e-05 -1.153994e-05 1.138073e-06
1.191271e-05 -2.107926e-05 1.489487e-06
1.249105e-05 -2.194623e-05 -8.218056e-07
1.438932e-05 2.066144e-05 9.251525e-07
1.621069e-05 1.591166e-05 8.015073e-07
-1.386331e-05 1.928820e-05 -1.487344e-06
-1.968616e-05 -1.573647e-05 8.928083e-07
-1.894116e-05 1.430303e-05 -1.484272e-06
2.280088e-05 -2.529006e-06 1.080375e-06
1.251643e-06 -2.249178e-05 -3.559284e-07
-2.487163e-05 5.607748e-06 -3.688710e-22
1.694521e-05 -1.685277e-05 1.503273e-06
-1.450878e-05 1.775653e-05 -1.070181e-06
-5.548224e-06 2.460763e-05 -8.613461e-07
-1.018081e-05 -2.006139e-05 -1.969174e-07
2.399948e-05 -4.025043e-06 1.466048e-06
2.236575e-05 -3.544126e-06 6.773077e-07
-3.798619e-06 -2.356616e-05 1.501273e-06
-2.037549e-05 1.204178e-05 -1.471173e-06
-1.411229e-05 2.091992e-05 8.474909e-07
-4.218610e-07 -2.260580e-05 -6.026162e-07
-2.506186e-05 4.684874e-06 -3.688710e-22
-1.609576e-06 -2.257746e-05 -6.569483e-07
-1.896502e-05 1.665767e-05 -8.372142e-07
-9.379116e-06 -2.079920e-05 9.435116e-07
-2.419857e-05 -2.779714e-06 -1.460441e-06
2.168726e-05 1.055445e-05 1.500477e-06
-2.027329e-05 9.964317e-06 5.544210e-07
6.169622e-06 -2.308244e-05 -1.502890e-06
2.166927e-05 8.744075e-06 -1.371148e-06
-1.846157e-05 -1.341087e-05 9.464056e-07
2.339363e-05 5.746182e-06 -1.502769e-06
-2.521786e-05 3.755601e-06 -3.688710e-22
-1.433490e-05 -2.070601e-05 -9.179557e-07
2.135658e-05 -8.327238e-06 -1.062510e-06
4.399325e-06 2.328631e-05 -1.477508e-06
-2.992097e-06 2.502409e-05 8.934415e-07
-1.538101e-05 -1.658539e-05 -6.249357e-07
-2.092073e-05 1.126992e-05 -1.488857e-06
-2.370232e-05 -8.669478e-06 -8.428120e-07
-7.793384e-06 -2.393497e-05 -9.334616e-07
1.987802e-06 2.515724e-05 -8.463783e-07
-4.464277e-06 2.363196e-05 -1.504835e-06
-2.533941e-05 2.821199e-06 -3.688710e-22
2.407237e-05 3.969228e-06 -1.449863e-06
1.308044e-05 1.999541e-05 1.502959e-06
-2.237046e-05 2.342449e-06 1.630443e-07
1.784259e-05 -1.553199e-05 -1.468511e-06
1.541711e-05 -1.804091e-05 1.483606e-06
-2.053661e-06 -2.379501e-05 1.502261e-06
1.915307e-05 -1.485768e-05 -1.485081e-06
-1.543818e-05 -1.703021e-05 1.122772e-06
-2.300842e-05 7.525025e-06 1.490203e-06
-1.620152e-05 -1.933329e-05 8.628466e-07
-2.542635e-05 1.882943e-06 -3.688710e-22
-2.379318e-05 -5.928878e-07 -1.494075e-06
2.377411e-05 -8.702764e-06 -7.122277e-07
-2.302513e-05 -6.521213e-06 1.504868e-06
1.943860e-05 1.398490e-05 -1.505404e-06
-1.886887e-05 1.272429e-05 -8.667434e-07
1.946632e-05 -1.392985e-05 1.505098e-06
2.126035e-05 -1.105948e-05 -1.505821e-06
-2.089501e-05 9.292364e-06 1.004762e-06
-1.948287e-05 1.526818e-05 1.298552e-06
-1.117335e-06 -2.401925e-05 -1.505016e-06
-2.547857e-05 9.421147e-07 -3.688710e-22
-1.723257e-06 2.518068e-05 -8.405774e-07
1.233214e-05 -1.917653e-05 -9.225840e-07
-2.223637e-05 8.280764e-06 1.483109e-06
-6.866341e-06 -2.306924e-05 1.503932e-06
-1.774402e-05 -1.800031e-05 -7.841847e-07
8.375362e-07 2.369448e-05 -1.479646e-06
-2.175179e-05 9.605520e-06 -1.491081e-06
-4.672169e-06 2.273582e-05 1.288890e-06
-1.732265e-05 -1.543422e-05 -1.282884e-06
1.500437e-06 -2.349322e-05 -1.437584e-06
-2.549598e-05 -8.745756e-20 -3.688710e-22
6.297316e-06 2.163226e-05 3.705561e-07
-2.524060e-05 -4.664983e-07 8.325876e-07
-2.503409e-05 3.256588e-06 8.324249e-07
-2.004565e-05 -1.022932e-05 -2.500825e-07
-1.175857e-05 2.050894e-05 1.464964e-06
2.216739e-05 -9.066802e-06 1.505499e-06
3.587001e-06 2.402273e-05 -1.476030e-06
2.287702e-05 -7.488920e-06 -1.503815e-06
-1.967376e-05 -1.332207e-05 -1.488361e-06
-2.222117e-05 -9.659177e-06 -1.486819e-06
-2.547857e-05 -9.421147e-07 -3.688710e-22
2.302605e-05 -8.904808e-07 1.171285e-06
-4.544126e-06 -2.483880e-05 -8.232690e-07
2.305910e-05 -1.020363e-05 8.748945e-07
8.790770e-06 -2.081604e-05 -5.704257e-07
2.213490e-05 1.212978e-05 8.391201e-07
-2.451089e-05 -6.062638e-06 -8.255714e-07
2.208341e-05 -4.591899e-06 -4.596132e-07
1.306992e-05 1.841485e-05 5.336090e-07
-1.633276e-05 -1.788965e-05 -1.487744e-06
-1.836363e-05 1.737276e-05 -7.785088e-07
-2.542635e-05 -1.882943e-06 -3.688710e-22
-2.475886e-05 5.103460e-06 -7.781538e-07
1.330811e-05 -2.149334e-05 -7.774050e-07
-2.322688e-07 -2.269306e-05 7.676416e-07
-2.479910e-05 -4.468160e-06 -8.987505e-07
-2.956114e-06 -2.410093e-05 -1.477532e-06
2.431861e-05 -2.095446e-06 1.446635e-06
-2.327836e-05 -4.073692e-06 -1.462902e-06
-1.359174e-05 -1.978515e-05 -1.505966e-06
1.902206e-05 -1.662567e-05 -8.036441e-07
-1.496235e-05 -1.904562e-05 -1.488358e-06
-2.533941e-05 -2.821199e-06 -3.688710e-22
-2.012396e-05 1.525196e-05 -8.238504e-07
-1.879942e-05 1.681371e-05 8.669803e-07
1.632760e-05 1.927248e-05 -8.108880e-07
-7.410597e-06 2.310845e-05 1.480212e-06
1.829715e-05 -1.339619e-05 -7.376514e-07
1.634422e-05 -1.803885e-05 1.464301e-06
2.197564e-05 5.482083e-06 -6.857491e-07
-2.401927e-05 -7.804334e-06 8.166252e-07
2.126429e-05 -1.363920e-05 8.053246e-07
-2.013714e-05 -1.304169e-05 1.506029e-06
-2.521786e-05 -3.755601e-06 -3.688710e-22
-2.108752e-05 -1.144144e-05 1.506029e-06
-1.635866e-05 -1.925786e-05 -7.967246e-07
2.410104e-05 7.170439e-06 9.663219e-07
-2.084686e-05 -1.241478e-05 -1.480975e-06
2.213961e-05 5.767760e-06 1.016358e-06
-2.085846e-05 8.459474e-06 -2.716293e-07
2.072412e-05 8.721229e-06 -3.867864e-08
4.180355e-06 2.248557e-05 -1.007855e-06
-1.489197e-05 2.041869e-05 7.896045e-07
-1.143915e-05 -2.085283e-05 1.491928e-06
-2.506186e-05 -4.684874e-06 -3.688710e-22
3.403831e-06 -2.305928e-05 -1.343368e-06
-1.713626e-05 1.857164e-05 -7.939710e-07
2.293325e-05 2.396781e-06 -1.183166e-06
-2.075506e-05 1.436700e-05 -8.362311e-07
-1.408420e-05 2.097345e-05 -8.036798e-07
1.972166e-05 -1.343371e-05 -1.500609e-06
8.275566e-06 -2.115018e-05 7.961529e-07
2.246577e-05 -1.993476e-06 -4.541970e-07
9.103500e-07 -2.378521e-05 1.494334e-06
-1.621011e-05 -1.610726e-05 9.864428e-07
-2.487163e-05 -5.607748e-06 -3.688710e-22
5.678515e-07 2.424781e-05 1.482620e-06
-6.495811e-06 -2.442824e-05 7.818100e-07
2.335517e-05 -3.207402e-06 -1.447559e-06
2.543740e-06 2.314830e-05 -1.332251e-06
-2.109939e-05 -1.295379e-05 1.295146e-06
1.889908e-05 1.675620e-05 8.131635e-07
-8.678156e-06 2.113495e-05 9.809921e-07
-2.523057e-05 -1.400214e-06 -7.944553e-07
-2.512488e-05 2.533098e-06 -8.214099e-07
-2.375945e-05 -1.422138e-06 -1.494253e-06
-2.464743e-05 -6.522962e-06 -3.688710e-22
-1.793214e-05 1.431985e-05 1.087601e-06
-1.469103e-05 -1.705691e-05 2.865532e-07
1.471962e-05 -2.049722e-05 8.473981e-07
2.076002e-05 -1.446852e-05 -7.349446e-07
-2.156234e-05 1.073878e-05 1.502802e-06
-8.679197e-06 -2.367856e-05 -8.702454e-07
7.854100e-06 -2.276279e-05 -1.503354e-06
-2.058603e-05 -9.925889e-06 9.888756e-07
-1.409998e-05 -2.099695e-05 7.569696e-07
1.963477e-05 -1.298481e-05 1.437229e-06
-2.438957e-05 -7.429267e-06 -3.688710e-22
2.118507e-05 1.375941e-05 8.074810e-07
-2.100848e-05 -1.393661e-05 -8.818219e-07
1.109414e-05 -1.969353e-05 -5.879593e-07
-2.338610e-05 9.603859e-06 -7.749569e-07
1.476431e-05 1.893970e-05 1.505830e-06
-1.816322e-05 -1.377295e-05 -9.162036e-07
-1.326387e-05 1.977266e-05 1.495170e-06
1.171639e-05 -2.144650e-05 -1.437772e-06
-1.710085e-05 1.459758e-05 -1.074149e-08
1.031780e-05 2.085865e-05 1.323354e-06
-2.409839e-05 -8.325424e-06 -3.688710e-22
5.893242e-06 -2.178523e-05 4.969321e-07
-1.233539e-05 -2.202447e-05 8.345633e-07
-1.068975e-05 1.990892e-05 5.731799e-07
2.303196e-05 8.384297e-07 1.174471e-06
1.016468e-05 -2.160715e-05 -1.501912e-06
-1.434681e-05 -1.964703e-05 1.467670e-06
-2.091689e-05 -8.979080e-06 -8.729104e-07
2.217862e-05 -6.154451e-06 -1.149308e-06
2.331944e-05 -5.707020e-06 1.505926e-06
-5.277510e-07 2.377331e-05 1.491207e-06
-2.377429e-05 -9.210210e-06 -3.688710e-22
-2.067260e-05 1.230220e-05 1.504573e-06
2.101172e-05 9.912662e-06 -1.301743e-06
2.067206e-05 1.234143e-05 -1.503580e-06
-2.274163e-05 -2.750607e-06 -1.046969e-06
1.242625e-05 -2.026037e-05 -1.489512e-06
-2.405463e-05 -1.296105e-06 1.502735e-06
-2.171264e-05 9.845277e-06 1.498594e-06
-2.251017e-05 -1.093549e-06 -3.952635e-07
4.542494e-06 -2.356052e-05 1.506024e-06
2.275123e-05 2.981839e-06 1.085303e-06
-2.341773e-05 -1.008242e-05 -3.688710e-22
-1.000839e-05 -2.041491e-05 8.344640e-07
7.543202e-06 2.144192e-05 8.251211e-07
5.561284e-06 -2.466555e-05 -7.692053e-07
1.921413e-05 -1.173921e-05 3.114465e-07
2.203928e-05 1.234405e-05 -8.082111e-07
1.247407e-05 -1.874976e-05 3.282183e-07
-2.433631e-05 6.924278e-06 7.389916e-07
-1.951077e-05 1.202500e-05 -1.058649e-06
1.625256e-05 -1.783403e-05 -1.499617e-06
-8.237429e-06 2.246599e-05 -1.504778e-06
-2.302917e-05 -1.094085e-05 -3.688710e-22
2.246916e-05 -4.523391e-06 1.059831e-06
-2.416532e-05 -7.236668e-06 -8.609541e-07
-2.182790e-05 -6.742803e-06 -9.791052e-07
2.068268e-05 1.453783e-05 -7.756808e-07
-2.365447e-05 5.313385e-06 -1.484468e-06
2.397829e-05 7.479701e-07 -1.506030e-06
9.759859e-06 -2.085273e-05 1.155205e-06
5.515356e-06 -2.459771e-05 8.850708e-07
-2.153138e-05 -6.899442e-06 6.027297e-07
5.167169e-06 2.473343e-05 -7.976294e-07
-2.260916e-05 -1.178434e-05 -3.688710e-22
-2.215024e-05 3.911702e-06 1.650342e-07
4.472169e-06 -2.219673e-05 -6.732217e-07
4.219983e-06 -2.278814e-05 -1.266859e-06
-7.240204e-06 -2.150064e-05 7.552158e-07
-7.766866e-06 -2.198199e-05 1.345703e-06
1.480985e-05 -1.873247e-05 -1.501985e-06
-5.908578e-06 -2.364437e-05 -1.456911e-06
1.772988e-05 1.625725e-05 -1.504621e-06
2.065669e-05 1.163725e-05 1.479623e-06
1.668729e-05 -1.701566e-05 -1.497800e-06
-2.215827e-05 -1.261174e-05 -3.688710e-22
-1.866330e-05 1.576911e-05 -1.439310e-06
1.508129e-05 1.679881e-05 -5.166887e-07
1.633746e-05 1.930863e-05 7.551081e-07
-2.247888e-05 6.364980e-06 -1.369164e-06
2.064556e-05 1.456126e-05 8.030735e-07
5.057461e-06 2.288358e-05 1.400368e-06
-2.614453e-06 2.408335e-05 -1.487599e-06
1.381816e-05 -1.910643e-05 -1.449046e-06
-2.263681e-05 -1.129394e-05 7.467758e-07
-2.074897e-05 -1.447268e-05 7.467758e-07
[...]
POINT_DATA 2214
VECTORS 10.000GHz_fone_imag double
5.586174e+09 2.036266e+10 -7.756434e+08
-1.395265e+10 2.527990e+10 1.785941e+09
-2.003477e+10 -1.157785e+10 7.071641e+07
-1.779427e+10 -1.080117e+10 -2.835504e+08
1.790838e+10 -1.153514e+10 -8.762179e+08
3.072420e+10 -2.960462e+10 3.087767e+09
2.138254e+10 1.492867e+10 -7.001941e+08
-1.332803e+10 1.459030e+10 -3.629463e+08
2.265784e+10 2.345547e+10 -1.513978e+09
-2.883919e+09 -2.895491e+10 -5.099555e+08
-3.369920e+10 -1.389432e+09 5.419568e+06
3.500960e+09 1.948473e+10 -4.856773e+08
-2.143712e+10 -2.012462e+10 1.419691e+09
2.013245e+10 1.660736e+10 -5.411111e+07
2.035348e+10 4.525862e+09 -4.280952e+07
-2.921939e+10 1.907553e+10 1.077168e+08
-3.748317e+09 -2.180182e+10 6.730421e+08
-6.196046e+09 -2.881139e+10 4.598940e+08
-3.114454e+10 1.605836e+09 -2.439527e+09
1.650523e+10 2.395056e+10 -1.280223e+09
1.673592e+10 1.111553e+10 -6.929356e+08
-3.419509e+10 1.725897e+09 3.613848e+08
3.704018e+09 2.000195e+10 -3.766771e+07
-3.425374e+10 7.477129e+08 1.171938e+09
1.319725e+10 1.525649e+10 -1.526991e+08
-3.249369e+10 1.421110e+10 1.470035e+09
-2.737391e+09 2.049214e+10 -7.485476e+08
1.003070e+10 -2.084471e+10 9.425904e+08
1.557304e+10 2.577338e+10 -2.201604e+09
-3.429813e+10 -1.031660e+10 -2.273827e+08
1.052181e+10 -2.488377e+10 4.642181e+08
-1.634461e+10 2.409949e+10 -9.201169e+07
5.973701e+09 -2.248852e+10 -9.655462e+08
2.472299e+09 1.910869e+10 1.075558e+08
-1.526144e+10 1.402019e+10 -6.377304e+07
-9.869501e+09 -2.489325e+10 1.687532e+09
2.489597e+10 -5.054568e+09 -2.263547e+08
2.245266e+10 2.628247e+09 3.850751e+09
-2.212972e+10 1.988180e+10 1.241493e+09
1.384028e+10 2.905958e+10 9.944275e+07
-9.283444e+09 2.042673e+10 -1.070761e+09
-1.882917e+10 6.892351e+09 -1.754261e+08
2.042552e+10 -9.406556e+08 9.975492e+08
2.651025e+10 7.343398e+09 -1.067235e+08
2.162473e+09 1.900134e+10 -5.190016e+08
2.021899e+09 -2.537995e+10 -2.376821e+09
2.036600e+10 -1.247290e+10 2.898609e+08
3.065245e+09 3.131240e+10 -2.496520e+08
-1.781201e+10 -1.817540e+10 -1.068782e+09
-2.065652e+10 -1.967829e+10 -3.564434e+09
-2.799753e+10 2.717782e+09 1.028359e+09
-1.437021e+10 -1.899494e+10 -6.175101e+08
-2.110447e+10 1.833852e+10 1.146726e+08
8.367318e+09 2.250795e+10 1.595815e+08
-1.861936e+10 1.736650e+10 -2.084404e+09
4.206474e+09 2.034902e+10 -1.256245e+09
8.915946e+08 2.561326e+10 7.082451e+08
-7.266557e+09 -2.136347e+10 6.407443e+08
-9.330707e+09 2.591229e+10 -2.664950e+08
1.414148e+10 -2.078927e+10 7.886012e+07
1.822766e+10 3.264965e+10 9.409072e+08
-1.578018e+10 -2.127758e+10 -3.078790e+08
-1.306424e+10 -2.516354e+10 2.209001e+09
1.094025e+10 2.574551e+10 -9.037782e+08
1.765906e+10 2.324832e+10 7.917166e+08
-2.800549e+10 -4.752158e+08 4.756903e+08
1.476429e+09 2.752857e+10 -2.484723e+09
2.324134e+10 1.344440e+09 1.748321e+09
-2.531561e+10 -1.460579e+10 7.995201e+08
9.242628e+09 2.314539e+10 -2.108217e+08
-2.481562e+10 6.619073e+09 -3.048575e+08
-1.700561e+10 1.556099e+10 -6.058828e+07
2.515838e+10 -6.929298e+08 -6.434309e+08
1.026351e+10 2.374933e+10 8.244261e+07
2.941281e+10 5.245426e+09 4.495379e+09
-1.909371e+10 2.043545e+10 1.522628e+09
-2.845593e+10 6.070030e+08 -4.078894e+07
-2.387082e+09 2.075212e+10 2.435028e+08
2.708171e+10 -9.035774e+09 3.569434e+08
-1.339528e+09 2.033968e+10 2.823736e+08
2.296596e+09 2.044149e+10 1.960100e+08
-2.050450e+10 4.107001e+10 1.941689e+09
2.555939e+10 1.530168e+10 -1.795170e+09
-7.041201e+09 -2.747634e+10 -2.566393e+09
2.288482e+10 -2.524758e+09 8.127649e+07
-9.913932e+09 -2.797678e+10 2.331085e+09
-1.380677e+10 2.127442e+10 1.528800e+09
-1.102149e+10 2.273320e+10 1.626201e+09
6.671925e+08 1.927826e+10 1.026798e+07
-1.713439e+09 -3.246723e+10 -3.014147e+08
-2.154168e+10 5.403156e+09 6.490171e+08
-9.069025e+09 -2.184754e+10 3.582597e+09
-3.200960e+10 -1.188956e+10 5.573375e+08
1.366334e+10 -2.549831e+10 -3.595341e+08
-3.950772e+09 2.168401e+10 1.191837e+09
-6.935445e+09 -2.896508e+10 -1.567333e+09
2.250321e+10 -1.745119e+10 6.314117e+07
-1.811865e+10 1.545887e+10 7.903854e+08
1.466607e+10 1.725110e+10 -1.322982e+09
3.557773e+08 2.165087e+10 -8.410456e+08
4.035903e+09 2.001269e+10 -4.011423e+08
-1.756111e+10 -9.643404e+09 8.726472e+08
-3.250059e+10 2.911963e+09 -8.598400e+08
-3.222867e+09 2.062291e+10 -2.894901e+08
-2.646033e+10 3.475651e+08 1.231714e+09
-8.353050e+08 -2.500155e+10 -3.488977e+08
-4.712943e+09 2.616770e+10 1.455070e+09
-2.298409e+10 1.483774e+10 -1.682665e+08
-1.251354e+10 -1.529770e+10 -8.384374e+08
-1.999404e+10 1.640343e+10 -2.076711e+08
-3.435402e+09 2.636812e+10 -7.945765e+08
1.700361e+10 2.222862e+10 1.409235e+07
1.264767e+10 1.489453e+10 -2.241741e+08
1.894458e+10 -1.441375e+10 1.411837e+09
2.213161e+10 6.610217e+09 7.631346e+08
-1.933289e+10 -2.640307e+10 6.239971e+08
-2.156373e+10 -1.769708e+10 -2.008893e+09
5.979915e+09 -2.834879e+10 -9.908489e+08
-1.113972e+10 2.075397e+10 -1.120718e+09
-1.068457e+10 -1.775241e+10 -1.931803e+09
-1.328356e+10 2.046592e+10 -5.639705e+06
-5.171284e+09 2.072651e+10 9.645298e+08
-1.331926e+10 2.506410e+10 6.820036e+08
-1.323450e+10 1.511851e+10 -6.471580e+08
5.983459e+09 -1.984153e+10 6.950664e+08
-1.089805e+10 2.199186e+10 -3.006415e+06
7.995890e+09 -2.876301e+10 -2.416846e+08
1.291668e+10 2.974374e+10 8.163331e+08
1.076981e+10 -2.721683e+10 -2.680222e+08
2.938008e+10 -5.933730e+09 2.759508e+08
1.719316e+10 1.237903e+10 4.945791e+08
-2.434222e+10 1.582299e+10 9.231169e+08
-4.022247e+09 1.919827e+10 5.756721e+08
-3.632029e+10 -6.817280e+09 2.713354e+08
1.789011e+10 1.433625e+10 1.044392e+09
6.055421e+09 -3.057716e+10 7.633045e+08
1.361514e+10 1.971655e+10 7.854435e+08
1.913656e+10 1.314261e+10 -4.095268e+08
-1.457984e+10 -2.158480e+10 6.451416e+08
-3.360899e+10 -1.032583e+10 1.148717e+09
-3.717653e+09 -3.287493e+10 -1.412447e+09
-2.350143e+10 -2.059895e+09 3.033521e+08
-1.898730e+10 2.053349e+10 -2.982473e+08
-4.135557e+09 1.930566e+10 -5.184156e+08
2.338958e+10 -3.521605e+08 1.776634e+09
-2.184527e+10 6.620287e+09 -1.855724e+09
-2.923677e+09 -2.877304e+10 -6.508377e+08
2.687514e+10 -3.576757e+09 2.074336e+07
-1.117007e+10 1.821735e+10 -6.746763e+08
1.199040e+10 -1.701224e+10 1.124532e+09
2.572869e+10 1.130224e+10 -8.310164e+08
-1.410917e+09 2.091942e+10 1.046645e+09
1.898282e+09 1.943219e+10 6.906420e+08
-1.994212e+09 2.653362e+10 4.601010e+08
-3.525228e+09 2.256630e+10 3.891308e+08
1.588341e+10 2.163440e+10 -8.569519e+07
-2.825418e+10 2.031853e+10 -7.635839e+08
-1.638009e+10 -1.260971e+10 3.993256e+08
-1.304471e+10 -1.720619e+10 1.283899e+09
1.141075e+10 2.258900e+10 3.277309e+09
-2.317777e+10 5.702850e+09 -9.259651e+08
-2.176681e+10 -7.188108e+09 5.751976e+08
-1.422163e+10 2.812142e+10 -1.272751e+09
-2.330467e+10 1.694817e+10 9.027427e+08
-1.457555e+10 -2.107944e+10 1.399215e+08
-8.563322e+09 2.796266e+10 7.915979e+08
1.083051e+10 -1.722470e+10 2.030707e+08
-1.065212e+10 1.672760e+10 -1.546342e+09
-2.548581e+10 -1.513184e+10 -2.528116e+08
6.902689e+09 1.894626e+10 -9.083006e+08
2.225679e+10 -1.442831e+10 4.416591e+08
-1.906851e+10 2.198997e+10 -3.828121e+08
2.205254e+10 1.388555e+10 2.346019e+09
-2.178939e+10 -1.314322e+10 -2.748343e+07
1.988687e+10 2.448846e+10 1.551511e+08
2.362264e+10 -1.288804e+10 2.176465e+08
-9.636170e+09 2.087844e+10 -4.098118e+08
-2.711334e+10 -8.136177e+09 1.414374e+09
-2.704397e+10 1.645140e+10 1.562387e+09
3.114711e+10 1.576080e+10 -1.010796e+09
5.766437e+08 -2.886440e+10 -1.367909e+07
-2.295199e+10 -1.081042e+10 -1.434823e+09
-1.925012e+10 1.443523e+10 4.048548e+08
-1.204221e+10 2.654995e+10 -2.190748e+09
-1.101749e+10 -2.889305e+10 6.937959e+08
-5.598260e+09 -2.270482e+10 -1.410556e+09
2.424383e+10 3.279786e+08 5.136579e+08
-6.941309e+09 1.864106e+10 1.633972e+08
1.474947e+10 2.540169e+10 -2.195267e+09
1.300858e+10 -2.630059e+10 6.708769e+08
1.129058e+10 -2.037402e+10 -1.802186e+09
-4.581112e+09 4.017607e+10 1.241080e+09
-2.271244e+10 -1.400108e+10 3.578078e+07
-3.048948e+08 2.460973e+10 8.510571e+08
9.329345e+09 2.265512e+10 9.279791e+07
-2.460701e+08 3.040886e+10 1.941146e+08
-2.313376e+10 -7.084737e+09 -1.770996e+09
6.780143e+09 -3.013368e+10 5.844485e+08
-7.308938e+09 1.872251e+10 -1.304208e+09
-2.927763e+10 1.284301e+10 4.493397e+08
3.180514e+10 -9.858524e+09 1.446659e+09
-2.016413e+10 -5.361761e+09 -1.163414e+09
-1.708155e+10 -2.791952e+10 3.403785e+07
1.288789e+10 -2.521584e+10 2.511971e+08
-2.587327e+10 -1.685306e+10 6.444682e+08
5.281231e+09 1.962464e+10 1.306517e+08
2.127170e+10 2.669534e+10 -1.425676e+09
-1.999374e+10 -1.932002e+10 1.870233e+09
2.307616e+10 9.751976e+09 2.626439e+08
-8.486560e+09 2.132993e+10 -9.474030e+08
-4.264848e+09 -2.989864e+10 1.724874e+09
-9.844252e+09 3.047483e+10 1.002747e+09
-9.582233e+09 2.939549e+10 5.605498e+08
1.102365e+10 -1.661753e+10 8.941450e+08
4.459258e+09 2.227232e+10 -5.019940e+08
4.327709e+08 -2.362851e+10 2.261967e+07
-2.575379e+10 -1.138197e+10 2.600061e+08
-2.052008e+10 -4.706652e+09 -1.334666e+09
-1.048141e+10 3.037144e+10 1.917199e+08
1.992119e+10 -3.243309e+09 -6.352488e+07
-1.223101e+10 2.222503e+10 -5.696124e+08
3.706950e+09 3.083319e+10 -4.946194e+08
-3.168790e+10 -4.458234e+09 -9.186055e+08
-3.140320e+10 -3.530617e+09 -1.894234e+09
-2.824168e+10 8.747286e+09 -2.002003e+09
-2.637652e+10 1.083308e+10 2.281357e+09
-1.941942e+10 -1.496754e+10 5.484335e+08
-3.043387e+10 4.974219e+09 4.197734e+08
1.630559e+10 -2.050964e+10 2.016223e+09
1.073474e+10 -1.977846e+10 7.855027e+07
-2.415389e+10 -2.397194e+10 4.461174e+08
-1.185906e+10 1.726280e+10 9.167220e+08
1.607381e+10 1.931338e+10 2.814887e+08
2.872263e+10 -2.339453e+10 -3.064613e+08
2.073539e+10 -1.806626e+10 2.611343e+08
7.711220e+09 2.604629e+10 -1.364557e+08
1.107726e+10 -1.614660e+10 1.238766e+09
2.633398e+10 -6.024315e+09 -1.698666e+08
2.596565e+10 2.472814e+09 -1.901549e+09
-2.024529e+10 -1.580330e+10 -2.751532e+07
-1.038706e+10 2.088656e+10 -1.176803e+09
-1.139504e+10 1.687238e+10 3.485820e+08
-9.699945e+09 1.655011e+10 -2.975021e+08
-3.075197e+09 -1.952770e+10 1.365552e+09
2.915463e+10 -1.215968e+10 -3.433648e+08
8.353076e+09 2.745531e+10 -4.848913e+08
1.458145e+10 -1.769185e+10 -8.349632e+07
-5.004085e+09 -2.885273e+10 6.038530e+08
-3.240926e+10 -1.315750e+10 -7.521908e+08
6.608564e+09 1.812728e+10 7.101802e+08
2.914140e+10 -2.157771e+10 -6.390981e+08
1.112099e+09 -2.730453e+10 -8.839132e+07
-1.603526e+10 -1.626034e+10 -2.309767e+09
-1.125360e+10 1.742711e+10 1.551140e+09
2.889701e+10 -1.182469e+10 1.421137e+09
2.643819e+10 2.145895e+10 -2.039767e+09
-1.857591e+10 9.549328e+09 -9.820500e+08
-2.576074e+10 1.768524e+10 -1.001330e+08
-1.401789e+10 -2.306253e+10 -1.662386e+09
1.905047e+10 -5.892605e+09 1.593094e+09
2.811439e+10 2.054177e+09 -3.068270e+09
9.573069e+09 2.104733e+10 -1.302997e+08
-4.644330e+08 2.008478e+10 1.970015e+08
1.386403e+10 1.849629e+10 2.085262e+09
-1.201087e+10 1.477820e+10 -3.098996e+07
-3.394627e+10 -9.900911e+09 1.213247e+09
-2.421847e+10 -2.079160e+09 -1.443536e+09
-1.355651e+10 1.523308e+10 -9.866878e+08
-1.733477e+10 1.906305e+10 -7.791649e+08
-2.542511e+10 4.752978e+09 1.528763e+09
2.904553e+09 2.251508e+10 2.555609e+08
2.698216e+10 7.594268e+09 -4.825792e+08
-1.117177e+10 1.537531e+10 -9.359313e+08
3.283116e+10 7.047425e+09 6.682701e+08
-1.619349e+10 1.596576e+10 4.193585e+08
-1.157714e+10 1.478343e+10 -1.050025e+08
-3.072476e+10 1.647287e+10 5.469949e+08
2.608897e+10 -1.344249e+10 -7.582700e+08
-2.527390e+10 1.161071e+10 5.793191e+08
-2.513805e+10 3.552641e+09 3.149401e+08
2.789371e+10 7.975473e+09 -1.590048e+09
-3.548339e+10 8.616817e+09 -3.257586e+08
1.850972e+10 2.617466e+10 -4.157359e+09
2.866639e+10 5.196889e+09 1.203429e+09
-6.375474e+09 2.405215e+10 1.942350e+09
3.584762e+10 -3.966622e+09 2.254264e+09
-1.243562e+10 1.445916e+10 5.975958e+07
-1.839774e+10 6.710286e+09 -1.257851e+08
-1.293361e+10 -1.493730e+10 6.702132e+08
-1.167894e+10 -2.086398e+10 1.666130e+09
2.766686e+10 1.065017e+10 9.221699e+08
-1.414327e+10 -3.064330e+10 -1.930267e+09
-2.816410e+10 -1.123752e+10 -1.149717e+08
-2.418938e+10 9.888008e+09 4.143413e+08
2.151254e+10 1.688404e+10 -2.907258e+09
-8.994218e+09 -2.066298e+10 -2.075527e+09
1.833289e+10 2.254047e+10 3.154956e+08
-1.224796e+10 1.427087e+10 5.541386e+08
5.441093e+09 -1.965215e+10 -1.284259e+08
4.166002e+09 2.727677e+10 8.467384e+08
-2.439680e+10 -2.253981e+10 -1.499094e+09
3.010264e+09 2.247384e+10 -4.355318e+08
1.826022e+10 -1.116698e+10 -6.117147e+08
-3.536231e+08 3.083991e+10 -2.322572e+08
-1.337122e+10 2.031062e+10 -8.163112e+08
1.772297e+10 3.427246e+10 -7.685509e+07
6.854619e+08 -2.774191e+10 -2.128765e+09
2.180707e+10 6.058211e+09 -4.001051e+08
-1.437808e+10 1.389789e+10 -8.838391e+07
2.794794e+10 2.749257e+09 -2.325166e+09
1.928682e+10 6.201543e+09 -1.786197e+09
1.382589e+10 -1.902179e+10 -2.940817e+08
1.967856e+10 -1.342551e+10 9.274611e+08
-4.297829e+10 6.551082e+09 -2.326858e+08
-1.768600e+10 -1.976524e+10 1.615243e+08
1.566434e+10 2.537425e+10 -1.180073e+09
-2.004593e+10 7.544745e+09 3.856294e+08
8.034683e+09 1.802810e+10 -7.619209e+08
-1.023444e+10 -3.095760e+10 2.265707e+09
-1.530247e+10 1.488790e+10 -5.041098e+08
9.431401e+09 -1.845885e+10 -1.238481e+09
2.965931e+10 1.035668e+10 3.006049e+08
-2.222280e+10 -2.456546e+10 9.879503e+08
1.538440e+09 -2.130193e+10 -1.022874e+09
2.009192e+10 -3.012069e+09 2.250086e+08
1.188621e+10 -2.025710e+10 -6.132096e+08
1.852825e+10 7.935324e+09 4.507075e+08
-1.524857e+09 2.330012e+10 -1.623992e+09
-9.311813e+08 2.543178e+10 3.018229e+08
-1.721045e+10 -8.838921e+09 -3.074565e+08
-1.413452e+10 1.428386e+10 -1.087933e+09
3.073649e+10 1.783967e+10 -5.314914e+09
2.727322e+10 1.309565e+08 -8.422624e+08
-5.757263e+09 2.075522e+10 -9.536626e+08
-3.012643e+10 1.468221e+09 -1.213366e+09
-1.849999e+10 1.571668e+10 7.083376e+08
-8.912799e+09 3.078108e+10 1.256237e+08
1.896198e+09 2.239743e+10 4.612763e+08
-1.992021e+10 1.137801e+10 1.434795e+08
2.395778e+10 1.829098e+10 1.381165e+08
-3.461021e+09 2.578221e+10 -2.194726e+09
-2.150595e+10 1.771637e+10 -2.960176e+09
2.164034e+10 1.029952e+10 9.902081e+08
1.864181e+10 -1.612129e+10 -9.040949e+08
1.826486e+10 -3.620200e+10 4.145740e+08
2.049901e+10 2.492832e+09 8.047435e+08
2.521785e+10 2.481748e+10 -6.693262e+08
2.586723e+10 1.350725e+10 -2.308827e+08
-1.496588e+10 -1.347197e+10 1.741473e+09
-2.872614e+09 2.910753e+10 -2.188125e+09
2.621135e+10 -9.392909e+09 9.705355e+08
1.393237e+10 1.579631e+10 -5.918920e+08
-1.696766e+10 1.037211e+10 1.730607e+09
-3.010942e+10 -8.939306e+09 1.543033e+09
-1.979323e+10 -9.313377e+09 3.937806e+08
1.312909e+10 -1.834840e+10 -6.486850e+07
7.931018e+09 -2.166805e+10 8.559675e+08
-9.286612e+09 -2.631102e+10 -1.027421e+08
4.670814e+09 2.370766e+10 -9.203688e+06
2.037565e+10 -2.001032e+10 -1.761148e+09
-1.228991e+10 -3.250428e+10 3.515577e+08
1.930725e+09 2.242763e+10 -1.327030e+09
-5.809479e+09 2.875975e+10 -1.493259e+09
-1.632424e+10 1.468766e+10 -7.736692e+08
4.268304e+09 2.102754e+10 -7.829730e+06
-1.868959e+10 -8.334677e+09 1.472249e+08
-1.608361e+10 -2.588387e+10 -1.191423e+09
-1.980136e+10 -1.206401e+10 1.784264e+09
2.097475e+10 1.928345e+10 -1.387692e+08
2.430534e+10 -2.350953e+10 -1.881770e+09
-1.893518e+10 -1.395975e+10 1.158172e+08
-1.172571e+10 -2.533509e+10 9.394773e+08
-1.681831e+09 -2.741115e+10 -5.665930e+08
1.146578e+09 -2.079580e+10 -1.549888e+08
-2.357546e+10 1.552074e+10 1.964729e+08
-2.438224e+10 -2.427431e+10 2.178859e+09
2.701253e+10 -1.477709e+10 -1.664804e+07
2.691282e+10 -1.213873e+10 3.870397e+08
1.781021e+10 -5.908736e+09 -8.041563e+08
-1.498565e+10 1.316686e+10 1.461158e+08
-1.571316e+10 1.127660e+10 1.351776e+09
-1.319728e+10 1.899955e+10 -8.081881e+08
-1.133709e+10 2.267891e+10 -4.105447e+08
1.760519e+10 1.296152e+10 4.068805e+08
-1.293974e+10 -2.592277e+10 -3.751674e+09
-2.135924e+10 1.199911e+10 6.250811e+08
6.915474e+09 -1.853403e+10 -3.579127e+08
2.679595e+09 -2.954679e+10 -1.827291e+08
-6.271380e+09 2.115712e+10 1.546722e+08
7.720259e+09 -2.184214e+10 1.304760e+09
-2.332709e+10 7.594051e+09 7.798717e+08
1.026953e+10 2.967958e+10 1.426080e+09
-2.299915e+10 -8.699083e+09 -7.809846e+08
2.816408e+10 1.168657e+10 1.776976e+09
-2.197525e+10 2.657808e+09 4.191825e+09
-8.857496e+09 -1.760411e+10 -4.461570e+08
-2.701258e+10 1.512472e+10 -1.485317e+08
3.760464e+09 -1.990250e+10 1.036435e+09
2.149955e+10 2.822782e+09 -4.174091e+09
1.652851e+10 1.273955e+10 -2.872134e+08
2.064978e+10 -2.291796e+10 1.185151e+09
2.671801e+10 1.707968e+10 -3.564943e+08
7.782975e+09 2.746816e+10 -1.418348e+09
5.541578e+09 1.813583e+10 -4.865480e+08
2.452188e+10 6.846834e+09 4.738373e+08
2.098428e+10 1.337789e+10 3.551912e+09
-1.190530e+10 -2.085966e+10 -3.630792e+09
-2.003178e+10 1.020844e+10 9.966470e+08
-3.025414e+10 -4.178350e+09 -3.239802e+08
-2.556585e+10 -1.252654e+10 5.446518e+08
-3.167078e+10 -4.497456e+08 -5.430893e+08
1.976348e+10 -1.926463e+09 3.432084e+08
-3.983609e+09 -2.189081e+10 1.606785e+09
-2.840656e+10 1.929710e+10 -8.654012e+08
-3.330077e+10 -9.402786e+08 1.802822e+07
-7.996234e+09 2.316410e+10 -2.881858e+09
-2.393236e+10 -4.545071e+07 2.652304e+08
2.672781e+10 1.562068e+10 -8.091935e+08
-2.750513e+10 1.327913e+10 -1.688511e+09
2.494440e+10 8.170422e+09 -5.251530e+08
2.429846e+10 -1.516336e+10 -3.154665e+08
-3.025385e+10 3.222456e+09 -5.157324e+08
-2.560260e+10 8.973771e+08 1.282826e+09
1.218912e+10 2.172592e+10 -3.487018e+08
-2.896937e+10 1.311046e+10 -6.044483e+08
-1.507978e+10 -1.681571e+10 9.127110e+08
1.765043e+10 3.321386e+10 -3.354953e+08
-2.981909e+10 1.231882e+10 -8.231552e+08
2.085227e+10 5.242842e+09 -1.731806e+08
-2.795997e+10 1.146994e+10 -1.242389e+09
-5.692636e+09 3.402944e+10 7.566014e+08
1.001296e+10 -2.562369e+10 4.753144e+08
-1.833043e+10 1.109228e+10 -1.627006e+08
7.662568e+08 -1.967548e+10 1.929596e+08
2.439635e+10 -1.749420e+10 -2.954008e+08
6.211953e+09 2.625014e+10 -3.200316e+07
3.508634e+10 7.562304e+09 3.999794e+08
-5.630109e+09 -2.508738e+10 -1.043364e+09
-7.443158e+09 -1.640896e+10 -1.080961e+09
1.589071e+10 1.724798e+10 -5.527862e+08
-2.287467e+10 5.353083e+09 -2.328561e+08
-2.776899e+10 -1.838561e+10 8.807930e+08
1.910914e+10 6.501674e+09 -7.312301e+08
1.688446e+10 9.475516e+09 1.319051e+08
-1.530309e+10 2.603217e+10 7.973084e+08
2.241639e+09 -2.057844e+10 -6.978339e+05
-8.155854e+08 -2.565542e+10 3.005180e+08
-3.750239e+09 -1.882454e+10 -2.064399e+08
-8.538133e+09 2.721649e+10 1.006787e+08
8.109527e+09 -2.850833e+10 3.623890e+08
1.339017e+10 -2.502599e+10 -1.165540e+09
-1.796679e+10 6.614976e+09 -5.273056e+08
-5.370519e+09 3.098256e+10 5.842238e+08
-2.714004e+10 -1.200707e+09 5.790809e+07
4.113115e+09 2.880382e+10 4.806775e+08
7.076785e+09 -2.489087e+10 -1.458295e+08
2.647490e+10 9.280496e+09 -6.586719e+08
1.899289e+10 -2.961642e+10 1.419204e+09
-9.463840e+09 -2.268881e+10 2.949714e+09
1.728421e+09 3.384939e+10 -4.383807e+08
-3.350371e+10 2.788515e+09 1.397370e+08
1.882433e+10 8.632636e+09 -4.169837e+08
-2.012230e+10 5.587495e+09 -2.910405e+08
-1.494281e+10 -2.087644e+10 1.869506e+08
-5.837986e+08 2.988744e+10 -9.871232e+08
2.851376e+09 2.592823e+10 -6.320794e+08
-2.249925e+10 -2.600925e+09 6.176837e+08
8.874966e+09 -2.885476e+10 2.149798e+08
3.171568e+10 2.456642e+10 -1.703215e+09
2.930611e+10 6.267477e+09 -1.122586e+09
1.382068e+10 -2.220362e+10 5.208808e+06
2.355886e+10 -1.031663e+10 4.819954e+07
1.947426e+10 -9.730064e+09 1.140543e+08
-1.891490e+10 4.747893e+09 -5.552667e+08
1.464999e+10 1.759446e+10 2.509109e+08
1.809650e+10 -9.473081e+09 -8.355451e+07
-2.341488e+10 -1.813471e+10 3.254470e+08
2.073710e+10 5.430024e+09 -2.645992e+08
9.980217e+09 -2.062714e+10 1.291243e+09
-1.275103e+10 -1.517495e+10 -4.936917e+08
1.982355e+10 1.818680e+10 1.272717e+09
1.693840e+10 -2.815056e+10 -7.511442e+08
2.240531e+10 -4.228205e+09 9.677001e+07
-1.116979e+10 2.654658e+10 -3.592965e+09
-1.785841e+10 2.409082e+09 -8.594274e+08
2.618084e+10 3.267401e+10 -1.186873e+09
-3.560515e+10 2.053452e+10 1.501721e+08
-2.525521e+10 1.903236e+10 1.614078e+09
-2.903935e+10 -1.290521e+10 -6.118395e+08
-2.993803e+10 7.752072e+09 6.525844e+08
-1.249011e+10 2.251265e+10 -8.757166e+08
-1.003139e+10 1.778491e+10 -2.843235e+08