# vtk DataFile Version 2.0
Electric current density generated by TTH
ASCII
DATASET UNSTRUCTURED_GRID
POINTS 2058 double
2.549598e-05 -6.244714e-21 -3.688710e-22
2.409839e-05 8.325424e-06 -3.688710e-22
-2.215827e-05 -1.261174e-05 -3.688710e-22
-1.896502e-05 1.665767e-05 -8.372142e-07
-9.379116e-06 -2.079920e-05 9.435116e-07
-2.419857e-05 -2.779714e-06 -1.460441e-06
2.168726e-05 1.055445e-05 1.500477e-06
-2.027329e-05 9.964317e-06 5.544210e-07
6.169622e-06 -2.308244e-05 -1.502890e-06
2.166927e-05 8.744075e-06 -1.371148e-06
-1.846157e-05 -1.341087e-05 9.464056e-07
2.339363e-05 5.746182e-06 -1.502769e-06
-1.433490e-05 -2.070601e-05 -9.179557e-07
-2.167712e-05 -1.342190e-05 -3.688710e-22
2.135658e-05 -8.327238e-06 -1.062510e-06
4.399325e-06 2.328631e-05 -1.477508e-06
-2.992097e-06 2.502409e-05 8.934415e-07
-1.538101e-05 -1.658539e-05 -6.249357e-07
-2.092073e-05 1.126992e-05 -1.488857e-06
-2.370232e-05 -8.669478e-06 -8.428120e-07
-7.793384e-06 -2.393497e-05 -9.334616e-07
1.987802e-06 2.515724e-05 -8.463783e-07
-4.464277e-06 2.363196e-05 -1.504835e-06
2.407237e-05 3.969228e-06 -1.449863e-06
-2.116636e-05 -1.421374e-05 -3.688710e-22
1.308044e-05 1.999541e-05 1.502959e-06
-2.237046e-05 2.342449e-06 1.630443e-07
1.784259e-05 -1.553199e-05 -1.468511e-06
1.541711e-05 -1.804091e-05 1.483606e-06
-2.053661e-06 -2.379501e-05 1.502261e-06
1.915307e-05 -1.485768e-05 -1.485081e-06
-1.543818e-05 -1.703021e-05 1.122772e-06
-2.300842e-05 7.525025e-06 1.490203e-06
-1.620152e-05 -1.933329e-05 8.628466e-07
-2.379318e-05 -5.928878e-07 -1.494075e-06
-2.062668e-05 -1.498616e-05 -3.688710e-22
2.377411e-05 -8.702764e-06 -7.122277e-07
-2.302513e-05 -6.521213e-06 1.504868e-06
1.943860e-05 1.398490e-05 -1.505404e-06
-1.886887e-05 1.272429e-05 -8.667434e-07
1.946632e-05 -1.392985e-05 1.505098e-06
2.126035e-05 -1.105948e-05 -1.505821e-06
-2.089501e-05 9.292364e-06 1.004762e-06
-1.948287e-05 1.526818e-05 1.298552e-06
-1.117335e-06 -2.401925e-05 -1.505016e-06
-1.723257e-06 2.518068e-05 -8.405774e-07
-2.005883e-05 -1.573811e-05 -3.688710e-22
1.233214e-05 -1.917653e-05 -9.225840e-07
-2.223637e-05 8.280764e-06 1.483109e-06
-6.866341e-06 -2.306924e-05 1.503932e-06
-1.774402e-05 -1.800031e-05 -7.841847e-07
8.375362e-07 2.369448e-05 -1.479646e-06
-2.175179e-05 9.605520e-06 -1.491081e-06
-4.672169e-06 2.273582e-05 1.288890e-06
-1.732265e-05 -1.543422e-05 -1.282884e-06
1.500437e-06 -2.349322e-05 -1.437584e-06
6.297316e-06 2.163226e-05 3.705561e-07
-1.946359e-05 -1.646857e-05 -3.688710e-22
-2.524060e-05 -4.664983e-07 8.325876e-07
-2.503409e-05 3.256588e-06 8.324249e-07
-2.004565e-05 -1.022932e-05 -2.500825e-07
-1.175857e-05 2.050894e-05 1.464964e-06
2.216739e-05 -9.066802e-06 1.505499e-06
3.587001e-06 2.402273e-05 -1.476030e-06
2.287702e-05 -7.488920e-06 -1.503815e-06
-1.967376e-05 -1.332207e-05 -1.488361e-06
-2.222117e-05 -9.659177e-06 -1.486819e-06
2.302605e-05 -8.904808e-07 1.171285e-06
-1.884176e-05 -1.717653e-05 -3.688710e-22
-4.544126e-06 -2.483880e-05 -8.232690e-07
2.305910e-05 -1.020363e-05 8.748945e-07
8.790770e-06 -2.081604e-05 -5.704257e-07
2.213490e-05 1.212978e-05 8.391201e-07
-2.451089e-05 -6.062638e-06 -8.255714e-07
2.208341e-05 -4.591899e-06 -4.596132e-07
1.306992e-05 1.841485e-05 5.336090e-07
-1.633276e-05 -1.788965e-05 -1.487744e-06
-1.836363e-05 1.737276e-05 -7.785088e-07
-2.475886e-05 5.103460e-06 -7.781538e-07
-1.819419e-05 -1.786103e-05 -3.688710e-22
1.330811e-05 -2.149334e-05 -7.774050e-07
-2.322688e-07 -2.269306e-05 7.676416e-07
-2.479910e-05 -4.468160e-06 -8.987505e-07
-2.956114e-06 -2.410093e-05 -1.477532e-06
2.431861e-05 -2.095446e-06 1.446635e-06
-2.327836e-05 -4.073692e-06 -1.462902e-06
-1.359174e-05 -1.978515e-05 -1.505966e-06
1.902206e-05 -1.662567e-05 -8.036441e-07
-1.496235e-05 -1.904562e-05 -1.488358e-06
-2.012396e-05 1.525196e-05 -8.238504e-07
-1.752177e-05 -1.852114e-05 -3.688710e-22
-1.879942e-05 1.681371e-05 8.669803e-07
1.632760e-05 1.927248e-05 -8.108880e-07
-7.410597e-06 2.310845e-05 1.480212e-06
1.829715e-05 -1.339619e-05 -7.376514e-07
1.634422e-05 -1.803885e-05 1.464301e-06
2.197564e-05 5.482083e-06 -6.857491e-07
-2.401927e-05 -7.804334e-06 8.166252e-07
2.126429e-05 -1.363920e-05 8.053246e-07
-2.013714e-05 -1.304169e-05 1.506029e-06
-2.108752e-05 -1.144144e-05 1.506029e-06
-1.682542e-05 -1.915594e-05 -3.688710e-22
-1.635866e-05 -1.925786e-05 -7.967246e-07
2.410104e-05 7.170439e-06 9.663219e-07
-2.084686e-05 -1.241478e-05 -1.480975e-06
2.213961e-05 5.767760e-06 1.016358e-06
-2.085846e-05 8.459474e-06 -2.716293e-07
2.072412e-05 8.721229e-06 -3.867864e-08
4.180355e-06 2.248557e-05 -1.007855e-06
-1.489197e-05 2.041869e-05 7.896045e-07
-1.143915e-05 -2.085283e-05 1.491928e-06
3.403831e-06 -2.305928e-05 -1.343368e-06
2.377429e-05 9.210210e-06 -3.688710e-22
-1.610609e-05 -1.976458e-05 -3.688710e-22
-1.713626e-05 1.857164e-05 -7.939710e-07
2.293325e-05 2.396781e-06 -1.183166e-06
-2.075506e-05 1.436700e-05 -8.362311e-07
-1.408420e-05 2.097345e-05 -8.036798e-07
1.972166e-05 -1.343371e-05 -1.500609e-06
8.275566e-06 -2.115018e-05 7.961529e-07
2.246577e-05 -1.993476e-06 -4.541970e-07
9.103500e-07 -2.378521e-05 1.494334e-06
-1.621011e-05 -1.610726e-05 9.864428e-07
5.678515e-07 2.424781e-05 1.482620e-06
-1.536476e-05 -2.034623e-05 -3.688710e-22
-6.495811e-06 -2.442824e-05 7.818100e-07
2.335517e-05 -3.207402e-06 -1.447559e-06
2.543740e-06 2.314830e-05 -1.332251e-06
-2.109939e-05 -1.295379e-05 1.295146e-06
1.889908e-05 1.675620e-05 8.131635e-07
-8.678156e-06 2.113495e-05 9.809921e-07
-2.523057e-05 -1.400214e-06 -7.944553e-07
-2.512488e-05 2.533098e-06 -8.214099e-07
-2.375945e-05 -1.422138e-06 -1.494253e-06
-1.793214e-05 1.431985e-05 1.087601e-06
-1.460244e-05 -2.090009e-05 -3.688710e-22
-1.469103e-05 -1.705691e-05 2.865532e-07
1.471962e-05 -2.049722e-05 8.473981e-07
2.076002e-05 -1.446852e-05 -7.349446e-07
-2.156234e-05 1.073878e-05 1.502802e-06
-8.679197e-06 -2.367856e-05 -8.702454e-07
7.854100e-06 -2.276279e-05 -1.503354e-06
-2.058603e-05 -9.925889e-06 9.888756e-07
-1.409998e-05 -2.099695e-05 7.569696e-07
1.963477e-05 -1.298481e-05 1.437229e-06
2.118507e-05 1.375941e-05 8.074810e-07
-1.382018e-05 -2.142540e-05 -3.688710e-22
-2.100848e-05 -1.393661e-05 -8.818219e-07
1.109414e-05 -1.969353e-05 -5.879593e-07
-2.338610e-05 9.603859e-06 -7.749569e-07
1.476431e-05 1.893970e-05 1.505830e-06
-1.816322e-05 -1.377295e-05 -9.162036e-07
-1.326387e-05 1.977266e-05 1.495170e-06
1.171639e-05 -2.144650e-05 -1.437772e-06
-1.710085e-05 1.459758e-05 -1.074149e-08
1.031780e-05 2.085865e-05 1.323354e-06
5.893242e-06 -2.178523e-05 4.969321e-07
-1.301904e-05 -2.192144e-05 -3.688710e-22
-1.233539e-05 -2.202447e-05 8.345633e-07
-1.068975e-05 1.990892e-05 5.731799e-07
2.303196e-05 8.384297e-07 1.174471e-06
1.016468e-05 -2.160715e-05 -1.501912e-06
-1.434681e-05 -1.964703e-05 1.467670e-06
-2.091689e-05 -8.979080e-06 -8.729104e-07
2.217862e-05 -6.154451e-06 -1.149308e-06
2.331944e-05 -5.707020e-06 1.505926e-06
-5.277510e-07 2.377331e-05 1.491207e-06
-2.067260e-05 1.230220e-05 1.504573e-06
-1.220012e-05 -2.238754e-05 -3.688710e-22
2.101172e-05 9.912662e-06 -1.301743e-06
2.067206e-05 1.234143e-05 -1.503580e-06
-2.274163e-05 -2.750607e-06 -1.046969e-06
1.242625e-05 -2.026037e-05 -1.489512e-06
-2.405463e-05 -1.296105e-06 1.502735e-06
-2.171264e-05 9.845277e-06 1.498594e-06
-2.251017e-05 -1.093549e-06 -3.952635e-07
4.542494e-06 -2.356052e-05 1.506024e-06
2.275123e-05 2.981839e-06 1.085303e-06
-1.000839e-05 -2.041491e-05 8.344640e-07
-1.136454e-05 -2.282307e-05 -3.688710e-22
7.543202e-06 2.144192e-05 8.251211e-07
5.561284e-06 -2.466555e-05 -7.692053e-07
1.921413e-05 -1.173921e-05 3.114465e-07
2.203928e-05 1.234405e-05 -8.082111e-07
1.247407e-05 -1.874976e-05 3.282183e-07
-2.433631e-05 6.924278e-06 7.389916e-07
-1.951077e-05 1.202500e-05 -1.058649e-06
1.625256e-05 -1.783403e-05 -1.499617e-06
-8.237429e-06 2.246599e-05 -1.504778e-06
2.246916e-05 -4.523391e-06 1.059831e-06
-1.051343e-05 -2.322742e-05 -3.688710e-22
-2.416532e-05 -7.236668e-06 -8.609541e-07
-2.182790e-05 -6.742803e-06 -9.791052e-07
2.068268e-05 1.453783e-05 -7.756808e-07
-2.365447e-05 5.313385e-06 -1.484468e-06
2.397829e-05 7.479701e-07 -1.506030e-06
9.759859e-06 -2.085273e-05 1.155205e-06
5.515356e-06 -2.459771e-05 8.850708e-07
-2.153138e-05 -6.899442e-06 6.027297e-07
5.167169e-06 2.473343e-05 -7.976294e-07
-2.215024e-05 3.911702e-06 1.650342e-07
-9.647961e-06 -2.360004e-05 -3.688710e-22
4.472169e-06 -2.219673e-05 -6.732217e-07
4.219983e-06 -2.278814e-05 -1.266859e-06
-7.240204e-06 -2.150064e-05 7.552158e-07
-7.766866e-06 -2.198199e-05 1.345703e-06
1.480985e-05 -1.873247e-05 -1.501985e-06
-5.908578e-06 -2.364437e-05 -1.456911e-06
1.772988e-05 1.625725e-05 -1.504621e-06
2.065669e-05 1.163725e-05 1.479623e-06
1.668729e-05 -1.701566e-05 -1.497800e-06
-1.866330e-05 1.576911e-05 -1.439310e-06
-8.769315e-06 -2.394043e-05 -3.688710e-22
1.508129e-05 1.679881e-05 -5.166887e-07
1.633746e-05 1.930863e-05 7.551081e-07
-2.247888e-05 6.364980e-06 -1.369164e-06
2.064556e-05 1.456126e-05 8.030735e-07
5.057461e-06 2.288358e-05 1.400368e-06
-2.614453e-06 2.408335e-05 -1.487599e-06
1.381816e-05 -1.910643e-05 -1.449046e-06
-2.263681e-05 -1.129394e-05 7.467758e-07
-2.074897e-05 -1.447268e-05 7.467758e-07
2.432756e-05 -6.921788e-06 7.549175e-07
2.341773e-05 1.008242e-05 -3.688710e-22
-7.878691e-06 -2.424812e-05 -3.688710e-22
7.963545e-06 2.102819e-05 7.148646e-08
-2.207253e-05 6.373204e-06 1.111935e-06
1.893834e-05 1.535943e-05 -1.453601e-06
2.223009e-05 -3.931017e-06 -5.157498e-07
7.257372e-06 -2.142919e-05 -6.358982e-07
-2.375115e-05 8.699982e-06 7.526828e-07
1.528009e-05 1.781288e-05 -1.412949e-06
2.309316e-05 7.311571e-07 -1.218404e-06
1.788575e-05 -1.780977e-05 -8.390449e-07
8.741616e-06 2.077049e-05 3.891319e-07
-6.977306e-06 -2.452269e-05 -3.688710e-22
-1.347990e-05 1.805511e-05 3.778092e-07
-1.000387e-05 -2.323528e-05 7.475556e-07
-1.129731e-05 -2.035844e-05 -1.329761e-06
1.987185e-05 -1.197663e-05 -1.283423e-06
7.884509e-06 2.395720e-05 8.671577e-07
-1.254981e-06 2.433605e-05 1.457707e-06
[...]
POINT_DATA 2058
VECTORS 10.000GHz_fone_imag double
-7.462786e-05 -3.049319e-04 1.800822e-02
2.632512e-05 6.526315e-05 1.785047e-02
-4.938301e-04 -1.004828e-03 1.760765e-02
-7.990923e-03 7.178869e-03 1.509990e-02
6.710806e-03 1.532436e-02 -2.114493e-02
-1.919530e-02 -1.953060e-03 5.337969e-03
-1.942779e-02 -9.707562e-03 1.101488e-03
9.419798e-03 -4.622283e-03 -2.519607e-02
5.994222e-03 -2.276221e-02 -2.321884e-03
2.059636e-02 7.847104e-03 -1.127158e-02
1.319802e-02 9.497430e-03 -2.150331e-02
2.157418e-02 5.168735e-03 2.562898e-04
-6.718986e-03 -8.372495e-03 1.460112e-02
-4.734515e-04 -9.482390e-05 1.777720e-02
1.605142e-02 -6.565400e-03 -1.835447e-02
3.888731e-03 2.229543e-02 -5.209496e-03
5.495317e-04 -1.092449e-02 1.468587e-02
-7.239673e-03 -7.997218e-03 -2.550639e-02
-2.068524e-02 1.101771e-02 -4.049404e-03
-1.029789e-02 -4.141595e-03 1.531772e-02
-4.012374e-03 -1.124187e-02 1.447753e-02
8.269071e-04 1.083348e-02 1.510408e-02
-4.295394e-03 2.223334e-02 1.103540e-04
1.969819e-02 2.706209e-03 5.662929e-03
-1.022309e-04 -3.506782e-04 1.793614e-02
-1.200389e-02 -1.913834e-02 -2.706166e-03
3.145935e-03 -1.214553e-04 -2.803462e-02
1.710313e-02 -1.495909e-02 -6.620319e-03
-1.539590e-02 1.744176e-02 -5.250058e-03
2.257966e-03 2.251444e-02 -2.863525e-03
1.724526e-02 -1.277512e-02 2.843752e-03
1.221410e-02 1.436059e-02 -1.776091e-02
2.048710e-02 -6.857462e-03 2.420015e-03
6.458664e-03 8.252091e-03 1.557357e-02
-2.274789e-02 -3.978782e-04 -4.048920e-03
-9.705979e-05 6.464169e-05 1.776726e-02
8.451980e-03 -3.004223e-03 1.641616e-02
2.193807e-02 6.367398e-03 -1.485903e-03
1.851181e-02 1.311809e-02 -1.906776e-03
-1.338076e-02 8.704691e-03 -2.229410e-02
-1.836585e-02 1.328391e-02 -1.945146e-03
2.028832e-02 -1.085293e-02 -1.343455e-03
1.579055e-02 -7.142014e-03 -1.990640e-02
1.436231e-02 -1.155416e-02 9.227505e-03
-6.370382e-04 -2.209119e-02 8.722398e-04
-1.130838e-03 1.036269e-02 1.550913e-02
7.200391e-05 -1.526482e-04 1.773931e-02
8.337277e-03 -1.337849e-02 -2.184720e-02
2.121757e-02 -7.953913e-03 -4.837230e-03
6.281292e-03 2.162540e-02 1.856244e-04
-7.402064e-03 -7.245791e-03 1.564687e-02
6.443286e-04 2.294192e-02 -5.235297e-03
-2.099880e-02 9.350765e-03 -4.623675e-03
5.156624e-03 -2.047298e-02 -1.367495e-02
-1.585430e-02 -1.357452e-02 -1.417376e-02
1.164059e-03 -2.263211e-02 -7.956609e-03
-2.130360e-03 -7.195676e-03 -2.659347e-02
1.304973e-04 -9.698936e-05 1.780971e-02
1.018162e-02 1.660701e-04 1.573043e-02
1.063758e-02 -1.573254e-03 1.535109e-02
-3.402565e-03 -1.548266e-03 -2.813212e-02
1.102764e-02 -2.016491e-02 -6.520137e-03
-2.115314e-02 7.765234e-03 -1.110644e-03
3.111079e-03 2.089932e-02 3.386117e-03
2.106242e-02 -7.793004e-03 -3.809970e-04
-1.906833e-02 -1.248272e-02 -5.207787e-03
-1.999233e-02 -8.658969e-03 2.668151e-03
-2.060507e-02 2.930497e-04 -1.637590e-02
2.381270e-04 3.777652e-04 1.769661e-02
-2.089334e-03 -1.089842e-02 1.519731e-02
-9.606223e-03 5.207360e-03 1.502960e-02
3.667761e-03 -9.398103e-03 -2.622483e-02
-9.951735e-03 -5.519554e-03 1.563742e-02
-1.086258e-02 -2.350014e-03 1.543081e-02
8.013587e-03 -1.235029e-03 -2.644699e-02
-5.962341e-03 -8.436419e-03 -2.541151e-02
-1.431726e-02 -1.618693e-02 2.597999e-03
-7.227663e-03 6.796378e-03 1.583684e-02
-1.034679e-02 2.189165e-03 1.538788e-02
2.137469e-04 3.463607e-04 1.775226e-02
5.406872e-03 -8.874796e-03 1.547645e-02
8.625047e-04 1.420995e-02 -2.341467e-02
-1.108891e-02 -2.382077e-03 1.478522e-02
-1.999358e-03 -2.132655e-02 3.443736e-03
-2.033124e-02 1.588471e-03 5.274804e-03
-2.244356e-02 -3.606264e-03 -6.243126e-03
-1.269912e-02 -1.842709e-02 -6.758720e-04
7.507445e-03 -6.727468e-03 1.540140e-02
-1.274184e-02 -1.700208e-02 3.464838e-03
-9.044241e-03 6.939782e-03 1.522203e-02
-1.618399e-04 2.337169e-04 1.806225e-02
8.250760e-03 -7.342685e-03 1.491504e-02
6.634921e-03 9.019766e-03 1.496564e-02
6.305734e-03 -2.020023e-02 2.902954e-03
1.018694e-02 -7.803634e-03 -2.458708e-02
-1.413010e-02 1.530052e-02 5.093390e-03
1.190903e-02 3.009043e-03 -2.446512e-02
1.019110e-02 4.016615e-03 1.439819e-02
-9.440866e-03 5.627744e-03 1.506222e-02
1.886581e-02 1.213400e-02 -8.053899e-04
1.988814e-02 1.104004e-02 -8.563762e-04
-2.639982e-05 3.473527e-05 1.794159e-02
-6.581707e-03 -6.685063e-03 1.501628e-02
-1.209771e-02 -3.820966e-03 1.425296e-02
-1.848363e-02 -1.037104e-02 3.577348e-03
-1.652905e-02 -4.218053e-03 -2.017881e-02
-5.187065e-03 2.008899e-03 -2.776666e-02
4.957990e-04 -9.917453e-06 -2.778836e-02
3.118619e-03 1.722646e-02 -1.999672e-02
6.093251e-03 -8.101972e-03 1.523772e-02
1.106336e-02 1.972745e-02 -3.445638e-03
3.109225e-03 -2.225640e-02 -1.141417e-02
7.020772e-05 4.618822e-05 1.802460e-02
-1.036400e-03 -3.386946e-04 1.815306e-02
-7.282734e-03 7.657506e-03 1.537470e-02
1.981607e-02 2.288808e-03 -1.692449e-02
-9.343451e-03 6.976869e-03 1.475572e-02
-5.595211e-03 8.721689e-03 1.572292e-02
1.831118e-02 -1.335903e-02 -3.749358e-03
-5.245754e-03 1.303444e-02 -2.320984e-02
8.031678e-03 -5.000080e-04 -2.673646e-02
-1.092982e-03 2.190776e-02 -3.655267e-03
1.218673e-02 1.127404e-02 -2.071161e-02
-6.611051e-04 -2.151427e-02 2.874050e-03
4.007417e-04 -1.313686e-03 1.757863e-02
1.650239e-03 9.413023e-03 1.563077e-02
2.275618e-02 -2.925498e-03 -7.804135e-03
3.300278e-03 2.120958e-02 -1.146317e-02
1.489747e-02 9.171068e-03 9.626938e-03
-8.308481e-03 -6.295836e-03 1.521428e-02
6.118448e-03 -1.560460e-02 -2.036093e-02
-1.020776e-02 -6.295814e-04 1.543652e-02
-1.060258e-02 8.095888e-04 1.518500e-02
-2.271486e-02 -1.484956e-03 -4.049017e-03
1.423870e-02 -1.090721e-02 -1.737519e-02
-5.838166e-04 6.734256e-05 1.780643e-02
3.257836e-03 4.298027e-03 -2.790711e-02
-6.842014e-03 8.709475e-03 1.499601e-02
7.873725e-03 -5.447185e-03 1.585510e-02
1.966727e-02 -1.046257e-02 7.977326e-04
-3.430782e-03 -1.110667e-02 1.518413e-02
6.141533e-03 -1.980487e-02 -1.930928e-04
1.509297e-02 7.257755e-03 -2.088022e-02
5.629585e-03 8.060080e-03 1.630618e-02
-1.906947e-02 1.213606e-02 -8.639728e-03
-8.681804e-03 -6.234484e-03 1.528762e-02
-3.030959e-04 -3.770082e-04 1.835558e-02
-9.818556e-03 -5.961042e-03 1.460678e-02
5.530542e-03 -7.960166e-03 -2.549270e-02
-9.334485e-03 3.676403e-03 1.567960e-02
-1.363698e-02 -1.783070e-02 -3.490840e-04
-1.219161e-02 -1.008898e-02 -2.149502e-02
1.291995e-02 -1.902584e-02 -4.388877e-03
1.001892e-02 -1.798924e-02 5.566424e-03
-1.436295e-04 1.143240e-03 -2.828656e-02
-9.239263e-03 -1.919066e-02 -1.322626e-02
-2.741381e-03 8.980301e-03 -2.513212e-02
2.921162e-04 -2.539879e-04 1.828558e-02
6.004668e-03 1.003942e-02 1.557565e-02
5.029844e-03 -9.794717e-03 -2.588507e-02
-1.977194e-02 -3.989873e-04 -1.691510e-02
9.494024e-03 -2.076396e-02 -2.954852e-03
1.252262e-02 1.693199e-02 3.828515e-03
-1.341200e-02 -5.568674e-03 -2.228345e-02
1.707591e-02 -5.846049e-03 -1.804412e-02
-2.146814e-02 5.174178e-03 -1.105296e-03
5.138906e-04 -2.279509e-02 -4.297890e-03
1.909972e-02 -1.174870e-02 -2.849238e-04
2.010308e-04 -8.842609e-05 1.880233e-02
1.915541e-02 9.252061e-03 -1.408594e-02
1.856661e-02 1.038102e-02 7.728266e-04
-1.857038e-02 -1.888459e-03 -1.954122e-02
1.197717e-02 -1.947385e-02 -4.601894e-03
2.228484e-02 8.070751e-04 7.182403e-05
2.066714e-02 -9.032294e-03 -3.774384e-03
-7.061176e-03 1.916379e-04 -2.702540e-02
-4.979647e-03 2.129605e-02 -5.966117e-04
-1.682636e-02 -3.585091e-03 -1.854856e-02
6.609806e-03 1.333628e-02 -2.305598e-02
1.226776e-03 2.170508e-04 1.838254e-02
-4.881485e-03 -1.412721e-02 -2.310988e-02
2.005851e-03 -9.602213e-03 1.559192e-02
-4.514142e-03 3.069903e-03 -2.741306e-02
9.742177e-03 4.983663e-03 1.534288e-02
-3.036582e-03 3.988856e-03 -2.778373e-02
9.330152e-03 -3.215478e-03 1.558827e-02
-1.537638e-02 1.017427e-02 -1.884205e-02
1.477745e-02 -1.647392e-02 1.482985e-03
-7.571519e-03 2.135830e-02 -2.642512e-03
-1.782589e-02 3.379601e-03 -1.898153e-02
1.578732e-04 1.260923e-03 1.883725e-02
-1.107514e-02 -3.487745e-03 1.572642e-02
-1.582114e-02 -5.462944e-03 -2.036019e-02
7.774090e-03 5.890475e-03 1.555379e-02
-2.078145e-02 4.552584e-03 2.833114e-03
2.234507e-02 6.367748e-04 -9.846499e-04
-8.197881e-03 1.740694e-02 -1.728141e-02
-2.573592e-03 1.089519e-02 1.507970e-02
1.003448e-02 3.074724e-03 -2.578327e-02
2.203652e-03 1.016043e-02 1.530391e-02
2.115820e-03 3.687890e-04 -2.780393e-02
-1.117980e-04 5.246955e-04 1.869095e-02
3.112761e-03 -1.146274e-02 -2.480516e-02
2.923234e-03 -2.048043e-02 -1.456189e-02
4.760668e-03 1.293941e-02 -2.336653e-02
7.528663e-03 2.043046e-02 -1.199724e-02
1.377788e-02 -1.799062e-02 -1.446921e-03
-4.766972e-03 -2.054080e-02 5.018726e-03
1.650400e-02 1.477719e-02 4.395949e-04
-1.813706e-02 -1.026599e-02 -6.248456e-03
1.635565e-02 -1.677258e-02 -2.990351e-03
-1.538111e-02 1.293052e-02 5.776094e-03
4.780087e-05 6.829864e-04 1.834770e-02
5.883916e-03 7.331939e-03 -2.645726e-02
-6.588387e-03 -7.596188e-03 1.626534e-02
-2.118651e-02 5.711414e-03 -1.148724e-02
-8.680799e-03 -5.934474e-03 1.526438e-02
-5.019916e-03 -2.135378e-02 -1.046432e-02
-2.741380e-03 2.162121e-02 2.367155e-03
1.379888e-02 -1.778289e-02 -7.426131e-03
8.870110e-03 4.410366e-03 1.587658e-02
8.015891e-03 5.802635e-03 1.561897e-02
-9.838994e-03 2.584641e-03 1.417536e-02
-2.724365e-04 6.304948e-05 1.802871e-02
-3.289080e-04 -8.387588e-05 1.787365e-02
-9.875917e-04 -1.417787e-03 -2.791789e-02
1.734487e-02 -5.323235e-03 -1.871404e-02
1.623841e-02 1.302795e-02 4.538475e-03
9.462745e-03 -1.854309e-03 -2.565981e-02
4.448754e-03 -1.117562e-02 -2.502678e-02
9.067567e-03 -3.211486e-03 1.542329e-02
1.488275e-02 1.784137e-02 -8.179759e-03
2.020244e-02 4.829246e-04 -1.563729e-02
6.807054e-03 -7.659386e-03 1.537638e-02
-2.463480e-03 -6.186519e-03 -2.680280e-02
5.208713e-05 -8.045433e-05 1.770436e-02
2.917772e-03 -6.218204e-03 -2.706981e-02
4.258448e-03 9.134847e-03 1.424168e-02
-1.128936e-02 -1.849365e-02 -1.080341e-02
1.797783e-02 -1.070742e-02 -1.397778e-02
-3.627044e-03 -1.085631e-02 1.472743e-02
1.288299e-03 -2.114229e-02 4.577926e-03
1.892828e-02 -7.470274e-03 4.890494e-03
-9.815986e-03 -2.029246e-04 1.563255e-02
-1.633186e-02 1.112131e-02 3.403515e-03
1.937574e-03 -9.205548e-03 -2.658191e-02
8.621293e-05 3.914802e-04 1.641762e-02
1.093058e-03 -9.717687e-03 1.600111e-02
6.809340e-03 6.678178e-03 1.552240e-02
1.617757e-02 1.395366e-02 3.998507e-03
-4.393312e-03 -2.081865e-02 3.552335e-03
-2.123037e-02 3.217664e-03 2.559086e-03
-5.443995e-03 1.720788e-02 -1.919388e-02
-7.363263e-03 -5.480941e-03 1.579557e-02
-6.726834e-04 3.723867e-03 -2.784263e-02
1.524197e-02 1.473239e-02 2.987320e-03
6.507118e-03 1.222950e-02 -2.338089e-02
-4.184451e-05 -1.627598e-04 1.699870e-02
-3.811558e-03 -7.026771e-03 -2.641373e-02
1.059576e-02 1.859262e-02 2.110055e-03
-5.781457e-05 1.208042e-02 1.499479e-02
4.777030e-03 -1.518515e-02 -2.150064e-02
-4.448624e-03 -1.984094e-02 -1.638935e-02
8.019429e-03 -6.050128e-03 -2.536476e-02
1.093804e-03 -4.761702e-03 -2.646269e-02
-2.134406e-02 -5.197564e-03 -2.276767e-03
-5.452186e-04 -6.726665e-03 -2.770803e-02
2.909596e-03 9.518808e-03 1.539107e-02
5.081590e-04 -8.888899e-05 1.791190e-02
-6.825763e-03 6.413352e-03 1.568665e-02
1.950463e-02 -1.104281e-02 -7.384179e-04
-5.848831e-03 1.467281e-02 -2.169825e-02
6.232892e-03 -2.230045e-03 -2.693237e-02
4.236493e-03 -1.009857e-02 1.598361e-02
8.628823e-03 1.874130e-02 4.133662e-03
1.284768e-02 -1.515912e-02 6.057690e-03
7.573605e-03 -4.447892e-03 1.559935e-02
-1.676891e-02 1.540928e-02 -2.058486e-03
9.422801e-03 3.114945e-03 1.558079e-02
-2.276849e-04 -5.242413e-05 1.814324e-02
-2.041779e-02 2.684741e-03 -1.498595e-02
1.340521e-02 -1.288951e-02 -1.837808e-02
-1.868845e-02 1.574953e-03 6.933326e-03
-5.323480e-03 -8.966615e-03 1.561138e-02
-2.039125e-02 3.800705e-04 -1.586428e-02
-1.690575e-02 -1.229449e-02 3.918458e-03
2.058694e-02 -1.084342e-02 -8.587133e-03
2.041388e-02 2.353980e-04 -1.374442e-02
5.396195e-03 -2.138073e-02 8.426725e-04
-5.155794e-05 -1.518597e-02 -2.128917e-02
-1.020859e-04 2.063015e-04 1.831864e-02
-3.377669e-03 8.780570e-03 1.589062e-02
7.301684e-03 5.919322e-03 1.616587e-02
1.232497e-02 1.837039e-02 1.081158e-03
1.568226e-03 1.125093e-02 -2.608387e-02
-1.709988e-02 1.455220e-02 7.126663e-04
8.816590e-03 -5.411697e-03 1.619029e-02
7.647885e-03 1.901504e-02 1.563228e-03
8.959700e-03 -3.866158e-03 1.537189e-02
-1.477528e-02 4.561904e-03 -2.234178e-02
-8.852878e-03 -3.990074e-03 1.572204e-02
-1.272843e-04 -4.565388e-04 1.921428e-02
1.218610e-03 -3.613026e-03 -2.792825e-02
-5.872973e-03 5.629850e-03 -2.669728e-02
1.017738e-02 1.103255e-03 1.553699e-02
-2.248878e-03 -1.014331e-02 1.549866e-02
-1.785306e-02 -1.145044e-02 3.594170e-03
3.945535e-03 -1.028286e-02 1.504959e-02
9.664717e-03 7.727177e-04 1.597535e-02
2.163193e-02 -8.846316e-05 1.342805e-03
-4.792387e-03 7.348768e-03 1.585501e-02
-1.260839e-02 2.006843e-02 -6.940403e-03
2.253411e-04 -3.951763e-04 1.820891e-02
-8.846469e-04 -1.936490e-02 -1.610199e-02
9.379277e-03 2.120109e-03 1.578227e-02
-1.874472e-03 -1.749438e-02 -1.774083e-02
1.483292e-02 1.690890e-02 -2.028657e-03
1.431080e-02 3.401742e-03 -2.298151e-02
-2.060892e-02 2.315522e-03 4.322504e-03
-4.669720e-03 -8.793137e-03 1.546680e-02
-1.289932e-02 1.606345e-02 5.185940e-03
1.933829e-02 2.144652e-03 -1.479338e-02
-8.516255e-03 2.041278e-02 1.042016e-03
-4.522423e-05 -3.622283e-04 1.846973e-02
6.591659e-03 7.220340e-03 1.590122e-02
1.940382e-02 1.094394e-02 -1.375597e-02
-1.869228e-03 9.244085e-03 1.572698e-02
1.474520e-02 -1.449106e-02 -1.557057e-02
-7.784893e-03 1.528497e-02 -2.038217e-02
-6.610167e-03 8.246989e-03 1.517345e-02
-2.259580e-02 -2.108885e-03 -6.090661e-03
-7.973317e-03 -2.035190e-02 -1.148702e-02
-1.426021e-02 1.131010e-02 5.676027e-03
-2.567375e-03 9.724840e-03 1.629564e-02
-5.903591e-04 -6.560472e-05 1.793189e-02
1.108504e-04 -4.631053e-04 1.906286e-02
3.816977e-03 -8.578660e-03 1.615777e-02
-1.670836e-02 -1.215340e-02 4.629170e-03
2.009330e-02 7.889233e-03 2.329498e-03
2.115069e-02 -7.449724e-03 -7.441843e-03
2.102979e-02 -5.401123e-03 1.654767e-03
-1.448916e-02 -1.449239e-02 4.334195e-03
-9.510429e-03 2.330958e-03 -2.622330e-02
9.673485e-03 -7.440376e-04 1.587345e-02
-1.855280e-02 -4.070122e-03 -1.706874e-02
8.926930e-03 -1.723986e-03 1.626982e-02
-4.895654e-06 -1.532494e-04 1.825243e-02
-4.005978e-03 8.577399e-03 1.553497e-02
-1.612593e-02 9.743790e-03 -1.804672e-02
-1.137273e-02 1.804407e-02 2.753971e-03
-1.389721e-02 1.488048e-02 5.915727e-03
5.951046e-03 6.984873e-03 -2.641929e-02
1.201841e-02 -1.663054e-02 4.789869e-03
-1.892484e-02 6.597382e-03 5.005126e-03
8.942391e-03 -5.002941e-04 1.666616e-02
-8.847999e-03 -4.169974e-04 1.625282e-02
-1.289588e-02 1.248554e-02 -1.955068e-02
2.024868e-04 -4.685096e-05 1.860600e-02
2.819007e-03 4.424322e-03 -2.750584e-02
5.852944e-03 1.414457e-02 -2.227649e-02
3.257493e-03 8.846325e-03 1.551543e-02
5.961323e-03 6.687335e-03 1.592872e-02
-5.692662e-03 -7.699255e-03 1.512118e-02
1.681231e-02 1.171009e-02 5.364482e-03
1.859071e-02 9.277416e-03 5.170872e-03
5.443303e-03 -6.952571e-03 1.567851e-02
-1.980947e-02 1.032643e-02 3.923435e-04
8.644233e-03 2.875998e-03 1.599447e-02
1.185817e-04 4.716830e-04 1.835407e-02
-2.221765e-02 -3.198086e-03 -8.147396e-03
-1.991627e-02 -5.046624e-03 3.667798e-03
-1.936851e-02 -7.291074e-03 3.933659e-03
3.991833e-03 8.936201e-03 1.542658e-02
-7.475643e-03 2.627838e-03 -2.691110e-02
7.888037e-03 -2.046405e-02 -4.491774e-03
2.260449e-03 -5.109816e-03 -2.730502e-02
2.593094e-03 8.687505e-03 1.596831e-02
8.374068e-03 -4.487267e-03 1.567798e-02
9.608359e-03 2.231753e-03 1.549912e-02
-4.584950e-04 5.952923e-04 1.776304e-02
1.927691e-03 -8.913751e-03 1.537683e-02
-6.016752e-03 8.207582e-03 1.574503e-02
-7.460930e-03 -7.225724e-03 -2.527829e-02
8.887989e-03 -1.483097e-02 1.011373e-02
-1.786690e-02 3.768183e-03 -1.864698e-02
-8.169082e-03 2.730083e-03 1.598848e-02
7.924297e-03 -1.966870e-02 3.700829e-03
9.013198e-03 -1.582937e-02 8.456734e-03
-7.246406e-03 2.498809e-03 1.596764e-02
-1.896053e-03 1.407497e-02 -2.287864e-02
-7.356856e-04 -4.079350e-04 1.769392e-02
9.024677e-03 -1.627103e-02 -1.815763e-02
-3.093914e-04 1.085567e-02 -2.531953e-02
1.447415e-03 9.192300e-03 1.558757e-02
1.765331e-02 -3.207251e-03 9.484872e-03
-6.035014e-03 -8.531249e-03 -2.608066e-02
2.021768e-04 1.672117e-02 -2.105079e-02
2.118204e-02 5.217931e-03 -7.568452e-04
-1.520708e-03 2.018439e-02 5.394928e-03
3.188821e-03 -7.347324e-03 -2.657441e-02
7.076725e-03 -2.100583e-02 -1.057723e-02
2.993337e-04 -4.970416e-04 1.827480e-02
-1.051971e-02 -1.665939e-02 -1.633969e-02
8.801700e-05 -2.002433e-02 -1.668756e-02
-1.851805e-03 2.155287e-02 1.415108e-03
-1.749808e-02 9.968483e-03 5.675812e-03
-4.238584e-03 -8.971462e-03 1.683678e-02
1.538918e-02 -1.474242e-02 2.554696e-03
-7.833591e-03 4.573220e-03 -2.693588e-02
-5.713938e-03 -1.143968e-02 -2.430811e-02
-2.181210e-03 8.821806e-03 1.609240e-02
1.101756e-02 1.988381e-03 -2.542897e-02
2.293259e-04 2.974016e-04 1.805136e-02
1.954943e-02 7.103198e-03 -1.417578e-02
9.287745e-03 1.626409e-02 4.829949e-03
9.375857e-03 4.670892e-04 1.580592e-02
3.076390e-03 3.284256e-03 -2.757179e-02
2.046148e-02 -4.261250e-03 -1.398176e-02
3.768704e-03 -2.042921e-02 6.109751e-03
9.192510e-03 -2.247467e-03 1.633271e-02
-8.228414e-03 3.368742e-03 1.531018e-02
7.114162e-03 -6.018247e-03 1.585509e-02
-6.943558e-03 1.176573e-02 -2.366210e-02
6.562620e-05 2.496142e-04 1.838061e-02
-2.605353e-03 8.538427e-03 1.606319e-02
-3.772436e-03 7.079259e-03 1.621478e-02
-1.259634e-02 -7.540932e-03 -2.239170e-02
-8.615416e-03 -7.172960e-04 1.623192e-02
-1.045434e-02 1.519451e-04 1.538207e-02
-8.442044e-03 1.680627e-03 1.594668e-02
2.168854e-02 7.905354e-03 -6.208341e-03
-7.759163e-03 -2.560290e-03 -2.632650e-02
-1.429025e-02 -6.988430e-03 -2.125802e-02
2.074814e-02 4.407771e-03 -1.345180e-02
-4.345810e-04 3.498325e-04 1.811624e-02
-1.005466e-04 2.243172e-02 -6.248058e-03
-1.954972e-02 2.232631e-03 -1.681796e-02
-2.181863e-02 -6.063657e-03 -6.920086e-03
-6.163566e-03 1.790031e-02 -1.790651e-02
7.526119e-03 4.511053e-03 -2.648849e-02
-1.686632e-02 6.948759e-03 7.484237e-03
1.985016e-03 -7.482622e-04 -2.815630e-02
9.758844e-04 1.093572e-02 1.631327e-02
-4.069924e-03 8.271458e-03 1.600451e-02
1.827735e-02 -1.356186e-02 -3.545106e-03
6.849342e-04 -2.593477e-04 1.828463e-02
6.299665e-05 2.670993e-04 1.783580e-02
-2.087511e-02 6.884404e-06 -1.478980e-02
2.146050e-02 -2.606612e-03 -1.183760e-02
-1.240490e-03 9.806550e-03 1.578730e-02
-4.929120e-03 -2.077523e-03 -2.729788e-02
1.417459e-02 -1.720225e-02 -1.379883e-02
-2.890326e-03 1.958047e-02 -1.646165e-02
1.863634e-02 1.226791e-02 -9.623696e-03
1.055760e-02 2.038885e-02 -2.803956e-03
-3.662611e-03 -7.731108e-03 1.641755e-02
1.447749e-02 -1.281090e-02 6.894203e-03
-2.570100e-04 3.345532e-04 1.795685e-02
4.711412e-03 8.845886e-03 1.569399e-02
8.102652e-03 -9.970787e-03 -2.399375e-02
2.487467e-03 -9.163475e-03 1.584649e-02
1.562468e-02 8.476459e-03 9.160602e-03
-7.466256e-03 6.109703e-03 1.572085e-02
1.361929e-02 -1.640166e-02 2.792316e-03
-1.325575e-02 -7.802281e-03 -2.187121e-02
3.969802e-03 2.128226e-02 4.382395e-04
1.882975e-02 7.598761e-03 5.301421e-03
-1.663278e-02 1.279738e-02 -1.621165e-02
-2.556561e-04 -1.617120e-05 1.811355e-02
-7.176507e-03 -1.229341e-02 -2.385201e-02
-1.113939e-02 -1.472648e-02 -1.917152e-02
3.075508e-03 -5.485864e-03 -2.721159e-02
4.772946e-03 1.981705e-02 5.645233e-03
7.209420e-03 3.986324e-03 1.681368e-02
7.098714e-03 4.610668e-03 1.625530e-02
5.243633e-03 -2.250691e-02 -2.697174e-03
2.579395e-04 -1.006722e-02 1.528073e-02
1.148190e-03 -6.546216e-03 1.558325e-02
-5.119355e-04 1.506817e-04 -2.932683e-02
-2.270296e-04 2.923821e-04 1.812301e-02
-5.506944e-03 6.316684e-03 1.616932e-02
4.225865e-03 1.742521e-02 -1.946242e-02
-8.762764e-03 -2.910493e-03 1.594551e-02
1.182971e-02 1.889017e-02 4.743810e-04
2.004857e-03 -1.950736e-02 7.500150e-03
4.110027e-03 1.253499e-02 -2.369753e-02
-2.089515e-03 1.385054e-02 -2.311318e-02
9.480953e-03 1.921640e-02 2.301869e-03
-1.017794e-02 -1.288333e-02 -2.158404e-02
1.046162e-02 -1.380737e-02 -1.955348e-02
1.552949e-04 -1.723160e-04 1.777375e-02
-2.085542e-02 -2.308336e-03 3.008203e-03
6.284922e-05 -3.090973e-04 -2.797677e-02