# vtk DataFile Version 2.0
Electric current density generated by TTH
ASCII
DATASET UNSTRUCTURED_GRID
POINTS 5092 double
1.500000e-05 0.000000e+00 -1.000000e-07
1.424096e-05 4.711151e-06 -1.000000e-07
5.832363e-06 -1.381968e-05 -1.000000e-07
1.412027e-05 -3.458878e-06 -1.000000e-07
1.132612e-05 9.091395e-06 -1.000000e-07
1.233655e-05 -6.152923e-06 -1.000000e-07
1.228887e-05 -5.681795e-06 -1.000000e-07
1.201074e-05 -6.670384e-06 -1.000000e-07
1.317532e-05 -2.819486e-06 -1.000000e-07
1.077979e-05 8.035742e-06 -1.000000e-07
1.417128e-05 -9.034875e-07 -1.000000e-07
1.449102e-05 -1.232589e-06 -1.000000e-07
1.424107e-05 -3.036753e-07 -1.000000e-07
6.559610e-06 -1.348968e-05 -1.000000e-07
-1.078821e-05 -8.645391e-06 -1.000000e-07
-1.081434e-05 -8.184009e-06 -1.000000e-07
-1.091526e-05 -7.764336e-06 -1.000000e-07
-1.040462e-05 -9.073150e-06 -1.000000e-07
4.200764e-06 -1.350660e-05 -1.000000e-07
-1.232963e-05 -5.544825e-06 -1.000000e-07
-1.364769e-05 -3.877206e-06 -1.000000e-07
-1.396397e-05 -4.157963e-06 -1.000000e-07
-1.377220e-05 -3.313677e-06 -1.000000e-07
7.250674e-06 1.137188e-05 -1.000000e-07
7.268263e-06 -1.312145e-05 -1.000000e-07
-9.336263e-06 9.574851e-06 -1.000000e-07
-1.308288e-05 6.345986e-06 -1.000000e-07
-6.805935e-06 -1.154447e-05 -1.000000e-07
1.452428e-05 1.129653e-06 -1.000000e-07
1.440359e-05 7.316896e-07 -1.000000e-07
1.420714e-05 1.166387e-06 -1.000000e-07
1.443962e-05 1.491466e-06 -1.000000e-07
1.432770e-05 1.938052e-06 -1.000000e-07
-1.334930e-05 8.207323e-07 -1.000000e-07
-1.346987e-05 5.220879e-07 -1.000000e-07
7.956314e-06 -1.271602e-05 -1.000000e-07
-1.373345e-05 8.100954e-07 -1.000000e-07
-1.348093e-05 1.150299e-06 -1.000000e-07
1.163469e-05 7.336494e-06 -1.000000e-07
1.328435e-07 -1.378589e-05 -1.000000e-07
-4.268107e-07 -1.377628e-05 -1.000000e-07
-7.875581e-07 -1.351230e-05 -1.000000e-07
-8.941038e-07 -1.377909e-05 -1.000000e-07
-1.296251e-05 4.709442e-06 -1.000000e-07
-1.395546e-05 4.195304e-06 -1.000000e-07
1.303913e-05 3.651176e-06 -1.000000e-07
8.621811e-06 -1.227454e-05 -1.000000e-07
-6.085146e-06 1.242199e-05 -1.000000e-07
-6.267929e-06 1.187316e-05 -1.000000e-07
-6.479640e-06 1.216722e-05 -1.000000e-07
-5.544969e-06 1.261776e-05 -1.000000e-07
-5.302913e-06 1.262219e-05 -1.000000e-07
-1.277128e-05 -3.955903e-06 -1.000000e-07
-1.311096e-05 -4.155646e-06 -1.000000e-07
-1.276011e-05 -4.325212e-06 -1.000000e-07
-1.271438e-05 -4.709055e-06 -1.000000e-07
-1.261167e-05 -5.123880e-06 -1.000000e-07
9.262869e-06 -1.179827e-05 -1.000000e-07
-1.306500e-05 -3.766483e-06 -1.000000e-07
-1.445074e-05 -1.970006e-06 -1.000000e-07
-1.412495e-05 -2.327663e-06 -1.000000e-07
-1.413260e-05 -1.872967e-06 -1.000000e-07
-1.443103e-05 -1.601225e-06 -1.000000e-07
-1.445755e-05 -1.221013e-06 -1.000000e-07
1.342621e-05 -1.277503e-06 -1.000000e-07
-2.288184e-06 1.323866e-05 -1.000000e-07
-2.597608e-06 1.336779e-05 -1.000000e-07
-2.254924e-06 1.355552e-05 -1.000000e-07
9.877671e-06 -1.128856e-05 -1.000000e-07
-1.974641e-06 1.331209e-05 -1.000000e-07
-1.616211e-06 1.353933e-05 -1.000000e-07
-1.335174e-06 1.361479e-05 -1.000000e-07
-5.363900e-07 1.336070e-05 -1.000000e-07
-2.698079e-07 1.365621e-05 -1.000000e-07
-9.195259e-07 1.339607e-05 -1.000000e-07
-6.677908e-07 1.372578e-05 -1.000000e-07
9.686538e-06 -9.881849e-06 -1.000000e-07
-1.449647e-05 1.206079e-06 -1.000000e-07
1.274405e-05 7.038849e-06 -1.000000e-07
1.046447e-05 -1.074685e-05 -1.000000e-07
8.693114e-06 1.069212e-05 -1.000000e-07
8.778599e-06 1.023024e-05 -1.000000e-07
8.241026e-06 1.101227e-05 -1.000000e-07
-1.245409e-05 -6.754910e-06 -1.000000e-07
-1.041492e-05 9.012889e-06 -1.000000e-07
-9.930975e-06 9.049404e-06 -1.000000e-07
1.401005e-05 3.264066e-06 -1.000000e-07
-1.444500e-05 1.979676e-06 -1.000000e-07
-1.417288e-05 2.333885e-06 -1.000000e-07
-1.410664e-05 1.851581e-06 -1.000000e-07
1.102161e-05 -1.017468e-05 -1.000000e-07
-1.441757e-05 1.631027e-06 -1.000000e-07
1.103748e-05 9.442095e-06 -1.000000e-07
2.754385e-06 1.354560e-05 -1.000000e-07
2.488550e-06 1.345264e-05 -1.000000e-07
3.283489e-06 1.339208e-05 -1.000000e-07
3.574670e-06 1.299069e-05 -1.000000e-07
3.742277e-06 1.325901e-05 -1.000000e-07
3.799405e-06 1.293550e-05 -1.000000e-07
4.280633e-06 1.275639e-05 -1.000000e-07
4.626517e-06 1.282456e-05 -1.000000e-07
1.154751e-05 -9.573663e-06 -1.000000e-07
-6.301076e-06 -1.229330e-05 -1.000000e-07
-5.784121e-06 -1.254937e-05 -1.000000e-07
-5.248096e-06 -1.244430e-05 -1.000000e-07
4.307442e-06 1.313881e-05 -1.000000e-07
1.376503e-05 -1.323442e-06 -1.000000e-07
1.362180e-05 -1.890819e-06 -1.000000e-07
1.391014e-05 4.259321e-06 -1.000000e-07
3.681877e-06 -1.373908e-05 -1.000000e-07
3.483544e-06 -1.387796e-05 -1.000000e-07
1.365618e-05 5.067525e-06 -1.000000e-07
1.397004e-05 5.462409e-06 -1.000000e-07
1.204067e-05 -8.945510e-06 -1.000000e-07
5.100730e-06 1.240897e-05 -1.000000e-07
-6.806531e-06 1.148588e-05 -1.000000e-07
-6.576242e-06 1.173370e-05 -1.000000e-07
-7.306136e-06 1.161030e-05 -1.000000e-07
-6.962290e-06 1.183878e-05 -1.000000e-07
1.394775e-05 -4.136866e-06 -1.000000e-07
-1.276942e-05 7.014128e-06 -1.000000e-07
-1.243507e-05 7.246083e-06 -1.000000e-07
-1.251059e-05 6.776206e-06 -1.000000e-07
-1.288147e-05 6.693811e-06 -1.000000e-07
1.249971e-05 -8.292001e-06 -1.000000e-07
1.355240e-05 4.291732e-06 -1.000000e-07
1.330543e-05 4.767965e-06 -1.000000e-07
-5.341936e-06 -1.270898e-05 -1.000000e-07
-7.664213e-06 -1.109113e-05 -1.000000e-07
2.455211e-07 1.341579e-05 -1.000000e-07
6.021528e-07 1.349351e-05 -1.000000e-07
3.432489e-07 1.370227e-05 -1.000000e-07
1.417808e-08 1.359935e-05 -1.000000e-07
-1.408392e-05 1.290156e-06 -1.000000e-07
-7.533869e-06 1.109540e-05 -1.000000e-07
1.292331e-05 -7.614987e-06 -1.000000e-07
-3.060418e-06 1.303588e-05 -1.000000e-07
-3.438213e-06 1.303684e-05 -1.000000e-07
-3.226123e-06 1.336396e-05 -1.000000e-07
-2.885190e-06 1.327558e-05 -1.000000e-07
-1.150887e-05 -8.968119e-06 -1.000000e-07
-1.155060e-05 -8.654611e-06 -1.000000e-07
-1.122972e-05 -8.825355e-06 -1.000000e-07
-8.643208e-06 1.165303e-05 -1.000000e-07
1.260383e-05 -5.764545e-06 -1.000000e-07
-1.109653e-05 -8.305795e-06 -1.000000e-07
1.331028e-05 -6.916388e-06 -1.000000e-07
-2.965635e-06 -1.421881e-05 -1.000000e-07
1.311806e-05 -6.310009e-06 -1.000000e-07
5.888347e-06 1.326973e-05 -1.000000e-07
-1.530442e-06 -1.336808e-05 -1.000000e-07
-1.165235e-06 -1.341813e-05 -1.000000e-07
-1.860072e-06 -1.349635e-05 -1.000000e-07
-1.479105e-06 -1.365288e-05 -1.000000e-07
7.388978e-06 1.248575e-05 -1.000000e-07
1.275294e-05 -5.262852e-06 -1.000000e-07
1.262172e-05 -4.805424e-06 -1.000000e-07
1.365952e-05 -6.198183e-06 -1.000000e-07
1.238514e-05 -5.213427e-06 -1.000000e-07
1.298826e-05 -4.781442e-06 -1.000000e-07
-6.569574e-06 1.267073e-05 -1.000000e-07
9.081011e-06 1.045391e-05 -1.000000e-07
-9.967969e-06 -1.061603e-05 -1.000000e-07
-9.902013e-06 1.059791e-05 -1.000000e-07
-2.296689e-06 -1.331196e-05 -1.000000e-07
-1.280818e-05 4.296547e-06 -1.000000e-07
1.364186e-05 -5.049393e-06 -1.000000e-07
1.192924e-05 -8.295542e-06 -1.000000e-07
1.397004e-05 -5.462409e-06 -1.000000e-07
9.712944e-06 -9.231058e-06 -1.000000e-07
1.156782e-05 -8.091902e-06 -1.000000e-07
1.333830e-05 3.740605e-06 -1.000000e-07
1.161406e-05 6.891995e-06 -1.000000e-07
1.310436e-05 -4.331342e-06 -1.000000e-07
-1.219036e-06 1.393164e-05 -1.000000e-07
5.924198e-06 -1.211689e-05 -1.000000e-07
6.002953e-06 -1.241487e-05 -1.000000e-07
5.626626e-06 -1.230134e-05 -1.000000e-07
6.240513e-06 -1.219268e-05 -1.000000e-07
1.424096e-05 -4.711151e-06 -1.000000e-07
6.517251e-06 -1.225240e-05 -1.000000e-07
6.780109e-06 -1.222701e-05 -1.000000e-07
7.298356e-06 -1.250128e-05 -1.000000e-07
7.621894e-06 -1.227610e-05 -1.000000e-07
-1.221376e-05 -7.788631e-06 -1.000000e-07
-9.655172e-06 -1.046224e-05 -1.000000e-07
1.312343e-05 6.255351e-06 -1.000000e-07
1.314622e-05 5.835218e-06 -1.000000e-07
1.281316e-05 6.213285e-06 -1.000000e-07
1.284373e-05 6.566850e-06 -1.000000e-07
1.447152e-05 -3.946538e-06 -1.000000e-07
9.110228e-06 9.772498e-06 -1.000000e-07
9.404904e-06 9.964836e-06 -1.000000e-07
9.050375e-06 1.008510e-05 -1.000000e-07
-1.410206e-05 3.362233e-06 -1.000000e-07
-3.984205e-06 -1.366036e-05 -1.000000e-07
-9.740993e-06 9.820160e-06 -1.000000e-07
-1.015286e-05 9.441971e-06 -1.000000e-07
-4.635525e-06 -1.374632e-05 -1.000000e-07
1.110057e-05 8.793439e-06 -1.000000e-07
1.067290e-05 9.251581e-06 -1.000000e-07
1.466105e-05 -3.170739e-06 -1.000000e-07
-1.269267e-05 6.267062e-06 -1.000000e-07
-4.849640e-06 -1.298079e-05 -1.000000e-07
2.439412e-06 -1.326017e-05 -1.000000e-07
2.580076e-06 -1.355217e-05 -1.000000e-07
2.245395e-06 -1.338949e-05 -1.000000e-07
1.994897e-06 -1.382681e-05 -1.000000e-07
1.754379e-06 -1.399910e-05 -1.000000e-07
2.789094e-06 -1.332357e-05 -1.000000e-07
3.120339e-06 -1.337360e-05 -1.000000e-07
3.471676e-06 -1.303723e-05 -1.000000e-07
1.480903e-05 -2.385952e-06 -1.000000e-07
-4.424725e-06 1.382827e-05 -1.000000e-07
7.465079e-06 1.168854e-05 -1.000000e-07
7.896134e-06 1.139418e-05 -1.000000e-07
7.980428e-06 1.108399e-05 -1.000000e-07
7.654754e-06 1.112065e-05 -1.000000e-07
-1.219222e-05 7.847823e-06 -1.000000e-07
-1.200786e-05 8.249492e-06 -1.000000e-07
-1.227743e-05 7.534987e-06 -1.000000e-07
-1.195559e-05 7.670539e-06 -1.000000e-07
1.163316e-05 -8.562358e-06 -1.000000e-07
1.365952e-05 6.198183e-06 -1.000000e-07
1.491502e-05 -1.594402e-06 -1.000000e-07
-4.525740e-06 -1.340549e-05 -1.000000e-07
7.932426e-06 -1.173845e-05 -1.000000e-07
1.227218e-06 -1.343906e-05 -1.000000e-07
1.393745e-06 1.445017e-05 -1.000000e-07
-1.216232e-05 7.157844e-06 -1.000000e-07
-3.815887e-06 -1.396569e-05 -1.000000e-07
3.379882e-06 -1.411367e-05 -1.000000e-07
7.969438e-06 -1.209598e-05 -1.000000e-07
6.315790e-07 -1.438214e-05 -1.000000e-07
2.466015e-06 1.429049e-05 -1.000000e-07
1.497874e-05 -7.983326e-07 -1.000000e-07
1.360513e-05 -3.945192e-06 -1.000000e-07
1.378052e-05 -3.404109e-06 -1.000000e-07
1.113515e-05 8.177053e-06 -1.000000e-07
1.141812e-05 7.779370e-06 -1.000000e-07
1.140208e-05 7.495252e-06 -1.000000e-07
[...]
POINT_DATA 5092
VECTORS 10.000GHz_fone_imag double
6.522286e-02 6.859528e-04 9.096355e-02
6.556577e-02 2.117094e-02 9.113717e-02
2.476019e-02 -5.963769e-02 9.044201e-02
4.684103e-02 -8.475977e-03 3.497385e-04
3.836127e-02 3.328190e-02 1.663589e-03
4.964713e-02 -2.533051e-02 -3.101551e-04
5.148975e-02 -2.345723e-02 -2.893758e-03
4.965152e-02 -2.769257e-02 -1.186695e-03
5.613472e-02 -1.507052e-02 -3.305308e-03
4.676974e-02 3.791394e-02 -1.217552e-03
5.042685e-02 -3.316786e-03 -4.668506e-04
4.812149e-02 -5.492462e-03 2.028171e-03
4.937683e-02 -2.431727e-04 1.715109e-03
2.833539e-02 -5.839515e-02 9.111284e-02
-4.060737e-02 -3.364063e-02 -2.256118e-04
-4.664756e-02 -3.542029e-02 -6.902053e-03
-5.287408e-02 -3.361221e-02 -4.087596e-03
-4.114141e-02 -3.594583e-02 -9.795350e-04
1.510798e-02 -4.802940e-02 3.261927e-04
-5.292404e-02 -2.587904e-02 -2.332028e-03
-4.829496e-02 -1.424706e-02 1.905909e-04
-4.772505e-02 -1.168194e-02 3.267996e-03
-4.871954e-02 -1.213387e-02 -4.773883e-04
3.136015e-02 4.783867e-02 -2.791119e-03
3.247425e-02 -5.852522e-02 9.080029e-02
-4.870354e-02 4.271637e-02 1.670382e-03
-4.375146e-02 2.010086e-02 1.857787e-03
-2.931626e-02 -5.515907e-02 2.244774e-03
4.952346e-02 6.407689e-03 -7.086784e-04
4.951025e-02 3.388994e-03 4.961060e-03
5.159478e-02 4.503831e-03 1.979760e-04
4.968863e-02 5.376267e-03 4.970575e-03
4.808894e-02 7.748756e-03 3.295215e-03
-6.209364e-02 7.715721e-03 -7.497873e-06
-6.061016e-02 3.935919e-06 -3.786728e-04
3.366294e-02 -5.362270e-02 9.054651e-02
-5.538484e-02 3.414116e-03 -6.789960e-04
-5.945714e-02 4.955268e-03 -5.504207e-03
4.490310e-02 2.751880e-02 -3.952199e-04
2.710146e-03 -5.591061e-02 -2.091944e-03
-2.020735e-03 -5.580884e-02 8.447237e-04
-3.346733e-03 -5.966289e-02 -5.684986e-03
-3.019039e-03 -5.510619e-02 2.511243e-04
-5.080398e-02 1.876441e-02 -3.327671e-04
-4.798626e-02 1.267950e-02 1.056941e-04
5.605203e-02 1.435839e-02 -3.173783e-03
3.699581e-02 -5.295156e-02 9.060004e-02
-2.346640e-02 4.622776e-02 -8.619545e-04
-2.984042e-02 5.494907e-02 4.162943e-04
-2.556549e-02 4.803523e-02 -3.538165e-04
-2.273956e-02 4.980927e-02 -1.008893e-03
-2.072134e-02 5.271312e-02 2.151507e-04
-6.146470e-02 -2.440304e-02 -8.228714e-05
-5.289610e-02 -1.679391e-02 -9.615811e-05
-5.803158e-02 -2.023930e-02 -4.707322e-03
-5.471777e-02 -2.134718e-02 -3.111762e-03
-5.247996e-02 -2.085633e-02 -8.051301e-03
4.150240e-02 -5.521854e-02 9.119834e-02
-5.664071e-02 -1.550429e-02 -3.379532e-03
-4.866913e-02 -5.508181e-03 6.199921e-05
-5.211107e-02 -8.081405e-03 5.477560e-05
-4.867654e-02 -6.876808e-03 3.305254e-04
-4.884309e-02 -5.953586e-03 -1.824021e-03
-4.778139e-02 -4.275623e-03 5.543304e-03
5.944923e-02 -3.644628e-03 -2.637257e-03
-8.947102e-03 5.989264e-02 -2.666704e-03
-1.051902e-02 6.138309e-02 1.308210e-03
-9.185254e-03 5.506594e-02 -1.663477e-04
4.249541e-02 -4.803121e-02 9.061881e-02
-1.111827e-02 6.362316e-02 -5.789594e-03
-6.086666e-03 5.832538e-02 -3.922519e-04
-5.655197e-03 5.782264e-02 -8.774932e-04
-6.519398e-03 6.453856e-02 1.039097e-03
-1.515975e-03 5.923748e-02 9.646243e-04
-3.369355e-03 6.420475e-02 -7.952795e-03
-3.149641e-03 5.734917e-02 5.068294e-05
3.753277e-02 -3.927179e-02 -8.663682e-04
-4.829229e-02 2.963186e-03 3.978396e-03
4.203716e-02 2.501671e-02 1.260304e-04
4.513592e-02 -4.706644e-02 9.086737e-02
3.411229e-02 4.235109e-02 -1.513067e-04
3.958906e-02 4.731578e-02 -3.975521e-03
3.364784e-02 4.571290e-02 -1.027081e-04
-4.397908e-02 -2.403131e-02 -5.854393e-05
-4.066931e-02 3.480827e-02 -2.134758e-03
-4.673812e-02 3.980166e-02 -2.554219e-03
4.813015e-02 1.133784e-02 3.906470e-03
-4.873343e-02 9.404183e-03 2.611249e-03
-4.809593e-02 8.292950e-03 1.127455e-04
-5.045439e-02 7.219397e-03 -8.029982e-04
4.771983e-02 -4.288503e-02 9.086441e-02
-5.085971e-02 5.436121e-03 3.286994e-03
3.819539e-02 3.042272e-02 1.648575e-03
1.149689e-02 5.213099e-02 -3.848629e-04
1.237214e-02 5.637930e-02 3.703934e-04
1.238714e-02 5.264670e-02 -2.386106e-04
1.386914e-02 5.932359e-02 -5.195263e-03
1.572713e-02 5.433050e-02 -2.244944e-03
1.803667e-02 5.908168e-02 -8.060054e-04
2.179342e-02 5.464793e-02 -1.878979e-03
1.935501e-02 5.259130e-02 -6.959797e-03
5.100227e-02 -4.313743e-02 9.072714e-02
-2.559579e-02 -4.896277e-02 -9.438325e-04
-2.208483e-02 -4.788198e-02 -2.226028e-04
-2.254161e-02 -5.650666e-02 1.706898e-03
1.738988e-02 5.106229e-02 -2.828879e-04
5.442001e-02 -5.312141e-03 -6.303339e-05
5.349658e-02 -5.768657e-03 -2.549217e-03
4.690383e-02 1.244250e-02 3.715956e-03
1.233992e-02 -4.854112e-02 2.515573e-04
1.307842e-02 -4.885524e-02 -1.909952e-04
4.617234e-02 1.898908e-02 8.741473e-04
6.010116e-02 2.378851e-02 9.082946e-02
5.231326e-02 -3.911887e-02 9.090346e-02
2.444208e-02 5.398530e-02 -7.940319e-04
-2.990128e-02 5.777670e-02 1.464255e-03
-3.076265e-02 5.526491e-02 -6.728818e-03
-3.025412e-02 4.841756e-02 -3.512892e-05
-2.659979e-02 4.737747e-02 -9.258830e-04
4.590854e-02 -1.312588e-02 2.304662e-03
-4.212280e-02 2.487043e-02 1.521932e-03
-4.400741e-02 2.608644e-02 7.367995e-04
-4.442884e-02 2.448863e-02 6.749569e-04
-4.503648e-02 2.366187e-02 4.954747e-03
5.366672e-02 -3.536017e-02 9.090921e-02
4.573113e-02 1.587765e-02 1.247523e-03
4.725728e-02 1.709754e-02 -4.644217e-04
-2.072013e-02 -5.057484e-02 -2.611321e-04
-3.451700e-02 -4.749870e-02 -4.365139e-03
-1.016765e-03 6.167016e-02 -1.388620e-03
2.065013e-03 6.056690e-02 -2.639977e-03
1.513770e-03 5.753781e-02 -9.729529e-05
-2.425968e-04 5.977963e-02 -1.999349e-03
-4.945403e-02 5.038231e-03 3.366827e-04
-3.246761e-02 5.211492e-02 -5.773690e-03
5.938840e-02 -3.466666e-02 9.120067e-02
-1.648344e-02 5.901100e-02 -1.328778e-03
-1.319718e-02 5.924452e-02 -7.787274e-03
-1.383880e-02 5.463120e-02 -8.184898e-04
-1.137662e-02 5.797209e-02 -1.345457e-03
-3.902859e-02 -3.212665e-02 -1.234999e-04
-4.013765e-02 -3.082267e-02 9.101893e-04
-3.900232e-02 -3.113805e-02 5.297094e-05
-3.091667e-02 3.787339e-02 7.794900e-04
4.799158e-02 -2.235320e-02 2.698594e-04
-4.152480e-02 -3.140025e-02 -8.586972e-04
5.702375e-02 -2.977058e-02 9.068388e-02
-1.027355e-02 -4.585940e-02 1.104173e-03
4.460645e-02 -1.902121e-02 7.516614e-04
1.962732e-02 4.364789e-02 2.997899e-03
-9.630036e-03 -5.925244e-02 -5.483604e-03
-6.359966e-03 -6.131866e-02 7.619080e-04
-7.330830e-03 -5.726531e-02 -4.340810e-03
-6.081696e-03 -5.635692e-02 -7.576328e-04
2.219802e-02 4.031708e-02 2.879757e-03
4.952522e-02 -2.066281e-02 -3.502111e-04
5.794029e-02 -2.192488e-02 -5.976664e-03
5.864484e-02 -2.662688e-02 9.069508e-02
5.538740e-02 -2.124733e-02 -1.202470e-03
4.964615e-02 -1.915611e-02 -5.289580e-04
-2.345294e-02 4.366615e-02 -9.505997e-05
3.583401e-02 4.097334e-02 -3.917538e-05
-3.532917e-02 -3.522200e-02 4.793682e-03
-3.374030e-02 3.424101e-02 4.083666e-03
-7.742799e-03 -5.819939e-02 -1.741927e-03
-5.586297e-02 1.929627e-02 -5.539023e-05
4.545892e-02 -1.825445e-02 5.346471e-04
4.041170e-02 -2.699171e-02 2.469923e-03
6.065004e-02 -2.386504e-02 9.095358e-02
4.240463e-02 -4.384333e-02 -6.108003e-04
3.883033e-02 -2.937424e-02 4.743639e-04
5.251009e-02 1.491365e-02 -2.366313e-03
5.192584e-02 2.932372e-02 -5.139780e-03
5.154979e-02 -1.656448e-02 9.775406e-05
-3.867023e-03 5.021845e-02 -2.535225e-04
2.532800e-02 -5.541859e-02 -2.759001e-03
2.557080e-02 -4.928531e-02 -3.553074e-04
2.481096e-02 -5.341793e-02 -8.393063e-03
2.508234e-02 -4.784030e-02 -5.445649e-03
6.260443e-02 -2.121999e-02 9.116148e-02
2.388698e-02 -4.700944e-02 -5.868896e-04
2.522706e-02 -4.591842e-02 -4.213447e-04
2.460646e-02 -4.015559e-02 1.241784e-03
2.483635e-02 -3.926803e-02 -1.598383e-03
-4.099932e-02 -2.773205e-02 1.815990e-03
-3.327031e-02 -3.689888e-02 -8.450716e-05
4.600542e-02 1.985334e-02 7.004637e-04
4.445541e-02 2.018442e-02 7.007251e-03
4.610954e-02 2.175514e-02 6.012064e-04
4.354432e-02 2.256729e-02 4.142391e-03
6.599510e-02 -1.590003e-02 9.162911e-02
4.133407e-02 5.185957e-02 1.887793e-03
4.029228e-02 4.180007e-02 -8.227062e-04
3.921857e-02 4.400690e-02 -5.077134e-03
-4.701497e-02 1.023571e-02 3.127115e-03
-1.360739e-02 -4.917387e-02 7.650306e-04
-3.739570e-02 3.755224e-02 -1.213301e-03
-3.934834e-02 3.480561e-02 -1.326797e-03
-1.435878e-02 -4.492992e-02 1.602078e-03
3.933568e-02 3.184547e-02 2.749944e-05
3.619551e-02 3.221932e-02 1.942728e-03
6.249760e-02 -1.417913e-02 9.079928e-02
-4.601927e-02 2.253910e-02 -1.953630e-04
-1.789882e-02 -5.038720e-02 7.406872e-04
1.159270e-02 -6.041833e-02 -5.610682e-03
1.055186e-02 -5.333423e-02 -1.045489e-03
7.579863e-03 -5.564638e-02 -2.576774e-03
7.968273e-03 -5.119248e-02 -1.331556e-03
6.615332e-03 -4.957734e-02 1.014260e-03
1.275581e-02 -5.712240e-02 -7.358616e-05
1.399563e-02 -5.468194e-02 -4.761916e-04
1.534414e-02 -5.596655e-02 -3.554274e-03
6.825568e-02 -1.023157e-02 9.136618e-02
-1.331486e-02 4.726867e-02 5.144648e-03
2.942929e-02 4.508166e-02 1.291754e-04
2.981922e-02 4.349080e-02 -1.106616e-03
3.446453e-02 4.644366e-02 1.483705e-04
3.594537e-02 4.941796e-02 -4.894862e-03
-4.164169e-02 2.765615e-02 6.855755e-03
-4.303774e-02 2.708093e-02 -1.296261e-05
-4.342965e-02 2.545727e-02 -4.518877e-04
-4.404823e-02 2.808512e-02 -1.247386e-04
3.821228e-02 -2.972104e-02 3.360099e-03
5.889039e-02 2.643331e-02 9.065643e-02
6.344757e-02 -7.286292e-03 9.072235e-02
-1.702972e-02 -4.843681e-02 -7.715130e-04
2.644599e-02 -4.095359e-02 9.254802e-05
4.447364e-03 -5.939380e-02 -5.980625e-03
3.486022e-03 4.892747e-02 1.037005e-03
-4.364518e-02 2.561602e-02 -6.363226e-04
-1.397867e-02 -4.660187e-02 1.617513e-03
1.198390e-02 -4.947592e-02 8.266580e-03
2.606229e-02 -4.145792e-02 2.293407e-03
3.127660e-03 -4.919939e-02 5.614086e-04
8.072297e-03 4.787994e-02 2.520035e-03
6.917315e-02 -3.963628e-03 9.147964e-02
4.847165e-02 -1.475187e-02 9.898352e-04
5.037907e-02 -1.202353e-02 -1.291582e-03
4.276792e-02 3.257528e-02 -1.563784e-04
4.553709e-02 2.869193e-02 -9.918804e-04
4.711327e-02 3.143424e-02 -3.319173e-03
5.311251e-02 3.684619e-02 -4.772034e-03
4.799930e-02 3.370004e-02 -2.327155e-03
-2.141767e-02 -5.293922e-02 -4.606066e-03
-1.957478e-02 4.489203e-02 2.539142e-03
-4.508053e-02 -2.216099e-02 -3.003497e-04
9.817100e-02 5.903321e-03 -1.393102e-01
-2.799057e-02 -4.165875e-02 1.264674e-03
-3.077403e-02 -4.142695e-02 8.255225e-04
-4.917410e-02 2.302510e-02 -1.371779e-04
-5.124800e-02 2.079634e-02 2.071152e-03
-5.323253e-02 2.057999e-02 -3.994345e-03
-6.008611e-02 2.543731e-02 -2.154255e-03
-5.324678e-02 2.288431e-02 -5.154179e-03
1.306400e-02 4.891676e-02 -7.997735e-05
-1.324446e-02 -4.855984e-02 5.422050e-04
-1.063916e-02 -4.909735e-02 -9.361388e-05
1.039578e-01 1.119825e-02 -1.405132e-01
1.079915e-03 -5.450027e-02 -1.070281e-03
1.736411e-03 -5.889821e-02 2.526520e-03
5.297257e-03 -6.225264e-02 -4.121008e-03
3.840856e-03 -5.287883e-02 3.726424e-04
4.828247e-02 6.043595e-04 2.684177e-03
-3.432326e-02 3.678723e-02 5.798954e-05
2.539009e-02 4.413624e-02 -1.104691e-03
5.113079e-02 2.354361e-03 -3.332678e-04
-4.758369e-02 -9.699425e-03 2.979382e-03
-4.999864e-02 -7.607212e-03 6.788312e-04
9.459242e-02 1.875675e-02 -1.394673e-01
-4.934563e-02 -9.695205e-03 3.886280e-04
-4.989308e-02 -1.150875e-02 -2.214616e-03
-4.854091e-02 -1.032216e-02 -1.674097e-03
-4.938476e-02 -8.131274e-03 -1.563013e-04
4.721900e-02 -1.789226e-02 -5.748656e-04
5.002575e-02 5.882676e-03 5.548148e-04
-2.926648e-02 4.123361e-02 -5.642037e-04
-3.010566e-02 3.935541e-02 9.007114e-04
-2.983450e-02 3.700265e-02 4.261179e-03
-5.048385e-02 8.071644e-03 4.119744e-04
9.617189e-02 2.280442e-02 -1.393874e-01
-5.181688e-02 -4.982442e-03 -5.746597e-04
-3.431617e-02 3.900613e-02 -1.723652e-03
2.455690e-02 4.493723e-02 -7.107394e-04
2.141824e-02 4.350961e-02 2.689574e-03
8.417436e-03 5.036427e-02 -3.050908e-04
-1.891665e-02 4.645986e-02 8.364060e-04
-5.133693e-02 -1.897292e-02 -3.229194e-04
-4.242671e-02 2.781543e-02 -8.567763e-05
2.236717e-02 4.556069e-02 3.344062e-04
2.134593e-02 4.679474e-02 -2.733646e-05
8.954550e-02 2.788479e-02 -1.382783e-01
4.576548e-02 2.029321e-02 1.506595e-04
3.765964e-02 -3.651445e-02 8.997359e-04
-1.737337e-02 4.854143e-02 8.208791e-05
6.022948e-03 4.983313e-02 4.001164e-04
4.922736e-02 -2.850942e-02 -4.097608e-03
5.528561e-02 -9.684117e-03 -3.253712e-03
4.494540e-02 2.349545e-02 -2.718798e-04
-4.487705e-02 -4.031552e-02 -5.880597e-03
-4.989268e-02 1.422614e-02 -1.878006e-04
-4.931411e-02 -2.223905e-02 -1.179690e-03
9.082756e-02 3.585890e-02 -1.390674e-01
-5.098638e-02 1.157143e-02 -7.545932e-04
-4.624864e-02 3.155753e-02 -1.177392e-03
5.130570e-02 -9.276078e-03 -2.918498e-04
5.092607e-02 -1.046988e-02 -8.413029e-05
2.246829e-03 5.017996e-02 8.628596e-04
4.898939e-03 4.974033e-02 9.026875e-06
1.360947e-02 5.686790e-02 2.839789e-03
1.358562e-02 5.867093e-02 -6.034644e-03
1.682770e-03 -4.938501e-02 6.515231e-03
-1.261946e-02 4.732368e-02 6.837052e-04
8.958616e-02 4.055418e-02 -1.396499e-01
-1.591635e-02 4.781704e-02 6.510981e-04
2.137882e-02 -4.864941e-02 -4.317621e-04
-4.199634e-02 -2.451484e-02 4.352849e-03
-3.263609e-02 -3.988357e-02 -9.666237e-04
4.594121e-02 -2.820363e-02 -2.557950e-04
4.396088e-02 -2.823080e-02 -1.101650e-03
1.488215e-02 -4.690420e-02 -5.499688e-04
-1.046121e-02 5.216446e-02 -2.651302e-04
-3.820017e-02 -3.589875e-02 -8.580169e-05
-3.643045e-02 -3.757046e-02 -5.646631e-04
8.678022e-02 4.504268e-02 -1.391176e-01
4.247787e-02 -4.099390e-02 2.053237e-03
-9.933336e-04 5.315996e-02 -1.854998e-04
1.410142e-02 4.917417e-02 -7.195039e-05
-2.090561e-02 -4.721038e-02 -9.874916e-04
1.963133e-02 4.825278e-02 -8.649704e-04
2.151176e-02 5.342928e-02 -2.928143e-04
2.628081e-02 5.757045e-02 -1.467919e-03
-4.533142e-02 -3.120010e-02 -1.390866e-03
-5.353009e-02 -1.293207e-03 1.532159e-04
-2.999242e-02 4.346387e-02 -2.196675e-04
6.077237e-02 3.192267e-02 9.091759e-02
8.474545e-02 5.024437e-02 -1.391697e-01
-3.244459e-02 4.843163e-02 -1.340959e-03
-3.645566e-02 5.087638e-02 -4.643950e-03
-5.019315e-02 9.926177e-03 -1.671073e-04
-4.887652e-02 9.803196e-03 1.495579e-03
4.675255e-02 1.830632e-02 8.434087e-04
4.583406e-02 1.707074e-02 3.514620e-03
3.924662e-02 -3.047762e-02 2.157667e-03
-8.937432e-03 -5.204497e-02 -1.360931e-03
2.700477e-02 -4.349536e-02 -3.480604e-04
-3.653450e-02 3.114098e-02 -3.987470e-04
7.863562e-02 5.582354e-02 -1.387241e-01
5.268676e-02 1.228771e-02 1.506904e-03
5.050204e-02 1.420793e-03 1.310233e-03
4.805273e-02 -1.600257e-02 7.194318e-05
-4.271564e-02 -2.783863e-02 3.653381e-04
-4.447822e-02 -2.594235e-02 7.577720e-04
-2.490251e-02 5.049047e-02 -1.305948e-03
-5.270097e-02 1.031396e-03 -4.321624e-04
-8.143473e-03 -5.322641e-02 -7.409161e-04
2.939664e-02 4.056885e-02 -6.808734e-04
2.401379e-03 5.425853e-02 3.907888e-04
7.673596e-02 6.096080e-02 -1.393312e-01
4.868434e-02 1.153448e-02 3.672344e-04
-1.969808e-02 -4.491585e-02 3.330257e-04
-5.946023e-03 5.175399e-02 -9.606887e-04
-4.501571e-03 4.940613e-02 1.159379e-03
1.693689e-02 4.693829e-02 9.748440e-04
2.234796e-02 -4.624218e-02 -1.178003e-03
-1.447973e-02 5.303177e-02 5.678087e-04
5.331727e-02 1.035668e-02 -1.417637e-04
-2.787920e-02 4.454865e-02 -3.963489e-04
1.192003e-02 5.632362e-02 -1.799699e-04
7.835852e-02 7.000053e-02 -1.396508e-01
5.185672e-02 -1.670614e-02 -5.114438e-04
-2.594306e-02 4.259048e-02 -5.065932e-04
-4.859521e-02 9.398301e-03 1.152764e-03
-4.255989e-02 2.327993e-02 1.960319e-04
-3.686644e-02 3.282326e-02 -3.220999e-04
-2.349575e-02 5.705376e-02 -6.040172e-03
5.150790e-02 -1.851842e-02 -1.042210e-02
4.679129e-02 1.982660e-02 -4.502968e-04
-5.054862e-02 1.707343e-02 -4.488783e-04
4.760855e-02 2.677503e-02 -6.311880e-04
7.038170e-02 7.146257e-02 -1.399865e-01
3.498180e-02 -3.275306e-02 -4.430006e-04
-5.577126e-02 -4.663246e-03 3.476851e-06
5.509567e-02 7.148469e-03 -1.287969e-04
4.254763e-02 2.746134e-02 6.459551e-04
-1.510644e-03 -5.714130e-02 2.252085e-03
-3.223879e-03 5.014331e-02 -2.442604e-04
3.965242e-02 -4.060779e-02 1.701166e-04
4.885695e-02 1.216175e-04 4.848105e-04
-4.716932e-02 1.796604e-02 1.517753e-04
3.043535e-02 4.007401e-02 2.197763e-03
6.641954e-02 7.552668e-02 -1.398590e-01
-7.029578e-03 -5.158453e-02 -1.419292e-03
4.782519e-02 9.186295e-03 4.977383e-04
1.386440e-02 4.814122e-02 7.637971e-04
5.057389e-02 4.095482e-03 -4.247778e-04
4.033087e-02 -2.952720e-02 -4.017416e-04
4.466600e-02 -3.755094e-02 -5.221058e-03
4.423973e-02 -3.476615e-02 1.925187e-04
4.687729e-02 -3.584717e-02 -9.760838e-05
-5.062586e-02 -7.195794e-03 -1.637102e-03
-5.631961e-02 4.082470e-03 8.631222e-04
5.986377e-02 7.816633e-02 -1.395745e-01
-5.111027e-02 6.419841e-03 2.473637e-04
5.202245e-02 -3.339594e-02 -6.267907e-04
-5.239399e-02 7.198010e-03 -8.372873e-04
4.404139e-02 -2.530270e-02 -1.269251e-03
-2.359404e-02 -5.207972e-02 -5.116395e-04
-4.715974e-02 -1.875395e-02 -1.412997e-04
1.598370e-02 5.474846e-02 -1.266078e-03
3.879691e-02 4.462796e-02 -5.746111e-03
5.291910e-02 4.106925e-02 -4.780502e-03
4.129969e-02 3.516585e-02 -7.062226e-04
5.936062e-02 8.593373e-02 -1.393304e-01
4.424153e-02 3.818374e-02 -6.186975e-03
-8.250758e-03 4.872827e-02 1.629074e-03
-2.603194e-02 4.186605e-02 4.205934e-03
3.268311e-02 -5.164445e-02 -4.200430e-03
-3.751006e-02 -3.450718e-02 1.317851e-04
5.057525e-02 -8.076214e-03 1.597623e-05
1.782541e-02 4.944533e-02 1.113514e-03
-2.543801e-02 -4.375958e-02 4.091619e-04
-1.142103e-03 5.222344e-02 -1.108092e-03
4.546074e-02 2.189483e-02 2.509815e-04
4.860942e-02 8.459205e-02 -1.389016e-01
3.498353e-02 3.642607e-02 4.754382e-03
3.225694e-02 3.565843e-02 -1.474678e-03
3.463247e-02 3.611884e-02 -9.566308e-05
-5.207093e-02 -1.535303e-02 -4.504327e-05
-2.698402e-02 -4.526105e-02 -1.428144e-04
4.224807e-02 2.685517e-02 -1.279718e-03
3.462463e-02 4.334645e-02 -2.261599e-03
2.369040e-03 -4.787529e-02 7.376294e-04
-2.983161e-02 -5.606011e-02 4.273325e-03
5.177662e-02 -2.643826e-02 -1.908888e-03
4.443042e-02 8.745171e-02 -1.394246e-01
-4.748758e-02 -3.624908e-02 -2.962364e-03
-2.906311e-02 -5.324051e-02 -1.149632e-02
-2.520377e-02 -4.659570e-02 3.490726e-04
-2.744165e-02 -5.041243e-02 -5.241634e-04
-3.115489e-02 -4.779830e-02 -2.377096e-03
-2.581456e-02 -4.899652e-02 4.725556e-05
-4.667599e-02 1.695373e-02 -1.602993e-04
-2.273219e-02 5.836601e-02 -2.679407e-03
-3.598614e-02 -5.295462e-02 6.804348e-04
4.124129e-02 -4.345881e-02 1.260226e-03
5.524265e-02 3.307685e-02 9.068026e-02
3.950626e-02 9.121887e-02 -1.398732e-01
-5.055649e-03 -4.966816e-02 3.039790e-03
2.231987e-02 -4.377658e-02 3.232808e-03
-4.148217e-02 3.055852e-02 -1.750831e-04
4.455168e-02 -2.544631e-02 -9.223571e-06
5.211638e-02 -2.477458e-02 1.027236e-03
1.365172e-02 -5.491828e-02 -1.819216e-05
-4.442785e-02 2.365000e-02 5.758701e-04
-2.380746e-02 -4.394964e-02 9.270107e-04
5.195834e-02 -1.707909e-02 -9.245062e-04
-4.353288e-02 -3.169523e-02 2.290208e-05
3.327242e-02 9.149601e-02 -1.392621e-01
-3.479841e-02 -4.522001e-02 -5.982358e-04
-1.781863e-02 4.862337e-02 2.814660e-03
5.281380e-03 4.965200e-02 1.787084e-03
-3.797282e-02 -3.304612e-02 -2.162129e-04
-4.410545e-02 3.785536e-02 1.667610e-03
-4.705407e-02 -1.715574e-02 -3.759097e-04
5.106213e-03 -6.304808e-02 -1.366716e-03
-2.761342e-02 -4.196643e-02 5.434739e-04
-2.854234e-02 -4.422010e-02 -5.488649e-05
-2.947847e-02 -4.343677e-02 -1.277695e-04
2.680920e-02 9.141009e-02 -1.389638e-01
-4.607892e-02 -2.735024e-02 1.292580e-03
2.335619e-02 4.900508e-02 -1.836582e-03
-3.363268e-02 4.428194e-02 -3.615306e-04
-5.543137e-02 -1.906344e-02 -1.657113e-04
4.947863e-02 -7.119439e-03 -8.070954e-05
-5.206243e-03 -6.044503e-02 1.297749e-03
5.651352e-02 -1.263770e-03 -2.149212e-03
3.521202e-02 -3.412107e-02 5.860383e-03
-3.622700e-02 -3.577578e-02 6.573420e-05
-5.709828e-02 1.068400e-03 6.278717e-04
2.359399e-02 1.016843e-01 -1.394888e-01
-4.744023e-02 2.947019e-02 1.336475e-05
-9.485215e-03 4.890987e-02 1.336620e-03
-5.165785e-02 1.024517e-02 -4.126272e-04
-5.333026e-02 -1.193706e-02 4.014370e-04
3.713835e-03 5.390087e-02 -9.172394e-05
-5.449631e-02 -9.810282e-03 -3.435609e-04
5.116752e-02 -2.388605e-02 -5.370163e-04
-1.592701e-02 4.905423e-02 3.321084e-04
5.099683e-02 2.196358e-02 -6.687664e-04
5.462092e-02 1.845366e-03 -9.203213e-05
1.406497e-02 9.459345e-02 -1.408656e-01
-4.649416e-02 2.016528e-02 -6.837080e-06