# vtk DataFile Version 2.0
Electric current density generated by TTH
ASCII
DATASET UNSTRUCTURED_GRID
POINTS 236 double
1.500000e-05 0.000000e+00 0.000000e+00
1.365952e-05 6.198183e-06 0.000000e+00
7.268263e-06 -1.312145e-05 0.000000e+00
7.956314e-06 -1.271602e-05 0.000000e+00
8.621811e-06 -1.227454e-05 0.000000e+00
9.262869e-06 -1.179827e-05 0.000000e+00
9.877671e-06 -1.128856e-05 0.000000e+00
1.046447e-05 -1.074685e-05 0.000000e+00
1.102161e-05 -1.017468e-05 0.000000e+00
1.154751e-05 -9.573663e-06 0.000000e+00
1.204067e-05 -8.945510e-06 0.000000e+00
1.249971e-05 -8.292001e-06 0.000000e+00
1.331028e-05 6.916388e-06 0.000000e+00
1.292331e-05 -7.614987e-06 0.000000e+00
1.331028e-05 -6.916388e-06 0.000000e+00
1.365952e-05 -6.198183e-06 0.000000e+00
1.397004e-05 -5.462409e-06 0.000000e+00
1.424096e-05 -4.711151e-06 0.000000e+00
1.447152e-05 -3.946538e-06 0.000000e+00
1.466105e-05 -3.170739e-06 0.000000e+00
1.480903e-05 -2.385952e-06 0.000000e+00
1.491502e-05 -1.594402e-06 0.000000e+00
1.497874e-05 -7.983326e-07 0.000000e+00
1.292331e-05 7.614987e-06 0.000000e+00
1.497874e-05 7.983326e-07 2.000000e-07
1.491502e-05 1.594402e-06 2.000000e-07
1.480903e-05 2.385952e-06 2.000000e-07
1.466105e-05 3.170739e-06 2.000000e-07
1.447152e-05 3.946538e-06 2.000000e-07
1.424096e-05 4.711151e-06 2.000000e-07
1.397004e-05 5.462409e-06 2.000000e-07
1.365952e-05 6.198183e-06 2.000000e-07
1.331028e-05 6.916388e-06 2.000000e-07
1.292331e-05 7.614987e-06 2.000000e-07
1.249971e-05 8.292001e-06 0.000000e+00
1.249971e-05 8.292001e-06 2.000000e-07
1.204067e-05 8.945510e-06 2.000000e-07
1.154751e-05 9.573663e-06 2.000000e-07
1.102161e-05 1.017468e-05 2.000000e-07
1.046447e-05 1.074685e-05 2.000000e-07
9.877671e-06 1.128856e-05 2.000000e-07
9.262869e-06 1.179827e-05 2.000000e-07
8.621811e-06 1.227454e-05 2.000000e-07
7.956314e-06 1.271602e-05 2.000000e-07
7.268263e-06 1.312145e-05 2.000000e-07
1.204067e-05 8.945510e-06 0.000000e+00
6.559610e-06 1.348968e-05 2.000000e-07
5.832363e-06 1.381968e-05 2.000000e-07
5.088583e-06 1.411050e-05 2.000000e-07
4.330379e-06 1.436133e-05 2.000000e-07
3.559900e-06 1.457145e-05 2.000000e-07
2.779331e-06 1.474026e-05 2.000000e-07
1.990883e-06 1.486729e-05 2.000000e-07
1.196792e-06 1.495218e-05 2.000000e-07
3.993078e-07 1.499468e-05 2.000000e-07
-3.993078e-07 1.499468e-05 2.000000e-07
1.154751e-05 9.573663e-06 0.000000e+00
-1.196792e-06 1.495218e-05 2.000000e-07
-1.990883e-06 1.486729e-05 2.000000e-07
-2.779331e-06 1.474026e-05 2.000000e-07
-3.559900e-06 1.457145e-05 2.000000e-07
-4.330379e-06 1.436133e-05 2.000000e-07
-5.088583e-06 1.411050e-05 2.000000e-07
-5.832363e-06 1.381968e-05 2.000000e-07
-6.559610e-06 1.348968e-05 2.000000e-07
-7.268263e-06 1.312145e-05 2.000000e-07
-7.956314e-06 1.271602e-05 2.000000e-07
1.102161e-05 1.017468e-05 0.000000e+00
-8.621811e-06 1.227454e-05 2.000000e-07
-9.262869e-06 1.179827e-05 2.000000e-07
-9.877671e-06 1.128856e-05 2.000000e-07
-1.046447e-05 1.074685e-05 2.000000e-07
-1.102161e-05 1.017468e-05 2.000000e-07
-1.154751e-05 9.573663e-06 2.000000e-07
-1.204067e-05 8.945510e-06 2.000000e-07
-1.249971e-05 8.292001e-06 2.000000e-07
-1.292331e-05 7.614987e-06 2.000000e-07
-1.331028e-05 6.916388e-06 2.000000e-07
1.046447e-05 1.074685e-05 0.000000e+00
-1.365952e-05 6.198183e-06 2.000000e-07
-1.397004e-05 5.462409e-06 2.000000e-07
-1.424096e-05 4.711151e-06 2.000000e-07
-1.447152e-05 3.946538e-06 2.000000e-07
-1.466105e-05 3.170739e-06 2.000000e-07
-1.480903e-05 2.385952e-06 2.000000e-07
-1.491502e-05 1.594402e-06 2.000000e-07
-1.497874e-05 7.983326e-07 2.000000e-07
-1.500000e-05 1.084184e-19 2.000000e-07
-1.497874e-05 -7.983326e-07 2.000000e-07
9.877671e-06 1.128856e-05 0.000000e+00
-1.491502e-05 -1.594402e-06 2.000000e-07
-1.480903e-05 -2.385952e-06 2.000000e-07
-1.466105e-05 -3.170739e-06 2.000000e-07
-1.447152e-05 -3.946538e-06 2.000000e-07
-1.424096e-05 -4.711151e-06 2.000000e-07
-1.397004e-05 -5.462409e-06 2.000000e-07
-1.365952e-05 -6.198183e-06 2.000000e-07
-1.331028e-05 -6.916388e-06 2.000000e-07
-1.292331e-05 -7.614987e-06 2.000000e-07
-1.249971e-05 -8.292001e-06 2.000000e-07
9.262869e-06 1.179827e-05 0.000000e+00
-1.204067e-05 -8.945510e-06 2.000000e-07
-1.154751e-05 -9.573663e-06 2.000000e-07
-1.102161e-05 -1.017468e-05 2.000000e-07
-1.046447e-05 -1.074685e-05 2.000000e-07
-9.877671e-06 -1.128856e-05 2.000000e-07
-9.262869e-06 -1.179827e-05 2.000000e-07
-8.621811e-06 -1.227454e-05 2.000000e-07
-7.956314e-06 -1.271602e-05 2.000000e-07
-7.268263e-06 -1.312145e-05 2.000000e-07
-6.559610e-06 -1.348968e-05 2.000000e-07
1.500000e-05 0.000000e+00 2.000000e-07
8.621811e-06 1.227454e-05 0.000000e+00
-5.832363e-06 -1.381968e-05 2.000000e-07
-5.088583e-06 -1.411050e-05 2.000000e-07
-4.330379e-06 -1.436133e-05 2.000000e-07
-3.559900e-06 -1.457145e-05 2.000000e-07
-2.779331e-06 -1.474026e-05 2.000000e-07
-1.990883e-06 -1.486729e-05 2.000000e-07
-1.196792e-06 -1.495218e-05 2.000000e-07
-3.993078e-07 -1.499468e-05 2.000000e-07
3.993078e-07 -1.499468e-05 2.000000e-07
1.196792e-06 -1.495218e-05 2.000000e-07
7.956314e-06 1.271602e-05 0.000000e+00
1.990883e-06 -1.486729e-05 2.000000e-07
2.779331e-06 -1.474026e-05 2.000000e-07
3.559900e-06 -1.457145e-05 2.000000e-07
4.330379e-06 -1.436133e-05 2.000000e-07
5.088583e-06 -1.411050e-05 2.000000e-07
5.832363e-06 -1.381968e-05 2.000000e-07
6.559610e-06 -1.348968e-05 2.000000e-07
7.268263e-06 -1.312145e-05 2.000000e-07
7.956314e-06 -1.271602e-05 2.000000e-07
8.621811e-06 -1.227454e-05 2.000000e-07
7.268263e-06 1.312145e-05 0.000000e+00
9.262869e-06 -1.179827e-05 2.000000e-07
9.877671e-06 -1.128856e-05 2.000000e-07
1.046447e-05 -1.074685e-05 2.000000e-07
1.102161e-05 -1.017468e-05 2.000000e-07
1.154751e-05 -9.573663e-06 2.000000e-07
1.204067e-05 -8.945510e-06 2.000000e-07
1.249971e-05 -8.292001e-06 2.000000e-07
1.292331e-05 -7.614987e-06 2.000000e-07
1.331028e-05 -6.916388e-06 2.000000e-07
1.365952e-05 -6.198183e-06 2.000000e-07
6.559610e-06 1.348968e-05 0.000000e+00
1.397004e-05 -5.462409e-06 2.000000e-07
1.424096e-05 -4.711151e-06 2.000000e-07
1.447152e-05 -3.946538e-06 2.000000e-07
1.466105e-05 -3.170739e-06 2.000000e-07
1.480903e-05 -2.385952e-06 2.000000e-07
1.491502e-05 -1.594402e-06 2.000000e-07
1.497874e-05 -7.983326e-07 2.000000e-07
5.832363e-06 1.381968e-05 0.000000e+00
5.088583e-06 1.411050e-05 0.000000e+00
4.330379e-06 1.436133e-05 0.000000e+00
3.559900e-06 1.457145e-05 0.000000e+00
2.779331e-06 1.474026e-05 0.000000e+00
1.990883e-06 1.486729e-05 0.000000e+00
1.497874e-05 7.983326e-07 0.000000e+00
1.196792e-06 1.495218e-05 0.000000e+00
3.993078e-07 1.499468e-05 0.000000e+00
-3.993078e-07 1.499468e-05 0.000000e+00
-1.196792e-06 1.495218e-05 0.000000e+00
-1.990883e-06 1.486729e-05 0.000000e+00
-2.779331e-06 1.474026e-05 0.000000e+00
-3.559900e-06 1.457145e-05 0.000000e+00
-4.330379e-06 1.436133e-05 0.000000e+00
-5.088583e-06 1.411050e-05 0.000000e+00
-5.832363e-06 1.381968e-05 0.000000e+00
1.491502e-05 1.594402e-06 0.000000e+00
-6.559610e-06 1.348968e-05 0.000000e+00
-7.268263e-06 1.312145e-05 0.000000e+00
-7.956314e-06 1.271602e-05 0.000000e+00
-8.621811e-06 1.227454e-05 0.000000e+00
-9.262869e-06 1.179827e-05 0.000000e+00
-9.877671e-06 1.128856e-05 0.000000e+00
-1.046447e-05 1.074685e-05 0.000000e+00
-1.102161e-05 1.017468e-05 0.000000e+00
-1.154751e-05 9.573663e-06 0.000000e+00
-1.204067e-05 8.945510e-06 0.000000e+00
1.480903e-05 2.385952e-06 0.000000e+00
-1.249971e-05 8.292001e-06 0.000000e+00
-1.292331e-05 7.614987e-06 0.000000e+00
-1.331028e-05 6.916388e-06 0.000000e+00
-1.365952e-05 6.198183e-06 0.000000e+00
-1.397004e-05 5.462409e-06 0.000000e+00
-1.424096e-05 4.711151e-06 0.000000e+00
-1.447152e-05 3.946538e-06 0.000000e+00
-1.466105e-05 3.170739e-06 0.000000e+00
-1.480903e-05 2.385952e-06 0.000000e+00
-1.491502e-05 1.594402e-06 0.000000e+00
1.466105e-05 3.170739e-06 0.000000e+00
-1.497874e-05 7.983326e-07 0.000000e+00
-1.500000e-05 1.084184e-19 0.000000e+00
-1.497874e-05 -7.983326e-07 0.000000e+00
-1.491502e-05 -1.594402e-06 0.000000e+00
-1.480903e-05 -2.385952e-06 0.000000e+00
-1.466105e-05 -3.170739e-06 0.000000e+00
-1.447152e-05 -3.946538e-06 0.000000e+00
-1.424096e-05 -4.711151e-06 0.000000e+00
-1.397004e-05 -5.462409e-06 0.000000e+00
-1.365952e-05 -6.198183e-06 0.000000e+00
1.447152e-05 3.946538e-06 0.000000e+00
-1.331028e-05 -6.916388e-06 0.000000e+00
-1.292331e-05 -7.614987e-06 0.000000e+00
-1.249971e-05 -8.292001e-06 0.000000e+00
-1.204067e-05 -8.945510e-06 0.000000e+00
-1.154751e-05 -9.573663e-06 0.000000e+00
-1.102161e-05 -1.017468e-05 0.000000e+00
-1.046447e-05 -1.074685e-05 0.000000e+00
-9.877671e-06 -1.128856e-05 0.000000e+00
-9.262869e-06 -1.179827e-05 0.000000e+00
-8.621811e-06 -1.227454e-05 0.000000e+00
1.424096e-05 4.711151e-06 0.000000e+00
-7.956314e-06 -1.271602e-05 0.000000e+00
-7.268263e-06 -1.312145e-05 0.000000e+00
-6.559610e-06 -1.348968e-05 0.000000e+00
-5.832363e-06 -1.381968e-05 0.000000e+00
-5.088583e-06 -1.411050e-05 0.000000e+00
-4.330379e-06 -1.436133e-05 0.000000e+00
-3.559900e-06 -1.457145e-05 0.000000e+00
-2.779331e-06 -1.474026e-05 0.000000e+00
-1.990883e-06 -1.486729e-05 0.000000e+00
-1.196792e-06 -1.495218e-05 0.000000e+00
1.397004e-05 5.462409e-06 0.000000e+00
-3.993078e-07 -1.499468e-05 0.000000e+00
3.993078e-07 -1.499468e-05 0.000000e+00
1.196792e-06 -1.495218e-05 0.000000e+00
1.990883e-06 -1.486729e-05 0.000000e+00
2.779331e-06 -1.474026e-05 0.000000e+00
3.559900e-06 -1.457145e-05 0.000000e+00
4.330379e-06 -1.436133e-05 0.000000e+00
5.088583e-06 -1.411050e-05 0.000000e+00
5.832363e-06 -1.381968e-05 0.000000e+00
6.559610e-06 -1.348968e-05 0.000000e+00
CELLS 236 944
3 111 0 159
3 111 159 24
3 159 170 24
3 170 181 26
3 24 170 25
3 25 170 26
3 181 192 27
3 26 181 27
3 192 203 28
3 27 192 28
3 28 203 214
3 214 225 29
3 28 214 29
3 225 1 31
3 29 225 30
3 30 225 31
3 1 12 32
3 31 1 32
3 12 23 33
3 32 12 33
3 23 34 35
3 33 23 35
3 34 45 36
3 35 34 36
3 36 45 56
3 56 67 37
3 36 56 37
3 38 67 78
3 37 67 38
3 78 89 39
3 38 78 39
3 89 100 40
3 39 89 40
3 100 112 42
3 40 100 41
3 100 42 41
3 112 123 43
3 42 112 43
3 123 134 43
3 134 145 44
3 43 134 44
3 46 145 153
3 44 145 46
3 153 154 48
3 46 153 47
3 153 48 47
3 154 155 49
3 48 154 49
3 155 156 50
3 49 155 50
3 50 156 157
3 157 158 52
3 50 157 51
3 157 52 51
3 158 160 53
3 52 158 53
3 160 161 54
3 53 160 54
3 54 161 162
3 162 163 55
3 54 162 55
3 163 164 58
3 55 163 57
3 163 58 57
3 164 165 59
3 58 164 59
3 165 166 60
3 59 165 60
3 166 167 60
3 167 168 61
3 60 167 61
3 168 169 62
3 61 168 62
3 63 169 171
3 62 169 63
3 171 172 64
3 63 171 64
3 172 173 66
3 64 172 65
3 65 172 66
3 66 173 174
3 174 175 68
3 66 174 68
3 175 176 70
3 68 175 69
3 69 175 70
3 176 177 70
3 177 178 71
3 70 177 71
3 72 178 179
3 71 178 72
3 179 180 74
3 72 179 73
3 179 74 73
3 74 180 182
3 182 183 75
3 74 182 75
3 76 183 184
3 75 183 76
3 184 185 77
3 76 184 77
3 185 186 80
3 77 185 79
3 79 185 80
3 186 187 81
3 186 81 80
3 187 188 82
3 81 187 82
3 188 189 83
3 82 188 83
3 189 190 84
3 83 189 84
3 190 191 85
3 84 190 85
3 191 193 86
3 85 191 86
3 193 194 87
3 86 193 87
3 194 195 88
3 87 194 88
3 88 195 196
3 196 197 90
3 88 196 90
3 197 198 91
3 90 197 91
3 198 199 92
3 91 198 92
3 93 199 200
3 92 199 93
3 200 201 94
3 93 200 94
3 201 202 96
3 94 201 95
3 95 201 96
3 202 204 96
3 204 205 98
3 96 204 97
3 204 98 97
3 205 206 99
3 98 205 99
3 206 207 101
3 99 206 101
3 207 208 102
3 101 207 102
3 208 209 103
3 102 208 103
3 103 209 210
3 210 211 104
3 103 210 104
3 211 212 106
3 104 211 105
3 105 211 106
3 212 213 107
3 212 107 106
3 213 215 108
3 107 213 108
3 215 216 109
3 108 215 109
3 216 217 110
3 109 216 110
3 110 217 218
3 218 219 113
3 110 218 113
3 219 220 114
3 113 219 114
3 220 221 115
3 114 220 115
3 221 222 117
3 115 221 116
3 221 117 116
3 222 223 118
3 117 222 118
3 223 224 119
3 223 119 118
3 224 226 120
3 119 224 120
3 226 227 120
3 227 228 122
3 120 227 121
3 121 227 122
3 228 229 124
3 122 228 124
3 229 230 125
3 124 229 125
3 230 231 125
3 231 232 127
3 125 231 126
3 231 127 126
3 232 233 128
3 127 232 128
3 233 234 129
3 128 233 129
3 234 235 130
3 129 234 130
3 235 2 131
3 235 131 130
3 131 2 3
3 3 4 132
3 131 3 132
3 4 5 133
3 132 4 133
3 5 6 136
3 133 5 135
3 5 136 135
3 136 6 7
3 7 8 137
3 136 7 137
3 138 8 9
3 137 8 138
3 9 10 139
3 138 9 139
3 10 11 141
3 139 10 140
3 10 141 140
3 11 13 142
3 141 11 142
3 13 14 143
3 142 13 143
3 14 15 144
3 143 14 144
3 15 16 146
3 144 15 146
3 146 16 17
3 17 18 147
3 146 17 147
3 148 18 19
3 147 18 148
3 19 20 149
3 148 19 149
3 20 21 151
3 149 20 150
3 150 20 151
3 21 22 152
3 151 21 152
3 152 22 0
3 152 0 111
CELL_TYPES 236
5
5
5
5
5
5
5
5
5
5
5
5
5
5
5
5
5
5
5
5
5
5
5
5
5
5
5
5
5
5
5
5
5
5
5
5
5
5
5
5
5
5
5
5
5
5
5
5
5
5
5
5
5
5
5
5
5
5
5
5
5
5
5
5
5
5
5
5
5
5
5
5
5
5
5
5
5
5
5
5
5
5
5
5
5
5
5
5
5
5
5
5
5
5
5
5
5
5
5
5
5
5
5
5
5
5
5
5
5
5
5
5
5
5
5
5
5
5
5
5
5
5
5
5
5
5
5
5
5
5
5
5
5
5
5
5
5
5
5
5
5
5
5
5
5
5
5
5
5
5
5
5
5
5
5
5
5
5
5
5
5
5
5
5
5
5
5
5
5
5
5
5
5
5
5
5
5
5
5
5
5
5
5
5
5
5
5
5
5
5
5
5
5
5
5
5
5
5
5
5
5
5
5
5
5
5
5
5
5
5
5
5
5
5
5
5
5
5
5
5
5
5
5
5
5
5
5
5
5
5
5
5
5
5
5
5
POINT_DATA 236
VECTORS 10.000GHz_fone_imag double
3.287586e-02 -7.478839e-06 6.131357e-02
2.979966e-02 1.351588e-02 6.126741e-02
1.572671e-02 -2.815099e-02 6.101447e-02
1.717159e-02 -2.767652e-02 6.112253e-02
1.885881e-02 -2.703027e-02 6.140838e-02
2.041650e-02 -2.587486e-02 6.139241e-02
2.144896e-02 -2.458688e-02 6.126306e-02
2.302291e-02 -2.350655e-02 6.132205e-02
2.415149e-02 -2.239636e-02 6.139713e-02
2.543158e-02 -2.095620e-02 6.134668e-02
2.586693e-02 -1.911388e-02 6.097136e-02
2.713152e-02 -1.815180e-02 6.111907e-02
2.914365e-02 1.507624e-02 6.130950e-02
2.826886e-02 -1.661624e-02 6.130946e-02
2.917940e-02 -1.504554e-02 6.127246e-02
2.990077e-02 -1.360650e-02 6.132954e-02
3.082607e-02 -1.193672e-02 6.136048e-02
3.113177e-02 -1.032347e-02 6.133858e-02
3.176960e-02 -8.543911e-03 6.135210e-02
3.142180e-02 -6.727956e-03 6.097948e-02
3.215325e-02 -5.316656e-03 6.111392e-02
3.245496e-02 -3.473642e-03 6.125141e-02
3.276832e-02 -1.637656e-03 6.125567e-02
2.840760e-02 1.681165e-02 6.136490e-02
-3.280112e-02 -1.887757e-03 6.126702e-02
-3.262515e-02 -3.418192e-03 6.132373e-02
-3.246339e-02 -5.286895e-03 6.140289e-02
-3.167996e-02 -6.809271e-03 6.120550e-02
-3.171528e-02 -8.610594e-03 6.141262e-02
-3.096632e-02 -1.027585e-02 6.127573e-02
-3.075826e-02 -1.193348e-02 6.130415e-02
-2.974927e-02 -1.352757e-02 6.126633e-02
-2.908617e-02 -1.505475e-02 6.131565e-02
-2.819365e-02 -1.674664e-02 6.137431e-02
2.679825e-02 1.785670e-02 6.100207e-02
-2.671025e-02 -1.782815e-02 6.100146e-02
-2.622160e-02 -1.930630e-02 6.112715e-02
-2.521934e-02 -2.082089e-02 6.132671e-02
-2.414234e-02 -2.237815e-02 6.137834e-02
-2.301020e-02 -2.349697e-02 6.131408e-02
-2.143539e-02 -2.455551e-02 6.125387e-02
-2.034020e-02 -2.582139e-02 6.135443e-02
-1.859184e-02 -2.669337e-02 6.125010e-02
-1.715653e-02 -2.748658e-02 6.107190e-02
-1.580308e-02 -2.834807e-02 6.110348e-02
2.626234e-02 1.933856e-02 6.112989e-02
-1.444433e-02 -2.951153e-02 6.136390e-02
-1.271599e-02 -3.028968e-02 6.136808e-02
-1.117857e-02 -3.070964e-02 6.130137e-02
-9.443843e-03 -3.141169e-02 6.134898e-02
-7.759374e-03 -3.178135e-02 6.131676e-02
-6.009597e-03 -3.232597e-02 6.133497e-02
-4.187854e-03 -3.222851e-02 6.112637e-02
-2.635523e-03 -3.198128e-02 6.096746e-02
-1.009273e-03 -3.280452e-02 6.134727e-02
9.706846e-04 -3.286230e-02 6.137982e-02
2.531935e-02 2.090878e-02 6.132312e-02
2.529037e-03 -3.256215e-02 6.128960e-02
4.425121e-03 -3.234802e-02 6.128622e-02
6.030714e-03 -3.230699e-02 6.134184e-02
7.845503e-03 -3.157845e-02 6.124782e-02
9.439121e-03 -3.101734e-02 6.106996e-02
1.093141e-02 -3.066153e-02 6.113377e-02
1.270941e-02 -3.029341e-02 6.132340e-02
1.426775e-02 -2.925035e-02 6.124604e-02
1.590117e-02 -2.884879e-02 6.139047e-02
1.744340e-02 -2.765127e-02 6.135000e-02
2.413614e-02 2.236407e-02 6.138317e-02
1.887156e-02 -2.695063e-02 6.140390e-02
2.035633e-02 -2.578842e-02 6.138002e-02
2.143905e-02 -2.433101e-02 6.107895e-02
2.234973e-02 -2.306775e-02 6.096812e-02
2.405757e-02 -2.235841e-02 6.134715e-02
2.532897e-02 -2.091119e-02 6.137380e-02
2.620149e-02 -1.959787e-02 6.133507e-02
2.747382e-02 -1.816100e-02 6.139351e-02
2.815910e-02 -1.672493e-02 6.131707e-02
2.892542e-02 -1.500088e-02 6.123310e-02
2.301594e-02 2.348886e-02 6.131383e-02
2.967764e-02 -1.335202e-02 6.110924e-02
3.018929e-02 -1.188828e-02 6.106386e-02
3.085092e-02 -1.035639e-02 6.125380e-02
3.167197e-02 -8.578805e-03 6.136223e-02
3.188713e-02 -6.981960e-03 6.126184e-02
3.223431e-02 -5.101538e-03 6.124798e-02
3.261395e-02 -3.575152e-03 6.129939e-02
3.256466e-02 -1.661341e-03 6.130598e-02
3.270916e-02 4.062194e-05 6.122094e-02
3.253975e-02 1.656403e-03 6.126985e-02
2.144618e-02 2.458209e-02 6.125891e-02
3.234051e-02 3.546910e-03 6.119464e-02
3.234462e-02 5.200245e-03 6.127144e-02
3.204536e-02 7.040380e-03 6.126809e-02
3.189030e-02 8.670609e-03 6.138818e-02
3.069813e-02 1.023531e-02 6.117805e-02
3.018114e-02 1.187359e-02 6.105151e-02
2.968342e-02 1.334366e-02 6.112658e-02
2.919500e-02 1.508351e-02 6.130511e-02
2.792685e-02 1.654201e-02 6.125842e-02
2.756961e-02 1.838616e-02 6.144446e-02
2.040670e-02 2.587153e-02 6.135588e-02
2.663597e-02 1.975997e-02 6.135102e-02
2.513150e-02 2.072478e-02 6.129060e-02
2.404850e-02 2.235284e-02 6.133195e-02
2.236015e-02 2.305979e-02 6.096865e-02
2.154904e-02 2.440958e-02 6.111699e-02
2.037822e-02 2.583351e-02 6.135481e-02
1.879988e-02 2.675241e-02 6.132503e-02
1.745601e-02 2.777330e-02 6.137950e-02
1.584960e-02 2.873851e-02 6.135141e-02
1.444146e-02 2.957160e-02 6.131222e-02
-3.275361e-02 4.080199e-05 6.131050e-02
1.861612e-02 2.676750e-02 6.125010e-02
1.251063e-02 2.986502e-02 6.117645e-02
1.093273e-02 3.049639e-02 6.102700e-02
9.461575e-03 3.100422e-02 6.110256e-02
7.883760e-03 3.192655e-02 6.139619e-02
6.038833e-03 3.232648e-02 6.138182e-02
4.472113e-03 3.253315e-02 6.131828e-02
2.603143e-03 3.257955e-02 6.128669e-02
9.590342e-04 3.291716e-02 6.135166e-02
-9.229441e-04 3.259510e-02 6.128826e-02
-2.728105e-03 3.241606e-02 6.110964e-02
1.718101e-02 2.764208e-02 6.106919e-02
-4.164731e-03 3.192698e-02 6.102434e-02
-6.006457e-03 3.206440e-02 6.125489e-02
-7.878794e-03 3.200317e-02 6.135749e-02
-9.458903e-03 3.157510e-02 6.136484e-02
-1.111376e-02 3.075412e-02 6.129490e-02
-1.274541e-02 3.032701e-02 6.131342e-02
-1.428434e-02 2.928176e-02 6.123494e-02
-1.570733e-02 2.812790e-02 6.101346e-02
-1.713630e-02 2.753329e-02 6.112061e-02
-1.883445e-02 2.694910e-02 6.140540e-02
1.580603e-02 2.835945e-02 6.111432e-02
-2.037575e-02 2.583253e-02 6.138458e-02
-2.143636e-02 2.455574e-02 6.125761e-02
-2.300962e-02 2.348793e-02 6.131811e-02
-2.413484e-02 2.236431e-02 6.139387e-02
-2.532237e-02 2.084965e-02 6.135814e-02
-2.580006e-02 1.906767e-02 6.097445e-02
-2.700966e-02 1.811310e-02 6.112518e-02
-2.805344e-02 1.659684e-02 6.131897e-02
-2.913716e-02 1.502479e-02 6.127825e-02
-2.984713e-02 1.359225e-02 6.133127e-02
1.446674e-02 2.953465e-02 6.136882e-02
-3.076830e-02 1.192802e-02 6.136305e-02
-3.107563e-02 1.034085e-02 6.133669e-02
-3.167489e-02 8.554356e-03 6.135292e-02
-3.140984e-02 6.715901e-03 6.097826e-02
-3.210326e-02 5.305756e-03 6.111486e-02
-3.240943e-02 3.493086e-03 6.125223e-02
-3.273718e-02 1.668762e-03 6.125489e-02
1.273452e-02 3.039180e-02 6.136241e-02
1.118480e-02 3.075709e-02 6.130032e-02
9.425084e-03 3.149175e-02 6.134786e-02
7.757756e-03 3.178549e-02 6.131864e-02
6.015788e-03 3.235684e-02 6.133610e-02
4.175764e-03 3.232194e-02 6.112447e-02
3.284725e-02 1.864696e-03 6.127502e-02
2.629430e-03 3.203027e-02 6.096648e-02
9.758809e-04 3.288037e-02 6.134747e-02
-9.259765e-04 3.295150e-02 6.138047e-02
-2.521043e-03 3.262562e-02 6.128473e-02
-4.423888e-03 3.240753e-02 6.128239e-02
-6.032704e-03 3.232760e-02 6.133520e-02
-7.850182e-03 3.159777e-02 6.124771e-02
-9.434210e-03 3.109971e-02 6.107172e-02
-1.093339e-02 3.070451e-02 6.113650e-02
-1.272128e-02 3.037687e-02 6.131874e-02
3.268564e-02 3.401141e-03 6.132779e-02
-1.428073e-02 2.927987e-02 6.124619e-02
-1.589773e-02 2.886997e-02 6.138865e-02
-1.746106e-02 2.779731e-02 6.135118e-02
-1.889850e-02 2.704574e-02 6.140448e-02
-2.041758e-02 2.584551e-02 6.138225e-02
-2.146453e-02 2.438120e-02 6.107448e-02
-2.236357e-02 2.307716e-02 6.096961e-02
-2.408469e-02 2.239690e-02 6.134954e-02
-2.548906e-02 2.102908e-02 6.136350e-02
-2.626841e-02 1.961620e-02 6.133906e-02
3.251985e-02 5.285379e-03 6.141042e-02
-2.754987e-02 1.817862e-02 6.139725e-02
-2.836702e-02 1.676818e-02 6.130831e-02
-2.896583e-02 1.503405e-02 6.122865e-02
-2.975408e-02 1.336601e-02 6.110460e-02
-3.022502e-02 1.188223e-02 6.106719e-02
-3.088781e-02 1.035570e-02 6.125763e-02
-3.181884e-02 8.581724e-03 6.135948e-02
-3.192414e-02 6.995244e-03 6.126022e-02
-3.227475e-02 5.110818e-03 6.124893e-02
-3.266775e-02 3.563544e-03 6.129508e-02
3.171498e-02 6.810845e-03 6.120516e-02
-3.263403e-02 1.642070e-03 6.130846e-02
-3.286823e-02 1.700566e-05 6.121784e-02
-3.259025e-02 -1.658556e-03 6.126875e-02
-3.237490e-02 -3.552186e-03 6.119493e-02
-3.238870e-02 -5.183982e-03 6.126763e-02
-3.207624e-02 -7.051231e-03 6.126723e-02
-3.201260e-02 -8.658017e-03 6.139214e-02
-3.073612e-02 -1.022984e-02 6.117988e-02
-3.021207e-02 -1.187081e-02 6.105132e-02
-2.976102e-02 -1.337135e-02 6.111963e-02
3.184557e-02 8.612459e-03 6.140669e-02
-2.924040e-02 -1.511631e-02 6.130327e-02
-2.812971e-02 -1.657768e-02 6.125645e-02
-2.771864e-02 -1.838562e-02 6.133696e-02
-2.670915e-02 -1.977437e-02 6.145334e-02
-2.527997e-02 -2.084242e-02 6.127587e-02
-2.407775e-02 -2.236808e-02 6.132801e-02
-2.236458e-02 -2.307251e-02 6.097002e-02
-2.156561e-02 -2.444098e-02 6.111904e-02
-2.041796e-02 -2.587735e-02 6.135688e-02
-1.882064e-02 -2.681076e-02 6.132974e-02
3.100840e-02 1.026302e-02 6.127568e-02
-1.751267e-02 -2.791356e-02 6.137478e-02
-1.585735e-02 -2.877341e-02 6.134652e-02
-1.445865e-02 -2.961656e-02 6.130739e-02
-1.251788e-02 -2.995060e-02 6.116960e-02
-1.093289e-02 -3.053745e-02 6.102939e-02
-9.462844e-03 -3.108972e-02 6.110687e-02
-7.894904e-03 -3.196759e-02 6.139418e-02
-6.017622e-03 -3.235674e-02 6.138278e-02
-4.451894e-03 -3.258968e-02 6.132484e-02
-2.595549e-03 -3.262304e-02 6.128705e-02
3.076110e-02 1.194157e-02 6.130776e-02
-9.313373e-04 -3.298835e-02 6.135515e-02
8.889593e-04 -3.268179e-02 6.129228e-02
2.726064e-03 -3.247694e-02 6.111206e-02
4.162541e-03 -3.198623e-02 6.102303e-02
6.001640e-03 -3.206516e-02 6.125855e-02
7.870041e-03 -3.202169e-02 6.135923e-02
9.441549e-03 -3.165581e-02 6.136507e-02
1.112110e-02 -3.079062e-02 6.129262e-02
1.275867e-02 -3.040818e-02 6.130633e-02
1.429918e-02 -2.933358e-02 6.123120e-02
