# vtk DataFile Version 2.0
Electric current density generated by TTH
ASCII
DATASET UNSTRUCTURED_GRID
POINTS 23923 double
1.500000e-05 0.000000e+00 -1.000000e-07
1.481440e-05 2.352349e-06 -1.000000e-07
-5.905234e-08 1.499988e-05 -1.000000e-07
-1.497722e-05 -8.263164e-07 1.000000e-07
1.258070e-05 7.206491e-06 -1.000000e-07
1.408045e-05 -4.686522e-06 -1.000000e-07
-1.157362e-05 -3.172264e-06 -1.000000e-07
-5.584712e-06 -1.062187e-05 -1.000000e-07
4.897898e-07 1.361831e-05 -1.000000e-07
4.074640e-06 1.300368e-05 -1.000000e-07
-9.866983e-06 -6.591609e-06 -1.000000e-07
1.247363e-05 1.799320e-06 -1.000000e-07
-3.463815e-06 -1.322993e-05 -1.000000e-07
9.339315e-06 -9.986753e-06 -1.000000e-07
-1.496235e-05 -1.062055e-06 1.000000e-07
-8.373006e-06 8.466982e-06 -1.000000e-07
9.766050e-06 -1.063017e-05 -1.000000e-07
1.212859e-05 2.813208e-06 -1.000000e-07
8.627041e-06 7.886981e-06 -1.000000e-07
-1.384296e-05 4.162963e-06 -1.000000e-07
-9.313222e-06 9.947822e-06 -1.000000e-07
1.142586e-05 9.149996e-07 -1.000000e-07
-4.350663e-06 1.084906e-05 -1.000000e-07
-9.628508e-06 -1.123810e-05 -1.000000e-07
-7.970262e-06 -9.471242e-06 -1.000000e-07
-1.494378e-05 -1.297531e-06 1.000000e-07
3.534164e-06 1.442019e-05 -1.000000e-07
1.286998e-05 -6.607264e-06 -1.000000e-07
5.281146e-06 -1.059773e-05 -1.000000e-07
1.143570e-05 5.029590e-06 -1.000000e-07
-1.281648e-05 -1.334734e-06 -1.000000e-07
-8.416697e-06 9.309318e-06 -1.000000e-07
-8.942852e-06 -9.983115e-06 -1.000000e-07
1.094279e-07 1.248495e-05 -1.000000e-07
3.408031e-06 1.201130e-05 -1.000000e-07
1.039863e-05 -4.613041e-06 -1.000000e-07
-1.492149e-05 -1.532685e-06 1.000000e-07
1.235603e-05 5.064389e-06 -1.000000e-07
1.046148e-05 8.773862e-06 -1.000000e-07
-3.174482e-06 -1.102492e-05 -1.000000e-07
-1.909736e-06 1.098899e-05 -1.000000e-07
-1.023997e-05 4.440514e-06 -1.000000e-07
5.440751e-06 -1.031149e-05 -1.000000e-07
1.256727e-05 8.870969e-07 -1.000000e-07
-1.349096e-05 2.102510e-06 -1.000000e-07
2.333030e-06 1.190566e-05 -1.000000e-07
-8.081283e-06 9.261448e-06 -1.000000e-07
-1.489551e-05 -1.767459e-06 1.000000e-07
-9.368272e-06 -8.796171e-06 -1.000000e-07
-2.610745e-06 1.141694e-05 -1.000000e-07
1.092432e-05 6.303654e-06 -1.000000e-07
-1.285719e-06 1.254687e-05 -1.000000e-07
-1.335230e-05 5.571371e-06 -1.000000e-07
-1.106953e-05 -6.527296e-06 -1.000000e-07
4.560508e-06 -1.059187e-05 -1.000000e-07
1.053740e-05 4.959548e-06 -1.000000e-07
1.308681e-05 1.676424e-06 -1.000000e-07
-1.068861e-06 1.134410e-05 -1.000000e-07
-1.486583e-05 -2.001795e-06 1.000000e-07
-5.365944e-06 1.380075e-05 -1.000000e-07
1.969942e-06 1.122276e-05 -1.000000e-07
1.104020e-05 -5.634884e-06 -1.000000e-07
6.735285e-06 1.168018e-05 -1.000000e-07
-6.761024e-06 -9.454015e-06 -1.000000e-07
-1.068578e-05 -4.572072e-06 -1.000000e-07
1.202830e-05 -6.631339e-07 -1.000000e-07
1.429835e-05 -3.850392e-06 -1.000000e-07
1.380570e-05 4.574860e-06 -1.000000e-07
-1.298638e-05 3.635766e-06 -1.000000e-07
-1.483246e-05 -2.235634e-06 1.000000e-07
1.228770e-05 2.265208e-06 -1.000000e-07
-9.328384e-06 -6.913810e-06 -1.000000e-07
1.215716e-05 -1.472178e-06 -1.000000e-07
7.589238e-06 -9.477916e-06 -1.000000e-07
-9.380951e-06 1.108996e-05 -1.000000e-07
-4.279322e-06 1.276788e-05 -1.000000e-07
1.284143e-05 -4.115431e-06 -1.000000e-07
6.514366e-06 -1.179305e-05 -1.000000e-07
-6.022033e-06 1.213722e-05 -1.000000e-07
-5.315637e-06 1.194388e-05 -1.000000e-07
-1.479542e-05 -2.468919e-06 1.000000e-07
-1.417609e-05 5.156161e-07 -1.000000e-07
-9.777030e-08 1.254094e-05 -1.000000e-07
1.011434e-06 1.265505e-05 -1.000000e-07
4.322903e-06 1.193674e-05 -1.000000e-07
3.223023e-06 1.212010e-05 -1.000000e-07
1.220690e-05 -3.636277e-06 -1.000000e-07
-1.236368e-05 2.934256e-06 -1.000000e-07
-1.103682e-05 4.516633e-06 -1.000000e-07
9.510566e-06 1.048685e-05 -1.000000e-07
1.139157e-05 2.196084e-07 -1.000000e-07
-1.475471e-05 -2.701591e-06 1.000000e-07
6.235079e-06 -1.310363e-05 -1.000000e-07
9.794676e-06 -8.283282e-06 -1.000000e-07
4.997893e-07 1.325176e-05 -1.000000e-07
3.987324e-06 1.264754e-05 -1.000000e-07
2.584934e-06 -1.229773e-05 -1.000000e-07
-1.251157e-05 -1.190606e-06 -1.000000e-07
-1.248932e-05 -3.480835e-06 -1.000000e-07
1.114542e-05 7.709350e-06 -1.000000e-07
7.666420e-06 8.069173e-06 -1.000000e-07
1.084482e-05 -2.519157e-06 -1.000000e-07
-1.471034e-05 -2.933594e-06 1.000000e-07
-1.355384e-05 -3.253138e-06 -1.000000e-07
-3.139854e-06 1.336175e-05 -1.000000e-07
8.824216e-06 -9.014849e-06 -1.000000e-07
-1.282399e-05 -6.287544e-06 -1.000000e-07
-3.397238e-06 1.198713e-05 -1.000000e-07
1.355612e-05 -2.431983e-06 -1.000000e-07
-3.134020e-06 1.190470e-05 -1.000000e-07
-6.252289e-06 -1.025088e-05 -1.000000e-07
-1.135475e-05 -3.904019e-06 -1.000000e-07
-2.174690e-06 1.236447e-05 -1.000000e-07
-2.952434e-07 1.499709e-05 -1.000000e-07
-1.466232e-05 -3.164869e-06 1.000000e-07
-1.004133e-05 8.112885e-06 -1.000000e-07
1.164964e-05 -8.071714e-06 -1.000000e-07
-9.800735e-06 -1.108408e-05 -1.000000e-07
1.177709e-05 4.390283e-06 -1.000000e-07
-1.244462e-05 -5.670859e-06 -1.000000e-07
9.914679e-06 7.336594e-06 -1.000000e-07
1.307477e-05 5.700321e-06 -1.000000e-07
4.702340e-06 -1.374177e-05 -1.000000e-07
-1.874093e-06 -1.097676e-05 -1.000000e-07
7.417184e-06 8.559306e-06 -1.000000e-07
-1.461066e-05 -3.395360e-06 1.000000e-07
2.191813e-06 -1.434414e-05 -1.000000e-07
-1.434441e-05 -2.190061e-06 -1.000000e-07
-1.423143e-05 -4.137695e-06 -1.000000e-07
-7.100111e-06 -1.301086e-05 -1.000000e-07
-4.561479e-06 1.411871e-05 -1.000000e-07
-7.265522e-06 1.179177e-05 -1.000000e-07
-1.004438e-05 -8.866697e-06 -1.000000e-07
-9.590765e-06 -8.558148e-06 -1.000000e-07
-9.640413e-06 -9.658196e-06 -1.000000e-07
1.187846e-05 -4.778671e-06 -1.000000e-07
-1.455539e-05 -3.625008e-06 1.000000e-07
1.226280e-05 6.639108e-06 -1.000000e-07
5.526543e-06 1.166657e-05 -1.000000e-07
9.902869e-06 -6.089398e-06 -1.000000e-07
-1.011103e-05 5.309470e-06 -1.000000e-07
-8.867188e-06 7.190410e-06 -1.000000e-07
6.519981e-06 1.141895e-05 -1.000000e-07
2.696950e-06 1.430298e-05 -1.000000e-07
-3.768166e-06 1.401232e-05 -1.000000e-07
-9.822522e-06 -7.485277e-06 -1.000000e-07
1.005208e-05 -8.653143e-06 -1.000000e-07
-1.449650e-05 -3.853758e-06 1.000000e-07
-1.400760e-05 1.186854e-06 -1.000000e-07
9.237564e-06 9.827164e-06 -1.000000e-07
-5.339920e-06 -1.137532e-05 -1.000000e-07
6.543020e-06 -9.932299e-06 -1.000000e-07
-9.897467e-06 -6.785033e-06 -1.000000e-07
2.075519e-07 1.136325e-05 -1.000000e-07
3.205949e-06 1.090360e-05 -1.000000e-07
-1.061980e-05 -9.868670e-06 -1.000000e-07
7.028180e-06 9.180375e-06 -1.000000e-07
-8.560674e-06 -1.082760e-05 -1.000000e-07
-1.443402e-05 -4.081552e-06 1.000000e-07
7.534069e-06 -8.204887e-06 -1.000000e-07
-8.995938e-06 -8.503049e-06 -1.000000e-07
4.890606e-06 -1.399958e-05 -1.000000e-07
-1.063984e-05 -6.337581e-06 -1.000000e-07
-1.129970e-05 5.139911e-06 -1.000000e-07
1.382954e-05 -5.187658e-06 -1.000000e-07
-7.399612e-06 -9.055659e-06 -1.000000e-07
1.188884e-05 -5.687952e-06 -1.000000e-07
9.249244e-06 8.687222e-06 -1.000000e-07
7.443697e-06 -8.720679e-06 -1.000000e-07
-1.436796e-05 -4.308334e-06 1.000000e-07
1.441011e-05 -1.554296e-06 -1.000000e-07
8.136892e-06 -8.895525e-06 -1.000000e-07
1.174181e-05 -4.224026e-06 -1.000000e-07
-5.889991e-06 1.356474e-05 -1.000000e-07
-1.198872e-05 -8.675753e-06 -1.000000e-07
-1.144003e-06 1.236004e-05 -1.000000e-07
1.081177e-05 6.097935e-06 -1.000000e-07
-3.977790e-07 1.482928e-05 -1.000000e-07
1.232644e-05 4.747814e-06 -1.000000e-07
1.023699e-05 -6.541256e-06 -1.000000e-07
-1.429834e-05 -4.534047e-06 1.000000e-07
5.902604e-06 -9.966310e-06 -1.000000e-07
-2.480220e-06 1.330570e-05 -1.000000e-07
4.645539e-06 1.152503e-05 -1.000000e-07
1.431477e-06 1.234334e-05 -1.000000e-07
-7.106126e-06 1.019432e-05 -1.000000e-07
-9.187864e-06 8.366822e-06 -1.000000e-07
-3.263663e-06 -1.411514e-05 -1.000000e-07
-1.130496e-05 2.258748e-06 -1.000000e-07
2.472260e-06 -1.169959e-05 -1.000000e-07
-1.190415e-05 -1.132963e-06 -1.000000e-07
-1.422517e-05 -4.758636e-06 1.000000e-07
-1.012540e-05 -7.013457e-06 -1.000000e-07
7.811608e-06 9.325434e-06 -1.000000e-07
1.092251e-05 -5.955015e-06 -1.000000e-07
3.155923e-06 -1.067600e-05 -1.000000e-07
-1.113720e-05 -1.835744e-07 -1.000000e-07
5.166590e-08 -1.114246e-05 -1.000000e-07
1.071890e-05 3.032239e-06 -1.000000e-07
-5.494089e-06 -9.687105e-06 -1.000000e-07
-1.063455e-05 -3.280325e-06 -1.000000e-07
1.407450e-05 -1.770635e-06 -1.000000e-07
-1.414847e-05 -4.982046e-06 1.000000e-07
2.573626e-06 1.305342e-05 -1.000000e-07
-1.023331e-06 1.329301e-05 -1.000000e-07
-7.215529e-06 1.264122e-05 -1.000000e-07
1.005254e-05 -1.091189e-05 -1.000000e-07
-1.129198e-05 -5.741836e-06 -1.000000e-07
-7.442794e-06 -1.129336e-05 -1.000000e-07
-1.624476e-06 -1.277110e-05 -1.000000e-07
-7.296706e-06 -1.007934e-05 -1.000000e-07
-1.141678e-05 -4.980487e-06 -1.000000e-07
-1.456433e-05 -7.154841e-07 -1.000000e-07
-1.406827e-05 -5.204219e-06 1.000000e-07
1.101626e-05 3.852299e-06 -1.000000e-07
7.024423e-06 -1.306525e-05 -1.000000e-07
1.309396e-05 -6.374760e-06 -1.000000e-07
-1.262933e-05 -4.841283e-06 -1.000000e-07
1.052834e-05 -7.851525e-06 -1.000000e-07
7.013644e-06 -8.999433e-06 -1.000000e-07
8.692720e-06 1.197220e-05 -1.000000e-07
-7.432660e-06 1.217079e-05 -1.000000e-07
-3.106917e-07 1.111496e-05 -1.000000e-07
2.640489e-06 1.080124e-05 -1.000000e-07
-5.313612e-07 1.499059e-05 -1.000000e-07
-1.398457e-05 -5.425103e-06 1.000000e-07
2.149363e-06 -1.223430e-05 -1.000000e-07
-1.231809e-05 -1.600757e-06 -1.000000e-07
6.685044e-06 -1.086601e-05 -1.000000e-07
5.518622e-06 -1.081090e-05 -1.000000e-07
6.998060e-06 -8.668781e-06 -1.000000e-07
-3.944316e-06 -1.267690e-05 -1.000000e-07
9.502870e-06 -9.284176e-06 -1.000000e-07
-1.435962e-05 -3.696565e-06 -1.000000e-07
-7.884814e-06 9.867271e-06 -1.000000e-07
-9.057048e-06 -6.883252e-06 -1.000000e-07
-1.389741e-05 -5.644641e-06 1.000000e-07
1.349584e-05 -5.316777e-06 -1.000000e-07
-6.808402e-06 -8.801235e-06 -1.000000e-07
6.526582e-06 -1.329613e-05 -1.000000e-07
[...]
POINT_DATA 23923
VECTORS 10.000GHz_fone_imag double
1.289782e+09 -4.778603e+11 -6.697502e+08
7.449840e+10 -4.691642e+11 -1.262941e+08
4.742211e+11 1.226473e+09 -5.269907e+08
-2.484459e+10 4.759276e+11 2.724436e+08
1.678884e+11 -2.938820e+11 1.438455e-06
-1.422552e+11 -4.239595e+11 -1.984772e+08
-1.086689e+11 3.974817e+11 -1.365266e+08
-3.601824e+11 1.891637e+11 -2.231756e+08
2.914607e+11 -1.216835e+10 -7.526232e+07
2.786987e+11 -8.770930e+10 1.601546e+08
-2.426577e+11 3.618499e+11 -2.971357e+08
4.752604e+10 -3.302160e+11 -3.872327e+08
-2.820617e+11 7.314396e+10 -3.348809e+07
-2.125925e+11 -2.000180e+11 7.865053e+07
-3.545072e+10 4.737874e+11 -3.260225e+08
3.107240e+11 3.055381e+11 -1.007222e+09
-2.468530e+11 -2.279773e+11 6.429861e+08
7.883941e+10 -3.421146e+11 -3.808005e-06
3.234043e+11 -3.576859e+11 -1.074400e+09
9.707055e+10 3.190739e+11 3.144239e+08
2.137438e+11 1.998304e+11 1.029474e-05
4.400462e+10 -5.557047e+11 -8.702613e+08
4.476299e+11 1.802147e+11 2.038296e+09
-3.196523e+11 2.723679e+11 1.395436e+08
-2.756159e+11 2.297776e+11 -4.019410e+08
-4.077763e+10 4.689875e+11 -3.053144e+07
4.348722e+11 -1.057729e+11 -3.485003e+08
-1.530056e+11 -2.981467e+11 1.119616e+08
-4.012371e+11 -1.976506e+11 7.374981e+08
1.396554e+11 -3.162818e+11 4.229739e+06
-3.259653e+10 3.149409e+11 -1.120207e+08
2.552422e+11 2.299657e+11 5.938450e+07
-2.199207e+11 1.963199e+11 2.222802e+08
3.417107e+11 -4.046307e+09 -1.989021e+08
3.333379e+11 -9.431121e+10 1.903546e+08
-2.428965e+11 -5.479214e+11 1.063467e+09
-4.700293e+10 4.722826e+11 2.506741e+08
1.119235e+11 -2.733596e+11 3.837662e+07
1.870368e+11 -2.240350e+11 1.181090e+08
-5.405750e+11 1.524872e+11 2.035541e+09
7.870472e+11 1.379153e+11 -1.760506e+09
3.087726e+11 7.106643e+11 -1.453306e+09
-4.376750e+11 -2.278829e+11 -4.965047e+08
2.433699e+10 -3.357397e+11 2.317153e-07
4.605936e+10 2.879656e+11 -2.713463e+08
3.825926e+11 -7.382691e+10 -4.445155e+07
2.779869e+11 2.399006e+11 -1.175819e+08
-5.736715e+10 4.720319e+11 -2.413552e+08
-2.166886e+11 2.307242e+11 7.536557e+08
4.607521e+11 1.055516e+11 3.932788e+08
1.683930e+11 -2.898644e+11 -5.365551e+08
3.376085e+11 3.467006e+10 -2.444068e+08
1.294237e+11 3.096737e+11 -2.646143e+08
-1.592995e+11 2.712542e+11 -5.096091e+07
-4.999873e+11 -2.150891e+11 1.560234e+09
2.126491e+11 -4.500491e+11 -7.544707e-05
3.704294e+10 -2.969597e+11 -2.623201e+08
5.914178e+11 5.563071e+10 -1.043957e+09
-6.197887e+10 4.693177e+11 6.319387e+08
4.057416e+11 1.583789e+11 -1.850352e+08
5.730739e+11 -9.999695e+10 1.403083e+09
-1.621082e+11 -3.172328e+11 2.464252e+08
2.549394e+11 -1.453859e+11 1.981013e+08
-4.177923e+11 2.984621e+11 -5.568926e+08
-2.021468e+11 4.739626e+11 -5.819498e+08
-2.410420e+10 -4.035061e+11 3.298241e+08
-1.090861e+11 -4.091200e+11 9.101038e+08
1.090759e+11 -3.292114e+11 8.173288e+08
7.787546e+10 2.816982e+11 -2.683722e+06
-7.033647e+10 4.665409e+11 -5.127269e+07
6.284742e+10 -3.412007e+11 -6.511964e-06
-3.009246e+11 4.080038e+11 2.310836e+08
-4.598288e+10 -3.686057e+11 -2.351421e+08
-2.984267e+11 -2.398940e+11 7.063071e+06
2.640673e+11 2.239224e+11 1.689056e+07
2.786275e+11 9.283238e+10 1.778940e+07
-8.966389e+10 -2.788425e+11 -2.089656e+08
-2.571450e+11 -1.418251e+11 7.615934e+07
2.618258e+11 1.299772e+11 -1.018540e+08
2.788290e+11 1.228464e+11 -3.842609e+08
-7.970305e+10 4.700147e+11 1.489372e+08
1.233339e+10 3.056528e+11 -1.392137e+08
3.390884e+11 4.398863e+09 1.144791e+09
3.261161e+11 -2.691661e+10 -8.176633e+07
3.074593e+11 -1.118890e+11 -2.084021e+08
3.312990e+11 -8.922196e+10 -2.529777e+08
-9.178903e+10 -3.112514e+11 -6.881036e+08
7.555321e+10 3.182587e+11 -1.505870e+08
1.599958e+11 3.895059e+11 9.041401e+07
2.273372e+11 -2.062477e+11 -1.642668e+08
1.251170e+10 -5.929203e+11 7.230465e-06
-8.453884e+10 4.669342e+11 -7.411615e+07
-3.095585e+11 -1.471362e+11 -2.367094e+08
-2.044239e+11 -2.434940e+11 3.684617e+08
2.980048e+11 -1.285733e+10 -1.414088e+08
2.837753e+11 -8.999052e+10 5.224465e+07
-3.298174e+11 -6.794925e+10 5.816840e+08
-3.292068e+10 3.342202e+11 1.620692e+08
-8.237351e+10 2.986723e+11 1.957541e+08
1.661095e+11 -2.415934e+11 -1.216861e+08
5.841923e+11 -5.601043e+11 2.580399e+08
-1.831274e+11 -7.720132e+11 2.003121e+09
-9.291891e+10 4.643479e+11 -5.507574e+08
-6.921788e+10 2.882660e+11 -1.674606e-07
2.836108e+11 6.632826e+10 -1.589895e+08
-2.397578e+11 -2.345458e+11 -2.780390e+08
-1.388128e+11 2.831290e+11 -1.842974e+08
3.338159e+11 9.342248e+10 4.579242e+07
-5.203089e+10 -2.876629e+11 4.237162e+07
3.561729e+11 9.203935e+10 -4.125479e+08
-3.519343e+11 2.139165e+11 -1.004815e+09
-1.339653e+11 3.945621e+11 -9.800328e+08
3.332584e+11 5.861164e+10 -6.798524e+08
4.802099e+11 9.868047e+09 3.968272e+08
-1.014488e+11 4.671016e+11 7.773378e+08
1.964521e+11 2.427490e+11 -5.716239e+08
-1.743273e+11 -2.517322e+11 -8.441180e+07
-3.139796e+11 2.768902e+11 3.539428e+08
1.176224e+11 -3.154269e+11 -3.235939e+08
-1.212978e+11 2.657161e+11 -6.086412e+06
2.162481e+11 -2.943881e+11 -6.912043e+08
1.246382e+11 -2.870750e+11 -4.741557e+08
-3.236211e+11 -1.102482e+11 -6.417926e+08
-8.027540e+11 1.372516e+11 7.222008e+07
4.930217e+11 -4.240029e+11 1.057920e+09
-1.074725e+11 4.574900e+11 -3.218154e+08
-3.431265e+11 -5.141987e+10 7.738429e+08
-5.335006e+10 3.436436e+11 -9.715451e+08
-1.221848e+11 4.159664e+11 5.386564e+08
-3.833017e+11 2.099605e+11 -3.565026e+08
4.208500e+11 1.346467e+11 3.408996e+07
2.493631e+11 1.539124e+11 7.920745e+07
-1.951436e+11 2.220792e+11 5.597707e+07
-2.099355e+11 2.356786e+11 -2.728849e+07
-2.067702e+11 2.055059e+11 1.410696e+08
-1.201170e+11 -2.969155e+11 -1.583048e+07
-1.119264e+11 4.588543e+11 7.261920e+08
1.405887e+11 -2.604117e+11 1.633218e+07
2.815630e+11 -1.331333e+11 -1.865660e+08
-2.618095e+11 -4.289958e+11 -4.843945e-06
2.689429e+11 5.129638e+11 -2.976796e+08
3.739020e+11 4.613169e+11 2.238547e+09
2.608650e+11 -1.492024e+11 -1.444811e+08
3.404748e+11 -6.436555e+10 -7.643083e+08
3.287113e+11 8.912140e+10 -2.057359e+08
-2.182530e+11 2.887191e+11 4.200455e+08
-1.950897e+11 -2.268920e+11 2.446948e+07
-1.230887e+11 4.591449e+11 -6.191900e+07
2.620971e+10 2.995602e+11 -3.859251e+07
2.133800e+11 -2.010030e+11 -2.936707e+07
-3.077918e+11 1.455235e+11 -3.235923e+08
-3.680901e+11 -2.429036e+11 1.228130e+06
-2.310568e+11 3.400624e+11 5.123658e+08
6.076835e+11 -1.330859e+10 2.911975e+09
5.816798e+11 -1.678298e+11 1.045281e+09
-2.293358e+11 2.463552e+11 -1.816831e+08
4.178073e+11 -3.224282e+11 -1.977833e+09
-2.305206e+11 1.809239e+11 2.236892e+08
-1.285511e+11 4.568076e+11 -4.420535e+08
-5.877145e+11 -5.420104e+11 4.567570e+07
-2.467786e+11 2.599333e+11 -6.508072e-06
-4.140289e+11 -1.423999e+11 2.860035e+08
-1.807300e+11 3.045985e+11 3.423617e+08
1.477952e+11 3.236912e+11 2.691888e+08
-1.419792e+11 -3.827736e+11 -1.101513e+09
-3.684750e+11 3.034053e+11 -8.200936e+08
-1.303100e+11 -2.726287e+11 2.560745e+08
2.248381e+11 -2.379673e+11 -6.861450e+08
-4.257106e+11 -3.606601e+11 1.626916e+09
-1.371515e+11 4.502033e+11 -2.475388e+08
-3.568893e+10 -3.336987e+11 8.827955e+07
-2.953366e+11 -2.682379e+11 -6.408607e+08
-1.168574e+11 -3.278194e+11 5.010993e+08
3.876227e+11 1.661668e+11 -4.219430e+07
-2.564009e+11 3.523388e+11 7.050533e+08
3.537191e+11 3.404989e+10 6.728615e+08
1.742899e+11 -3.087247e+11 -1.185810e-05
4.340784e+11 1.262128e+10 6.330628e+08
1.078193e+11 -2.796335e+11 -3.829138e+07
-2.096194e+11 -3.283104e+11 2.349378e+08
-1.401052e+11 4.463489e+11 7.945353e+08
-4.443601e+11 -2.651495e+11 -1.084477e+09
2.864136e+11 5.413033e+10 -5.564502e+06
3.262190e+11 -1.319302e+11 -4.020199e+08
3.543106e+11 -4.075044e+10 1.613087e+08
2.879263e+11 1.999062e+11 3.011734e+08
2.387089e+11 2.604192e+11 -1.438550e+08
-3.229012e+11 7.466782e+10 -1.006905e+08
1.008274e+11 5.149624e+11 6.067357e+08
-4.143135e+11 -8.614689e+10 -1.452341e+08
-4.142554e+10 4.168427e+11 -6.391149e+08
-1.492456e+11 4.505995e+11 -7.778249e+08
-2.077066e+11 3.017455e+11 -6.349388e+07
2.891673e+11 -2.439034e+11 2.361342e+08
-1.675120e+11 -3.067205e+11 -6.770207e+08
-7.849578e+11 -2.327950e+11 -1.097456e+09
-1.142009e+10 7.880784e+11 2.178983e+09
-7.898805e+11 -3.319957e+09 2.557143e+09
2.104052e+11 -7.556263e+11 7.530764e+08
-6.774624e+11 3.829550e+11 1.050350e+09
-2.429456e+11 7.832013e+11 -2.429505e+09
-3.857808e+10 -3.028558e+11 -3.819924e+07
-1.574877e+11 4.488652e+11 5.914984e+08
2.924264e+11 -5.756174e+10 -1.424679e+08
2.949569e+11 2.224624e+10 -3.545497e+07
3.087731e+11 1.762338e+11 -4.302568e+08
-3.187197e+11 -2.929879e+11 -3.719471e+08
-1.501306e+11 2.939455e+11 9.689802e+07
-2.454941e+11 1.603105e+11 8.564574e+07
-3.112492e+11 3.945757e+10 -7.905488e+07
-2.866551e+11 2.066803e+11 -7.273917e+08
-1.405108e+11 3.203045e+11 -1.122649e+08
-1.797795e+10 3.596950e+11 2.100735e+08
-1.666806e+11 4.444612e+11 -7.175775e+08
1.595670e+11 -4.572244e+11 -1.851157e+09
-3.826213e+11 -2.050064e+11 -1.765388e+08
-1.567202e+11 -3.216783e+11 -7.137690e+08
-1.037994e+11 2.732612e+11 -1.945140e+07
-1.818082e+11 -2.432357e+11 2.899180e+08
-4.591853e+11 -3.556025e+11 1.122644e+09
3.454167e+11 -2.536758e+11 -3.856427e+07
2.693635e+11 1.630166e+11 4.145488e+08
7.955881e+11 2.380930e+10 -1.650806e+09
7.677976e+11 -1.846792e+11 -1.988826e+09
4.738247e+11 1.892061e+10 2.935689e+08
-1.704850e+11 4.394175e+11 -6.497164e+07
-3.461708e+11 -6.008083e+10 -5.871158e+08
-4.607352e+10 3.497181e+11 6.318098e+07
-2.766831e+11 -1.702857e+11 -8.357711e+07
-3.478629e+11 -1.777412e+11 -1.577509e+08
-6.229550e+11 -5.031926e+11 1.173513e+09
-2.847247e+11 8.900437e+10 1.633556e+08
-2.085305e+11 -2.123561e+11 -3.636441e+08
-1.064106e+11 4.153066e+11 -2.090942e+07
2.574834e+11 2.050348e+11 1.588174e+07
-3.709740e+11 4.813503e+11 -1.286433e+09
-1.771239e+11 4.390371e+11 4.824408e+08
-1.229100e+11 -3.114179e+11 -4.722968e+08
-6.223792e+11 4.823157e+11 -4.981523e+08
-3.781433e+11 -1.878862e+11 5.068377e+08
-2.417842e+11 3.781098e+11 1.179781e+09
4.256674e+11 -5.601027e+10 -1.979122e+08
2.844842e+11 3.215803e+11 4.527356e+08
3.958365e+11 -1.664619e+11 9.137646e+07
1.713544e+11 3.992801e+11 6.910119e+07
-2.758688e+11 -1.990918e+11 -2.761153e+08
-2.598872e+11 5.372535e+11 -6.673780e-05
-1.860451e+11 4.391622e+11 -2.025495e+08
3.334818e+11 -4.322622e+11 3.598433e+08
2.877885e+11 -1.110265e+11 1.256231e+08
1.224780e+11 2.822825e+11 1.947037e+07
2.505781e+11 1.811955e+11 7.034540e+07
3.070757e+11 -3.055127e+10 -2.988156e+08
5.126962e+11 2.561324e+11 1.761629e+09
2.912364e+11 -1.686156e+11 2.853545e+08
-2.700665e+11 2.093166e+11 -6.751713e+08
-2.743408e+11 3.705960e+11 1.134057e+09
3.820759e+10 3.349619e+11 -1.790338e+08
-1.911820e+11 4.277403e+11 -6.441238e+08
3.290718e+11 1.576584e+11 5.885403e+08
4.632529e+10 3.329086e+11 -4.259824e+08
-2.184541e+11 4.303895e+11 -1.361787e+09
4.341902e+10 -3.352003e+11 2.502284e+08
3.372792e+11 -2.989840e+11 1.694343e+09
6.538284e+11 -4.528450e+11 -5.378833e+08
-1.158549e+11 3.900762e+11 -9.428686e+08
-3.483150e+11 1.951651e+11 -1.558160e+08
3.007999e+10 -4.061265e+11 3.007786e+08
4.202159e+11 9.199479e+10 -8.339773e+08
-1.968796e+11 4.315678e+11 3.092543e+08
-2.204650e+11 -2.603233e+11 -6.050032e+07
-2.659602e+11 1.303138e+11 -2.733863e+08
-1.623009e+11 3.006199e+11 -4.638760e+07
3.355572e+11 -5.856252e+10 2.584025e+08
-6.897813e+10 2.830477e+11 -2.455032e+08
-1.894442e+11 -3.125140e+11 -8.574908e+08
-2.762790e+11 -9.830797e+10 2.349696e+08
-1.784502e+11 -2.900918e+11 -2.798468e+08
-7.236314e+09 -3.320245e+11 -2.867129e+08
2.408744e+11 1.902864e+11 -1.190969e-06
-2.083384e+11 4.307843e+11 -2.059448e+08
3.311632e+10 8.207080e+11 -2.865401e+09
4.658723e+10 3.012736e+11 -3.564357e+08
-1.341088e+11 2.596262e+11 -9.146278e+07
-6.500428e+11 -4.998144e+11 -1.454673e+09
-1.096089e+11 3.335797e+11 2.630441e-06
-3.039800e+11 1.780237e+11 -1.381356e+09
-3.096299e+11 -1.575854e+11 -4.161275e+08
-2.236928e+11 1.891464e+11 3.583865e-06
1.955650e+11 -2.351652e+11 -5.120255e-05
-2.051596e+11 2.726602e+11 -2.856508e+08
-2.112912e+11 4.220368e+11 4.778684e+08
-5.783310e+11 -5.050422e+11 -2.506975e+08
-1.826189e+11 -2.512443e+11 1.265654e+08
-1.746057e+11 -4.559968e+11 -1.505739e+08
-2.952472e+11 -4.001261e+10 -8.499124e+07
-4.907212e+10 2.956183e+11 8.186293e+07
-2.691080e+11 2.284803e+11 7.973440e+08
3.228093e+11 2.915432e+11 4.436417e+08
-1.999830e+11 -3.296467e+11 -4.397821e+08
2.053443e+11 3.353921e+11 2.263069e+08
7.017886e+10 -4.040997e+11 -4.409328e+08
-2.207739e+11 4.258690e+11 -2.785007e+08
1.645972e+11 -2.475676e+11 7.817509e-07
-3.244100e+11 1.225859e+11 -3.781551e+08
4.927485e+10 5.453559e+11 3.091529e+08
4.225763e+11 5.839425e+10 4.918569e+08
2.178979e+11 -3.742454e+11 -3.539882e+08
1.774383e+11 3.013037e+11 -3.960042e+08
-3.398626e+11 2.545901e+10 3.936589e-06
2.911576e+11 3.300230e+11 3.582081e+08
4.373776e+11 -5.839637e+10 -3.882805e+08
3.608692e+11 2.439653e+11 3.693974e+08
-2.274335e+11 4.187468e+11 -8.346934e+07
3.931171e+11 -1.659962e+11 4.026238e+08
1.006756e+11 6.304713e+11 -6.666345e+08
2.143476e+11 -2.659004e+11 3.699582e+08
-2.121893e+11 -2.843818e+11 3.784096e+08
3.127200e+10 -4.602175e+11 -8.794934e+08
2.770418e+11 2.267994e+11 -4.642838e+07
-9.097835e+09 -3.539962e+11 -6.837403e+07
-1.406294e+11 -2.709725e+11 4.870959e+08
-2.245739e+11 -3.297686e+11 -6.351216e+08
-1.465580e+11 3.119699e+11 1.423583e+08
-2.353790e+11 4.162798e+11 7.518441e+08
7.169943e+11 -4.105407e+11 -1.740141e+09
4.823564e+11 3.572377e+11 -3.535808e+09
4.231660e+11 4.413223e+11 -3.905120e+09
-2.864327e+11 5.269766e+10 -6.453387e+07
-2.504831e+11 -1.708256e+11 -2.274301e+08
2.613215e+11 1.443563e+11 3.643056e+08
1.591682e+11 3.018477e+11 -4.310257e+08
2.167230e+11 2.683304e+11 3.769799e+07
2.900514e+11 1.780910e+11 2.058582e+08
1.529902e+11 2.666905e+11 -3.602454e+08
4.710358e+11 2.340776e+10 -6.289913e+07
-2.365228e+11 4.039837e+11 -4.567540e+08
3.099310e+11 1.218830e+11 6.675043e+08
-2.458994e+11 1.854010e+11 7.956946e-06
-4.880432e+11 2.378450e+11 -3.135301e+07
-3.892385e+11 -1.110897e+11 -3.762525e-05
-1.130483e+10 4.086082e+11 3.529599e+08
-4.058828e+11 -6.158967e+09 -1.683547e-06
1.057146e+11 -3.892524e+11 4.659086e-06
8.514472e+10 3.252221e+11 2.614432e+08
-8.598034e+10 -3.243871e+11 8.030351e-06
1.316495e+11 -2.606995e+11 -3.179106e+08
-2.409341e+11 4.025707e+11 9.062327e+08
-3.492225e+11 3.317989e+11 -1.745129e+08
2.231700e+11 1.916919e+11 1.817360e+08
-3.735455e+11 -3.274371e+11 -2.914762e-06
3.061928e+11 2.876511e+11 8.907588e+08
-2.745761e+11 -3.258293e+11 -2.337558e+08
-5.003549e+10 -2.876056e+11 -2.154688e-05
-1.713595e+11 -2.401156e+11 -3.412024e+08
3.541744e+11 -1.754263e+11 -4.239154e-07
1.651118e+11 3.626279e+11 3.387875e+08
-2.385846e+10 -4.266724e+11 3.612405e+08
-2.520531e+11 4.058156e+11 -2.350992e+08
2.534275e+11 2.269469e+11 2.060609e+08
1.317829e+11 -3.958506e+11 -3.414175e+08
-2.082632e+11 -2.089791e+11 -5.458183e+06
-2.829616e+11 8.639279e+10 -7.811646e-08
-1.903029e+11 -3.341603e+11 3.216137e-06
2.752161e+11 -1.612223e+11 -5.489375e+07
5.058599e+11 -3.161865e+10 2.253413e+09
4.874087e+11 -1.662521e+11 3.219121e+08
-4.497657e+11 -2.283677e+11 1.485958e+07
-2.864237e+11 1.044951e+11 1.594538e+08
-2.579693e+11 3.984189e+11 2.058404e+07
-3.568865e+11 1.473739e+11 2.018742e+08
3.614457e+11 -7.057933e+11 1.934587e+09
3.455322e+11 -5.879656e+09 3.865917e+08
3.282282e+11 -9.444303e+10 3.041301e+07
2.910360e+11 4.899000e+10 -3.610448e+08
2.858672e+11 -6.078581e+10 -1.624413e+08
-1.410964e+11 -3.469472e+11 1.024990e+08
-3.044002e+11 -3.890381e+10 -7.886639e+07
-5.223908e+10 3.012302e+11 2.679760e+08
2.290832e+11 -2.948117e+11 2.931220e-06
-2.665840e+11 3.970114e+11 8.488526e+07
-1.591535e+11 -2.868042e+11 -2.301957e+07
-4.456166e+10 -7.814906e+11 1.481764e+09
1.610447e+11 -2.592948e+11 3.212275e+08
3.064461e+11 4.074782e+10 -1.071750e-05
-2.759490e+11 2.610905e+11 -9.184183e+08
-3.305601e+11 3.307807e+11 -2.719992e+08
9.269897e+10 2.773654e+11 1.282596e+07
4.556562e+11 -6.658904e+11 -5.906885e+08
6.994806e+11 4.038294e+11 1.091711e+09
-4.512193e+10 -5.342590e+11 -4.455176e-06
-2.735123e+11 3.969835e+11 8.528170e+07
3.460971e+11 -7.310705e+11 1.068070e+09
-6.210977e+10 2.935332e+11 -3.852487e+07
2.380339e+11 2.120558e+11 -1.219263e-05
1.880401e+11 3.403770e+11 2.814344e+08
2.398664e+11 3.085686e+11 -1.002449e+08
3.379358e+11 1.977926e+11 -5.464072e+08
-1.335856e+11 -2.886641e+11 2.161446e+08
3.030529e+11 3.355329e+10 2.780037e+08
-2.913909e+11 7.375227e+11 2.477834e+09
-6.556923e+11 4.421393e+11 -9.475373e+07
-2.816717e+11 3.899548e+11 2.828924e+07
-2.107446e+11 -3.122346e+11 -3.851206e+08
-1.986490e+11 -4.225035e+11 -9.522628e+07
-1.792071e+11 -2.874775e+11 -6.153832e+08
3.048741e+11 -3.174851e+11 3.028190e+08
-3.854354e+11 -5.125060e+10 -6.090255e+08
-2.880973e+11 3.717568e+11 -1.514093e+09
-3.162843e+11 1.462616e+11 -6.401060e+08
9.581941e+10 4.248072e+11 3.825639e+08
-6.515741e+10 3.814952e+11 -5.026477e+08
3.388372e+11 -3.046878e+10 2.474131e+08
-2.843850e+11 3.854041e+11 -1.302311e+08
3.128627e+11 -1.175150e+11 4.535626e+08
2.328661e+11 2.426113e+11 5.259720e+08
2.987945e+11 -2.365988e+11 2.831082e+08
3.249727e+11 2.870544e+11 -8.038186e+08
-4.277992e+11 -6.882617e+10 5.885855e+07
-6.243660e+10 4.292141e+11 -8.700643e+08
-3.170286e+11 5.144456e+11 -2.649477e+09
-2.033840e+11 2.086402e+11 -1.242127e+08
-2.572335e+11 -1.990072e+11 -2.807968e-06
1.403653e+11 -2.717908e+11 -1.957007e+07
-2.879202e+11 3.762219e+11 9.028710e+07
-2.489593e+11 -1.615756e+11 2.294176e+07
6.064210e+08 -3.835636e+11 -2.323324e+07
-2.040711e+11 3.814247e+11 -4.987478e+08
-4.527926e+11 2.917981e+11 -2.309227e+09
-1.996829e+11 5.215419e+11 1.151972e+09
6.936775e+11 -3.487530e+11 3.989736e+08
-3.112566e+11 3.024165e+11 -9.186299e+08
-3.594227e+11 -5.665150e+10 6.235664e+08
-2.280757e+11 -2.642009e+11 -3.691511e+08
3.159233e+11 -1.737526e+11 -9.300949e+07
-2.978442e+11 3.767171e+11 -3.910947e+08
-5.350213e+10 3.640422e+11 1.441525e+08
3.041347e+11 -9.457361e+09 2.208398e+08
2.894516e+11 -8.829196e+10 2.328951e-06
1.418990e+11 3.933244e+11 -3.901592e+08
3.167023e+10 -3.026299e+11 -6.128356e+08
-1.250530e+11 2.767186e+11 -4.340682e+08
-2.707654e+11 -1.158837e+11 1.009362e+08
-1.397050e+11 -2.564080e+11 5.824971e+07
3.838312e+11 -9.513128e+09 -9.007619e+07
-3.108488e+11 9.709936e+10 8.472328e+07
4.765395e+11 3.039388e+10 -6.515890e+08
-3.054433e+11 3.753571e+11 5.518988e+08
-2.311811e+11 -2.382784e+11 -2.552570e+08
3.695101e+11 -1.086300e+11 -1.088289e+09
-3.363300e+11 4.377298e+10 -1.985746e+07
2.904752e+11 7.776376e+11 -1.695084e+09
1.037012e+10 -3.640626e+11 2.897297e+08
2.296275e+11 3.599976e+11 -1.899992e+08
-3.315333e+11 1.202451e+11 4.344408e+08
4.872037e+11 -1.418282e+10 -1.040965e+09
4.150185e+11 -9.690412e+09 -1.145398e+08
3.974071e+11 -1.186825e+11 -6.611843e+08
-3.109592e+11 3.661012e+11 -2.563284e+07
1.825228e+11 2.359583e+11 4.151748e-07
4.629148e+11 -1.404941e+11 -1.278935e+09
-3.519624e+11 2.462661e+11 -2.722937e+08
-1.420916e+11 2.559989e+11 3.575617e+08
4.157382e+11 -4.446835e+11 3.636521e+08
-7.916976e+11 -9.468088e+10 -1.949899e+08
-7.703101e+11 -1.293227e+11 1.304428e+09
-9.982636e+10 7.726180e+11 1.653724e+09
-1.393142e+11 7.601699e+11 7.206533e+08
-4.469550e+11 2.202402e+11 -2.866639e-06
-3.140483e+11 3.625108e+11 -1.150995e+08
-1.625902e+11 -2.726777e+11 -2.626197e+08
-2.953872e+11 7.098458e+10 1.569326e+08
-5.321357e+10 -4.463534e+11 -1.806786e+08
2.611585e+11 1.959746e+11 2.965658e+08
2.907068e+11 4.765161e+10 3.139138e+07
-2.184476e+11 2.014535e+11 -1.713089e-08
-1.688341e+11 2.431666e+11 1.724454e+08
-3.301840e+11 -1.002840e+11 9.017611e+08
9.393876e+10 -3.358732e+11 3.234697e+08
-8.451237e+09 3.452085e+11 -6.467453e+08
-3.174989e+11 3.530226e+11 -3.515661e+08
-3.445693e+11 -4.376850e+09 2.658315e+08
-3.690774e+11 5.071150e+11 5.866504e+07
1.731817e+11 2.792946e+11 7.922364e+07
2.654774e+11 -3.467104e+11 2.006664e+09
-3.089146e+11 5.344094e+11 5.698411e+08
1.670390e+11 -2.754056e+11 -1.464128e+08
3.179737e+11 4.076320e+10 2.018963e+08
-1.618519e+11 2.437671e+11 -1.434018e+08
-2.124274e+11 2.030070e+11 1.617666e+08
2.903481e+11 -4.320763e+10 2.716929e-06