# vtk DataFile Version 2.0
Electric current density generated by TTH
ASCII
DATASET UNSTRUCTURED_GRID
POINTS 5515 double
1.500000e-05 0.000000e+00 -1.000000e-07
1.466105e-05 3.170739e-06 -1.000000e-07
4.330379e-06 -1.436133e-05 -1.000000e-07
-1.163062e-05 6.758979e-06 -1.000000e-07
9.302195e-06 -1.013796e-05 -1.000000e-07
9.434603e-06 -9.607559e-06 -1.000000e-07
8.893602e-06 -1.049324e-05 -1.000000e-07
8.512779e-06 -1.060854e-05 -1.000000e-07
8.506467e-06 -1.095891e-05 -1.000000e-07
8.270690e-06 -1.119565e-05 -1.000000e-07
-1.345276e-05 -5.379677e-06 -1.000000e-07
1.050390e-05 -9.901507e-06 -1.000000e-07
-6.343139e-06 1.294025e-05 -1.000000e-07
5.088583e-06 -1.411050e-05 -1.000000e-07
-3.942714e-06 1.396509e-05 -1.000000e-07
1.129695e-05 -8.591695e-06 -1.000000e-07
-4.607639e-06 -1.264168e-05 -1.000000e-07
-9.411664e-06 -9.588767e-06 -1.000000e-07
7.825541e-07 1.450254e-05 -1.000000e-07
-4.134215e-06 1.289222e-05 -1.000000e-07
6.024787e-06 1.204358e-05 -1.000000e-07
1.122885e-05 -7.377641e-06 -1.000000e-07
-1.139966e-05 -7.829127e-06 -1.000000e-07
3.487419e-06 1.403842e-05 -1.000000e-07
5.832363e-06 -1.381968e-05 -1.000000e-07
-1.310099e-05 -6.353153e-06 -1.000000e-07
-1.794136e-06 1.436161e-05 -1.000000e-07
-1.224102e-05 5.566410e-06 -1.000000e-07
-8.443139e-06 1.049418e-05 -1.000000e-07
-1.300013e-05 3.693015e-06 -1.000000e-07
1.192349e-05 6.367447e-06 -1.000000e-07
1.412027e-05 -3.458878e-06 -1.000000e-07
1.132612e-05 9.091395e-06 -1.000000e-07
1.233655e-05 -6.152923e-06 -1.000000e-07
1.228887e-05 -5.681795e-06 -1.000000e-07
6.559610e-06 -1.348968e-05 -1.000000e-07
1.201074e-05 -6.670384e-06 -1.000000e-07
1.317532e-05 -2.819486e-06 -1.000000e-07
1.077979e-05 8.035742e-06 -1.000000e-07
1.417128e-05 -9.034875e-07 -1.000000e-07
1.449102e-05 -1.232589e-06 -1.000000e-07
1.424107e-05 -3.036753e-07 -1.000000e-07
-1.078821e-05 -8.645391e-06 -1.000000e-07
-1.081434e-05 -8.184009e-06 -1.000000e-07
-1.091526e-05 -7.764336e-06 -1.000000e-07
-1.040462e-05 -9.073150e-06 -1.000000e-07
7.268263e-06 -1.312145e-05 -1.000000e-07
4.200764e-06 -1.350660e-05 -1.000000e-07
-1.232963e-05 -5.544825e-06 -1.000000e-07
-1.364769e-05 -3.877206e-06 -1.000000e-07
-1.396397e-05 -4.157963e-06 -1.000000e-07
-1.377220e-05 -3.313677e-06 -1.000000e-07
7.250674e-06 1.137188e-05 -1.000000e-07
-9.336263e-06 9.574851e-06 -1.000000e-07
-1.308288e-05 6.345986e-06 -1.000000e-07
-6.805935e-06 -1.154447e-05 -1.000000e-07
1.452428e-05 1.129653e-06 -1.000000e-07
7.956314e-06 -1.271602e-05 -1.000000e-07
1.440359e-05 7.316896e-07 -1.000000e-07
1.420714e-05 1.166387e-06 -1.000000e-07
1.443962e-05 1.491466e-06 -1.000000e-07
1.432770e-05 1.938052e-06 -1.000000e-07
-1.334930e-05 8.207323e-07 -1.000000e-07
-1.346987e-05 5.220879e-07 -1.000000e-07
-1.373345e-05 8.100954e-07 -1.000000e-07
-1.348093e-05 1.150299e-06 -1.000000e-07
1.163469e-05 7.336494e-06 -1.000000e-07
1.328435e-07 -1.378589e-05 -1.000000e-07
8.621811e-06 -1.227454e-05 -1.000000e-07
-4.268107e-07 -1.377628e-05 -1.000000e-07
-7.875581e-07 -1.351230e-05 -1.000000e-07
-8.941038e-07 -1.377909e-05 -1.000000e-07
-1.296251e-05 4.709442e-06 -1.000000e-07
-1.395546e-05 4.195304e-06 -1.000000e-07
1.303913e-05 3.651176e-06 -1.000000e-07
-6.085146e-06 1.242199e-05 -1.000000e-07
-6.267929e-06 1.187316e-05 -1.000000e-07
-6.479640e-06 1.216722e-05 -1.000000e-07
-5.544969e-06 1.261776e-05 -1.000000e-07
9.262869e-06 -1.179827e-05 -1.000000e-07
-5.302913e-06 1.262219e-05 -1.000000e-07
-1.277128e-05 -3.955903e-06 -1.000000e-07
-1.311096e-05 -4.155646e-06 -1.000000e-07
-1.276011e-05 -4.325212e-06 -1.000000e-07
-1.271438e-05 -4.709055e-06 -1.000000e-07
-1.261167e-05 -5.123880e-06 -1.000000e-07
-1.306500e-05 -3.766483e-06 -1.000000e-07
-1.445074e-05 -1.970006e-06 -1.000000e-07
-1.412495e-05 -2.327663e-06 -1.000000e-07
-1.413260e-05 -1.872967e-06 -1.000000e-07
9.877671e-06 -1.128856e-05 -1.000000e-07
-1.443103e-05 -1.601225e-06 -1.000000e-07
-1.445755e-05 -1.221013e-06 -1.000000e-07
1.342621e-05 -1.277503e-06 -1.000000e-07
-2.288184e-06 1.323866e-05 -1.000000e-07
-2.597608e-06 1.336779e-05 -1.000000e-07
-2.254924e-06 1.355552e-05 -1.000000e-07
-1.974641e-06 1.331209e-05 -1.000000e-07
-1.616211e-06 1.353933e-05 -1.000000e-07
-1.335174e-06 1.361479e-05 -1.000000e-07
-5.363900e-07 1.336070e-05 -1.000000e-07
1.046447e-05 -1.074685e-05 -1.000000e-07
-2.698079e-07 1.365621e-05 -1.000000e-07
-9.195259e-07 1.339607e-05 -1.000000e-07
-6.677908e-07 1.372578e-05 -1.000000e-07
9.686538e-06 -9.881849e-06 -1.000000e-07
-1.449647e-05 1.206079e-06 -1.000000e-07
1.274405e-05 7.038849e-06 -1.000000e-07
8.693114e-06 1.069212e-05 -1.000000e-07
8.778599e-06 1.023024e-05 -1.000000e-07
8.241026e-06 1.101227e-05 -1.000000e-07
-1.245409e-05 -6.754910e-06 -1.000000e-07
1.447152e-05 3.946538e-06 -1.000000e-07
1.102161e-05 -1.017468e-05 -1.000000e-07
-1.041492e-05 9.012889e-06 -1.000000e-07
-9.930975e-06 9.049404e-06 -1.000000e-07
1.401005e-05 3.264066e-06 -1.000000e-07
-1.444500e-05 1.979676e-06 -1.000000e-07
-1.417288e-05 2.333885e-06 -1.000000e-07
-1.410664e-05 1.851581e-06 -1.000000e-07
-1.441757e-05 1.631027e-06 -1.000000e-07
1.103748e-05 9.442095e-06 -1.000000e-07
2.754385e-06 1.354560e-05 -1.000000e-07
2.488550e-06 1.345264e-05 -1.000000e-07
1.154751e-05 -9.573663e-06 -1.000000e-07
3.283489e-06 1.339208e-05 -1.000000e-07
3.574670e-06 1.299069e-05 -1.000000e-07
3.742277e-06 1.325901e-05 -1.000000e-07
3.799405e-06 1.293550e-05 -1.000000e-07
4.280633e-06 1.275639e-05 -1.000000e-07
4.626517e-06 1.282456e-05 -1.000000e-07
-6.301076e-06 -1.229330e-05 -1.000000e-07
-5.784121e-06 -1.254937e-05 -1.000000e-07
-5.248096e-06 -1.244430e-05 -1.000000e-07
4.307442e-06 1.313881e-05 -1.000000e-07
1.204067e-05 -8.945510e-06 -1.000000e-07
1.376503e-05 -1.323442e-06 -1.000000e-07
1.362180e-05 -1.890819e-06 -1.000000e-07
1.391014e-05 4.259321e-06 -1.000000e-07
3.681877e-06 -1.373908e-05 -1.000000e-07
3.483544e-06 -1.387796e-05 -1.000000e-07
1.365618e-05 5.067525e-06 -1.000000e-07
5.100730e-06 1.240897e-05 -1.000000e-07
-6.806531e-06 1.148588e-05 -1.000000e-07
-6.576242e-06 1.173370e-05 -1.000000e-07
-7.306136e-06 1.161030e-05 -1.000000e-07
1.249971e-05 -8.292001e-06 -1.000000e-07
-6.962290e-06 1.183878e-05 -1.000000e-07
1.394775e-05 -4.136866e-06 -1.000000e-07
-1.276942e-05 7.014128e-06 -1.000000e-07
-1.243507e-05 7.246083e-06 -1.000000e-07
-1.251059e-05 6.776206e-06 -1.000000e-07
-1.288147e-05 6.693811e-06 -1.000000e-07
1.355240e-05 4.291732e-06 -1.000000e-07
1.330543e-05 4.767965e-06 -1.000000e-07
-5.341936e-06 -1.270898e-05 -1.000000e-07
-7.664213e-06 -1.109113e-05 -1.000000e-07
1.292331e-05 -7.614987e-06 -1.000000e-07
2.455211e-07 1.341579e-05 -1.000000e-07
6.021528e-07 1.349351e-05 -1.000000e-07
3.432489e-07 1.370227e-05 -1.000000e-07
1.417808e-08 1.359935e-05 -1.000000e-07
-1.408392e-05 1.290156e-06 -1.000000e-07
-7.533869e-06 1.109540e-05 -1.000000e-07
-3.060418e-06 1.303588e-05 -1.000000e-07
-3.438213e-06 1.303684e-05 -1.000000e-07
-3.226123e-06 1.336396e-05 -1.000000e-07
-2.885190e-06 1.327558e-05 -1.000000e-07
1.331028e-05 -6.916388e-06 -1.000000e-07
-1.150887e-05 -8.968119e-06 -1.000000e-07
-1.155060e-05 -8.654611e-06 -1.000000e-07
-1.122972e-05 -8.825355e-06 -1.000000e-07
-8.643208e-06 1.165303e-05 -1.000000e-07
1.260383e-05 -5.764545e-06 -1.000000e-07
-1.109653e-05 -8.305795e-06 -1.000000e-07
-2.965635e-06 -1.421881e-05 -1.000000e-07
1.311806e-05 -6.310009e-06 -1.000000e-07
5.888347e-06 1.326973e-05 -1.000000e-07
-1.530442e-06 -1.336808e-05 -1.000000e-07
1.365952e-05 -6.198183e-06 -1.000000e-07
-1.165235e-06 -1.341813e-05 -1.000000e-07
-1.860072e-06 -1.349635e-05 -1.000000e-07
-1.479105e-06 -1.365288e-05 -1.000000e-07
7.388978e-06 1.248575e-05 -1.000000e-07
1.275294e-05 -5.262852e-06 -1.000000e-07
1.262172e-05 -4.805424e-06 -1.000000e-07
1.238514e-05 -5.213427e-06 -1.000000e-07
1.298826e-05 -4.781442e-06 -1.000000e-07
-6.569574e-06 1.267073e-05 -1.000000e-07
9.081011e-06 1.045391e-05 -1.000000e-07
1.397004e-05 -5.462409e-06 -1.000000e-07
-9.967969e-06 -1.061603e-05 -1.000000e-07
-9.902013e-06 1.059791e-05 -1.000000e-07
-2.296689e-06 -1.331196e-05 -1.000000e-07
-1.280818e-05 4.296547e-06 -1.000000e-07
1.364186e-05 -5.049393e-06 -1.000000e-07
1.192924e-05 -8.295542e-06 -1.000000e-07
9.712944e-06 -9.231058e-06 -1.000000e-07
1.156782e-05 -8.091902e-06 -1.000000e-07
1.333830e-05 3.740605e-06 -1.000000e-07
1.161406e-05 6.891995e-06 -1.000000e-07
1.424096e-05 -4.711151e-06 -1.000000e-07
1.310436e-05 -4.331342e-06 -1.000000e-07
-1.219036e-06 1.393164e-05 -1.000000e-07
5.924198e-06 -1.211689e-05 -1.000000e-07
6.002953e-06 -1.241487e-05 -1.000000e-07
5.626626e-06 -1.230134e-05 -1.000000e-07
6.240513e-06 -1.219268e-05 -1.000000e-07
6.517251e-06 -1.225240e-05 -1.000000e-07
6.780109e-06 -1.222701e-05 -1.000000e-07
7.298356e-06 -1.250128e-05 -1.000000e-07
7.621894e-06 -1.227610e-05 -1.000000e-07
1.447152e-05 -3.946538e-06 -1.000000e-07
-1.221376e-05 -7.788631e-06 -1.000000e-07
-9.655172e-06 -1.046224e-05 -1.000000e-07
1.312343e-05 6.255351e-06 -1.000000e-07
1.314622e-05 5.835218e-06 -1.000000e-07
1.281316e-05 6.213285e-06 -1.000000e-07
1.284373e-05 6.566850e-06 -1.000000e-07
9.110228e-06 9.772498e-06 -1.000000e-07
9.404904e-06 9.964836e-06 -1.000000e-07
9.050375e-06 1.008510e-05 -1.000000e-07
-1.410206e-05 3.362233e-06 -1.000000e-07
1.424096e-05 4.711151e-06 -1.000000e-07
1.466105e-05 -3.170739e-06 -1.000000e-07
-3.984205e-06 -1.366036e-05 -1.000000e-07
-9.740993e-06 9.820160e-06 -1.000000e-07
-1.015286e-05 9.441971e-06 -1.000000e-07
-4.635525e-06 -1.374632e-05 -1.000000e-07
1.110057e-05 8.793439e-06 -1.000000e-07
1.067290e-05 9.251581e-06 -1.000000e-07
-1.269267e-05 6.267062e-06 -1.000000e-07
-4.849640e-06 -1.298079e-05 -1.000000e-07
2.439412e-06 -1.326017e-05 -1.000000e-07
2.580076e-06 -1.355217e-05 -1.000000e-07
1.480903e-05 -2.385952e-06 -1.000000e-07
2.245395e-06 -1.338949e-05 -1.000000e-07
1.994897e-06 -1.382681e-05 -1.000000e-07
1.754379e-06 -1.399910e-05 -1.000000e-07
2.789094e-06 -1.332357e-05 -1.000000e-07
3.120339e-06 -1.337360e-05 -1.000000e-07
[...]
POINT_DATA 5515
VECTORS 10.000GHz_fone_imag double
6.754446e+09 -1.071398e+12 -1.796737e+09
1.717997e+11 -8.848729e+11 -4.270461e+09
-1.017025e+12 -3.000246e+11 -1.924460e+09
2.751016e+11 4.591117e+11 -1.125301e+09
-3.402227e+11 -2.976673e+11 8.203256e+08
-3.981556e+11 -3.670402e+11 -1.276969e+09
-3.301933e+11 -2.758592e+11 -1.331282e+10
-3.897583e+11 -3.039977e+11 -1.391808e+10
-3.332370e+11 -2.626307e+11 4.240941e+09
-3.720835e+11 -2.616849e+11 -1.531372e-06
-1.532152e+11 3.858400e+11 5.112884e+09
-2.838258e+11 -3.201485e+11 5.348576e+09
3.796267e+11 1.737467e+11 -3.798348e+09
-9.113321e+11 -3.521183e+11 -2.152567e+09
4.049384e+11 1.338914e+11 -4.505989e+09
-2.646171e+11 -3.281595e+11 -1.690463e+09
-4.680913e+11 1.787213e+11 8.286868e+09
-4.022598e+11 3.864271e+11 -1.002459e+10
4.551698e+11 -3.605840e+10 -6.928252e+09
4.814311e+11 1.701315e+11 -6.841649e+09
4.401775e+11 -2.307828e+11 5.045304e+09
-2.696262e+11 -4.144918e+11 4.299756e+09
-2.353309e+11 3.489989e+11 4.895961e+09
4.094458e+11 -7.857944e+10 2.953442e+09
-9.027715e+11 -3.782636e+11 7.319761e+08
-1.762737e+11 3.617912e+11 2.474396e+09
4.338959e+11 4.079100e+10 2.920942e+09
2.417616e+11 5.164077e+11 -1.537817e+10
4.448774e+11 3.502711e+11 -8.730614e+09
1.366971e+11 4.834895e+11 -2.877276e+09
2.369162e+11 -4.505695e+11 9.789575e+09
-1.021165e+11 -4.233781e+11 9.687534e+09
2.568663e+11 -3.105653e+11 -7.193248e+08
-2.249335e+11 -4.141949e+11 2.687681e-06
-2.173131e+11 -4.724599e+11 7.491658e+09
-8.832937e+11 -4.452086e+11 4.246244e+08
-2.374193e+11 -3.872293e+11 -1.361844e+09
-1.175718e+11 -5.150203e+11 4.142912e+09
3.072695e+11 -3.983900e+11 -1.892383e+09
-3.079084e+10 -4.076449e+11 1.232623e+10
-4.229579e+10 -4.377553e+11 -5.983130e+09
-8.839516e+09 -4.175648e+11 -1.667407e+09
-2.743294e+11 3.313373e+11 8.443516e+08
-3.484854e+11 4.101615e+11 -7.603245e+09
-2.964129e+11 4.713541e+11 1.089038e+10
-2.816100e+11 3.277263e+11 -1.234924e+10
-7.528032e+11 -4.241327e+11 -8.323051e+08
-3.967002e+11 -1.214753e+11 -1.110168e+10
-1.959517e+11 4.313902e+11 -1.028334e+09
-1.149111e+11 3.730902e+11 -1.096529e+10
-1.136398e+11 4.263548e+11 -1.084730e+10
-8.674687e+10 3.918506e+11 1.633073e+10
4.274884e+11 -2.600711e+11 7.696602e+09
3.265581e+11 3.910763e+11 -1.064680e+10
1.761738e+11 3.798047e+11 4.143333e+09
-4.209228e+11 2.610527e+11 3.984015e+09
3.525606e+10 -4.174287e+11 4.257770e+09
-8.225324e+11 -5.136558e+11 1.748585e+09
1.364166e+10 -4.230239e+11 3.448906e+09
3.699511e+10 -3.990922e+11 -4.692507e+08
4.546450e+10 -4.608038e+11 3.716693e+09
5.000721e+10 -4.208383e+11 -8.814236e+07
3.348787e+10 5.277844e+11 3.008780e+09
1.725148e+10 5.915775e+11 9.047752e+09
3.533936e+10 4.439406e+11 3.327353e+09
5.191423e+10 4.806611e+11 7.756641e+08
2.422789e+11 -3.874811e+11 -4.444712e+08
-4.273750e+11 -1.545868e+10 -3.101514e+08
-7.831561e+11 -5.563584e+11 4.081725e+09
-4.426087e+11 1.625920e+10 2.697510e+09
-4.912074e+11 3.387332e+10 -2.308619e+08
-4.290178e+11 3.516268e+10 8.769819e+09
1.283512e+11 3.988555e+11 5.393822e+09
1.057400e+11 3.744137e+11 -9.062351e+08
1.223321e+11 -4.439651e+11 -9.211815e+08
3.940219e+11 1.769993e+11 -1.601308e+08
5.419500e+11 2.925136e+11 9.276817e+09
3.769284e+11 2.171364e+11 -4.238780e+09
3.927456e+11 1.737590e+11 2.295985e+09
-9.297665e+11 -7.263355e+11 1.058879e+09
4.228817e+11 1.861055e+11 -2.991305e+09
-1.774729e+11 4.926236e+11 -6.508951e+09
-1.409615e+11 4.143086e+11 2.204624e+09
-1.520598e+11 5.189347e+11 -2.335264e+09
-1.730716e+11 4.545572e+11 -4.162879e+09
-1.817183e+11 4.974769e+11 7.160035e+08
-1.450279e+11 5.126114e+11 -2.748331e+09
-6.812686e+10 4.077216e+11 1.090533e+09
-6.868185e+10 4.026537e+11 -6.757604e+09
-4.890062e+10 3.891235e+11 4.389412e+09
-6.410657e+11 -5.610013e+11 -3.574590e+09
-3.957090e+10 4.387127e+11 -8.565566e+09
-3.744023e+10 4.482075e+11 2.962202e+08
-4.417997e+10 -4.808991e+11 -9.302654e+08
5.841506e+11 9.122691e+10 -3.358123e+09
4.712704e+11 9.538871e+10 2.529398e+09
4.415200e+11 6.931273e+10 2.087058e+10
5.049155e+11 7.968350e+10 2.146901e+09
4.745554e+11 6.340256e+10 -1.611537e+09
4.493937e+11 5.118375e+10 5.015839e+09
5.120427e+11 3.841825e+10 -2.308257e+09
-7.120485e+11 -6.692878e+11 -7.522723e+08
4.619215e+11 1.675509e+10 7.053518e+09
6.063067e+11 3.757503e+09 -2.895206e+09
4.496440e+11 2.259642e+10 5.285038e+09
-3.516129e+11 -3.105791e+11 -8.440621e-06
4.282524e+10 4.513062e+11 1.090621e+10
1.862147e+11 -3.502061e+11 1.951716e+09
3.474651e+11 -2.782854e+11 -1.090886e+10
3.843079e+11 -3.106786e+11 4.825735e+08
3.912451e+11 -2.834215e+11 -1.347294e-05
-1.741390e+11 3.365995e+11 7.346948e+09
2.529235e+11 -8.989914e+11 4.400521e+09
-6.761895e+11 -7.564796e+11 -2.097691e+08
3.410570e+11 3.645744e+11 2.433139e+09
3.565483e+11 3.820165e+11 -5.102726e+09
9.899377e+10 -3.899375e+11 3.153267e+09
9.161458e+10 4.335694e+11 -1.018188e+10
6.024708e+10 4.151409e+11 -8.518171e+09
5.246564e+10 3.997197e+11 -1.372845e+09
4.173777e+10 4.013065e+11 -5.861929e+09
2.791575e+11 -3.613127e+11 2.957549e+09
4.094807e+11 -8.604098e+10 -1.984178e+10
4.565157e+11 -8.170186e+10 5.778310e+09
-5.621790e+11 -6.807443e+11 -2.779413e+08
4.445373e+11 -1.131699e+11 -9.145669e+08
5.213037e+11 -1.462269e+11 -2.397774e+09
4.245114e+11 -1.179015e+11 -1.694338e+07
4.943004e+11 -1.526541e+11 1.144991e+10
4.794625e+11 -1.579776e+11 6.068330e+09
4.545240e+11 -1.790652e+11 -1.024442e+07
-3.826052e+11 1.944464e+11 7.484211e+09
-3.984448e+11 1.749399e+11 -1.229959e+10
-4.555347e+11 1.763406e+11 -3.052998e+09
4.059233e+11 -1.392954e+11 -4.411593e+09
-6.237895e+11 -8.334349e+11 1.913641e+08
-4.485318e+10 -4.621859e+11 4.341006e-07
-6.239699e+10 -4.888236e+11 9.364343e+09
1.315730e+11 -4.282895e+11 -1.225201e+10
-3.850326e+11 -1.039176e+11 3.996532e+09
-4.009177e+11 -9.057452e+10 -6.659459e+09
1.586080e+11 -3.899511e+11 2.698309e+09
4.934428e+11 -1.848975e+11 4.514355e+09
4.659156e+11 2.506006e+11 8.160858e+09
4.610535e+11 2.683624e+11 -9.033701e+08
4.114553e+11 2.541608e+11 2.174924e-05
-5.530727e+11 -8.403286e+11 -6.815158e+08
3.686814e+11 2.317508e+11 -4.743076e+09
-1.217652e+11 -4.103873e+11 -2.408667e+09
2.051186e+11 3.858027e+11 -3.544564e+09
2.079054e+11 3.489736e+11 1.312181e+10
1.818173e+11 3.500520e+11 -1.465624e+09
1.860329e+11 3.743215e+11 -1.121730e+09
1.248031e+11 -3.976774e+11 7.215790e+09
1.417132e+11 -3.699718e+11 1.436634e+09
-4.000113e+11 1.718346e+11 9.874289e+09
-4.733265e+11 3.100099e+11 9.796247e+09
-5.175402e+11 -8.880918e+11 1.351961e+09
5.111419e+11 -2.836957e+09 -4.764748e+09
5.108356e+11 -4.053381e+10 -1.074324e+08
4.397118e+11 -1.804536e+10 -2.370933e+09
4.928233e+11 -7.533977e+09 9.168775e+09
1.041655e+10 3.948435e+11 9.443848e+09
4.936611e+11 3.199585e+11 1.161715e+10
5.264968e+11 1.381673e+11 -1.386565e+10
5.055442e+11 1.404409e+11 3.992979e+09
4.176605e+11 1.021093e+11 -1.711452e+07
5.099422e+11 1.330084e+11 -3.466108e+09
-4.343943e+11 -8.245388e+11 -1.838905e+09
-2.571269e+11 3.286377e+11 -2.672797e+08
-2.659554e+11 3.778960e+11 -7.730621e+09
-2.449471e+11 3.146462e+11 -9.286533e+09
3.177860e+11 2.389725e+11 4.131802e+09
-1.624629e+11 -3.785786e+11 1.308875e+10
-2.430843e+11 3.584042e+11 1.403272e+09
-4.170061e+11 8.449727e+10 -4.967531e+09
-1.708463e+11 -3.632476e+11 3.806640e+09
3.787287e+11 -1.697504e+11 -4.809450e+09
-5.845741e+11 5.695217e+10 1.587251e+10
-3.834296e+11 -8.558201e+11 -8.840948e+08
-5.159855e+11 4.828397e+10 -4.508301e+09
-4.769164e+11 6.171309e+10 9.595420e+09
-5.004844e+11 5.156481e+10 -1.234002e-05
3.818472e+11 -2.220266e+11 3.143312e+09
-1.584764e+11 -4.123516e+11 1.007472e+10
-1.715822e+11 -4.720779e+11 7.458698e+09
-1.962520e+11 -4.685469e+11 -5.168768e+09
-1.472263e+11 -4.056730e+11 3.698167e+09
3.607240e+11 1.832013e+11 -7.687636e+09
3.214867e+11 -2.812495e+11 -2.431091e+09
-3.618521e+11 -9.174129e+11 9.702386e+08
-3.338474e+11 3.182099e+11 -4.610337e+09
3.190765e+11 3.007851e+11 5.347216e+09
-4.695912e+11 7.696079e+10 -5.679288e+09
1.555653e+11 5.272346e+11 -9.405251e+09
-1.571148e+11 -3.821037e+11 -7.223384e+09
-2.358920e+11 -3.441053e+11 1.883072e+09
-3.567053e+11 -3.826811e+11 4.816014e+09
-2.613536e+11 -3.483640e+11 -2.887072e+09
1.145720e+11 -4.035627e+11 1.730748e+09
2.188112e+11 -4.765332e+11 9.649780e+09
-3.285702e+11 -9.586716e+11 2.311842e+09
-1.401790e+11 -4.139949e+11 1.120386e+10
4.169913e+11 4.764517e+10 8.843549e+09
-4.418991e+11 -2.137743e+11 1.356398e+09
-4.182518e+11 -2.190761e+11 -1.707877e+10
-4.801233e+11 -2.394700e+11 -5.175311e+09
-4.740795e+11 -2.302185e+11 5.133323e+09
-3.777555e+11 -2.056601e+11 -9.756831e+09
-3.529540e+11 -1.942623e+11 -1.496921e+08
-3.519098e+11 -1.927221e+11 1.102721e+09
-3.601822e+11 -2.233394e+11 -2.244873e+09
-2.971616e+11 -1.081528e+12 -3.916409e+09
-2.177840e+11 3.328890e+11 2.554956e+09
-2.996209e+11 2.842502e+11 -9.289929e+09
1.633988e+11 -3.595168e+11 -2.765540e+09
1.941045e+11 -4.041137e+11 -5.338795e+08
1.825092e+11 -3.561271e+11 -2.177392e+09
1.941895e+11 -3.735940e+11 -1.321141e+09
4.004511e+11 -3.305235e+11 -7.416381e+09
3.294992e+11 -3.049792e+11 1.703311e+09
3.580882e+11 -3.424434e+11 2.011570e+09
9.336997e+10 4.041765e+11 1.719133e+09
3.328962e+11 -9.927984e+11 -9.432620e+08
-2.117034e+11 -9.307867e+11 2.623810e+08
-3.887987e+11 1.201446e+11 -4.425254e+09
3.340668e+11 3.057044e+11 3.412280e+09
2.757794e+11 3.026937e+11 9.350624e+09
-3.939975e+11 1.326014e+11 7.333027e+09
2.437940e+11 -3.310580e+11 -9.549105e+09
2.712736e+11 -3.145311e+11 -3.662972e+09
1.736716e+11 3.630766e+11 -1.566549e+10
-4.000107e+11 1.448023e+11 -8.022032e+09
-5.010161e+11 -9.076366e+10 -4.371450e+09
-4.307964e+11 -8.241663e+10 -2.667507e+09
-1.935415e+11 -1.179933e+12 -3.797073e+08
-5.321725e+11 -7.971159e+10 -6.253223e+09
-4.319109e+11 -4.246808e+10 7.065293e+09
-4.052457e+11 -1.608157e+10 -7.147334e+09
-4.579039e+11 -6.285206e+10 -1.009838e+10
-4.413546e+11 -1.012733e+11 1.106523e+10
-4.871277e+11 -1.248436e+11 4.439094e+08
4.403608e+11 1.362422e+11 -5.548756e+09
3.741725e+11 -2.476586e+11 -1.215424e-05
3.587189e+11 -2.321309e+11 -1.470771e+09
3.893541e+11 -2.675856e+11 6.133993e+09
-1.066314e+11 -9.992623e+11 -2.960301e+09
3.987786e+11 -2.813179e+11 -2.350123e+09
2.746401e+11 4.131560e+11 -3.052668e+09
2.253567e+11 3.503286e+11 4.777017e+09
2.292300e+11 3.399579e+11 -8.516974e+09
2.231963e+11 3.417085e+11 3.653092e+09
-2.602614e+11 -3.309404e+11 2.080251e+09
-3.802228e+11 1.197115e+11 -5.187067e+09
-3.309037e+11 -2.338052e+11 -6.730351e+09
-5.229012e+11 -4.509805e+10 -1.500137e+09
4.228399e+11 -3.179614e+10 -1.666660e+09
-7.477572e+10 -1.013706e+12 -8.158959e+08
1.972041e+11 3.561000e+11 -7.086297e+09
-3.859666e+11 1.026232e+11 1.605852e+07
-4.504533e+11 -1.059596e+11 4.598545e+09
-3.332781e+11 -2.257844e+11 -2.288569e+09
-4.068933e+11 -3.550544e+10 1.263817e+09
4.142980e+11 -7.419616e+10 4.305024e+09
-1.222478e+11 -3.833647e+11 9.640444e+09
-9.810131e+10 -3.909199e+11 5.586588e+09
2.568081e+11 -3.576396e+11 4.525842e+09
2.448240e+11 -3.437506e+11 -3.283514e+09
1.056129e+11 -1.333450e+12 -6.760528e+08
2.691862e+11 -3.941330e+11 -6.380207e+09
3.259245e+11 -4.763437e+11 -8.974685e+09
2.668136e+11 -3.953622e+11 1.947479e+09
-4.625487e+11 1.798839e+11 -9.112820e+08
3.868893e+11 1.660050e+11 2.500157e+09
-1.647770e+11 3.419064e+11 1.016601e+10
-3.516033e+11 2.641699e+11 -3.370056e+09
-3.352859e+11 2.458867e+11 -5.909461e+09
1.787176e+11 4.025048e+11 -3.387272e+08
1.661076e+11 4.109282e+11 2.707104e+09
2.064558e+11 -1.523825e+12 -3.760007e+09
1.511246e+11 4.725393e+11 -1.696882e+09
1.945960e+11 4.999516e+11 7.799074e+09
1.797235e+11 4.414755e+11 -2.162246e+09
3.820037e+11 -9.747693e+10 4.841210e+08
-4.000950e+11 9.007868e+10 2.279612e+09
-4.012245e+11 8.844618e+10 2.702667e+08
-4.301139e+11 -1.054689e+10 -7.066324e+09
-5.081767e+11 -2.141442e+10 1.182996e-05
-4.818551e+11 -2.567333e+10 -1.927091e+08
-4.432150e+11 -2.815005e+10 -8.148769e+09
2.838325e+11 -1.379804e+12 -1.058108e+09
-1.155546e+10 -4.334001e+11 -4.474696e+09
2.971891e+11 2.776152e+11 3.976626e+09
3.527692e+11 -1.928455e+11 7.075571e+09
1.945036e+10 -4.100439e+11 7.371854e+09
-9.611792e+10 4.343158e+11 -3.192006e+09
-9.350746e+10 4.103524e+11 3.583040e+09
-8.523198e+10 3.949291e+11 -4.421920e+09
-9.046724e+10 4.079130e+11 5.212788e+09
-8.406628e+10 3.839989e+11 1.989023e+09
-6.785042e+10 3.762680e+11 3.397066e+09
3.040096e+11 -1.315489e+12 -6.638231e+09
-1.468668e+11 -3.830310e+11 1.697789e+09
4.147550e+10 -4.059467e+11 -1.434718e+09
3.341939e+11 2.474209e+11 -7.351067e+09
3.132412e+11 2.593081e+11 1.722744e+09
3.396993e+11 2.884477e+11 -1.006876e+10
6.862592e+10 4.014077e+11 -1.991307e+10
-3.433997e+10 4.040259e+11 3.667131e+09
3.102947e+11 2.688531e+11 9.870472e+08
3.597019e+11 -2.004966e+11 -4.977258e+08
3.677146e+11 -1.977416e+11 4.737584e+09
3.969713e+11 -1.245250e+12 -2.608558e+09
3.961334e+11 -6.838293e+10 -1.950926e+09
3.807964e+11 1.740452e+11 -1.248008e+09
-1.542436e+11 4.364800e+11 -4.964282e-07
2.226391e+11 3.434793e+11 -7.464834e+09
3.653156e+11 -1.890665e+11 -1.440254e+09
3.902113e+11 -1.926640e+11 -2.172071e-06
1.632951e+11 -3.999093e+11 -1.143025e+10
-2.972701e+11 -3.306416e+11 4.911278e+09
4.175666e+11 1.437779e+11 2.049969e-06
4.100792e+11 -5.449010e+10 1.911227e+09
4.881811e+11 -1.221618e+12 4.656146e+09
-2.449101e+11 -4.108847e+11 -5.615802e+09
-7.759732e+10 -5.153296e+11 8.677235e+09
1.894764e+11 -3.649857e+11 -7.211682e+09
-3.694872e+11 4.337729e+11 6.545468e+09
1.106297e+11 3.869693e+11 -2.227302e+09
-1.913848e+11 3.855393e+11 -4.862941e+09
9.260108e+10 3.924325e+11 7.701613e+09
2.447860e+11 3.449673e+11 5.299548e+09
-8.339946e+10 -4.299577e+11 3.227566e+09
-9.382088e+10 -4.221082e+11 -1.831916e+10
3.958479e+11 -1.000648e+12 -8.346522e+08
5.476609e+11 -1.212375e+12 1.214578e+09
4.239267e+11 -1.024267e+10 2.449284e+09
4.117470e+11 -4.096306e+10 -1.399239e+09
4.790932e+11 -1.245948e+11 -1.022177e+10
5.065897e+11 -1.284718e+11 7.746126e+09
-4.229343e+11 7.772996e+09 -3.960099e+08
3.963136e+11 1.129956e+11 -2.057771e+09
3.985438e+11 1.299763e+11 1.015064e+10
-3.903864e+11 -1.684271e+11 1.587356e+10
-2.123963e+11 3.610854e+11 -3.308125e+09
-3.155909e+11 2.744981e+11 2.901459e+09
6.179041e+11 -1.183995e+12 3.960955e+09
-2.654127e+11 -3.895480e+11 2.167324e-06
-2.257468e+11 -3.375620e+11 1.146023e+09
-3.931058e+11 -9.983797e+10 1.120186e+09
4.062240e+11 7.892302e+10 8.187631e+09
-2.982441e+11 3.308906e+11 -3.955614e+09
-3.029004e+11 2.976092e+11 4.486357e+09
-3.360982e+11 -3.402577e+11 -1.889019e+10
4.515138e+11 -3.776063e+09 3.155502e-06
3.973503e+11 -1.335701e+11 3.143807e+09
-3.791965e+11 1.661830e+11 -2.393800e+09
7.642704e+11 -1.310701e+12 9.997319e+08
4.001519e+11 -1.698239e+11 -2.272618e+09
4.347008e+11 -1.929394e+11 8.465176e+09
4.651357e+11 -1.930516e+11 -1.330390e+09
-2.287365e+11 3.804773e+11 -8.634280e+08
-2.476907e+10 4.346367e+11 4.716354e+09
3.693816e+11 2.568825e+11 1.921373e-06
3.922725e+11 2.831286e+11 -1.317082e+10
4.298293e+11 3.414044e+11 -6.793854e+08
8.739657e+10 4.031694e+11 1.149178e+10
7.847618e+10 4.064109e+11 3.592624e+08
7.614371e+11 -1.058406e+12 2.365850e+09
1.510471e+11 -3.861683e+11 -4.061630e+09
1.637264e+11 -4.002530e+11 -3.454783e+09
-2.640627e+11 -3.173072e+11 -1.563701e+09
-4.181385e+11 6.926080e+10 6.339009e+09
-3.629608e+11 -2.302189e+11 4.139582e-07
2.727531e+11 3.047819e+11 4.445390e+09
1.045331e+11 -4.330722e+11 1.373862e+10
1.162391e+10 -4.337596e+11 7.050901e+09
-1.331248e+11 -3.953384e+11 -1.380183e+09
-2.137259e+11 3.543176e+11 -4.101069e+09
8.248001e+11 -1.034213e+12 2.719283e+09
-2.254280e+11 3.591170e+11 7.765590e+09
3.818389e+11 1.839106e+11 1.194649e+09
2.479442e+10 4.111160e+11 1.228773e+09
-4.075124e+11 6.303520e+10 4.107903e+09
3.331189e+11 -2.403123e+11 7.591563e+09
4.282040e+11 -1.803180e+10 4.593708e+09
7.396908e+10 -3.880104e+11 2.613380e+09
-3.827074e+11 1.646073e+11 9.122363e+09
4.306269e+11 5.700398e+10 6.959352e+09
4.307927e+11 3.208761e+10 4.273461e+09
1.100462e+12 -1.217592e+12 3.074261e+09
3.858639e+11 -1.340646e+11 5.384054e+09
-3.872474e+11 -1.835256e+11 2.203335e+09
4.387512e+11 1.124692e+11 4.007669e+09
7.588158e+10 -4.335491e+11 2.602953e+09
3.517116e+11 2.110369e+11 3.505249e+09
4.840447e+11 -9.009396e+10 6.639220e+09
-1.374620e+11 -4.339870e+11 -1.086661e+10
3.534800e+11 2.044331e+11 6.521060e+09
5.768800e+10 3.888109e+11 -3.911274e+08
1.935606e+11 3.550952e+11 -2.731538e+09
1.054863e+12 -9.926573e+11 -1.175998e+09
2.663852e+11 3.057882e+11 -1.579185e+09
4.954929e+11 2.368206e+11 -6.900094e+09
-2.126186e+11 -5.519287e+11 1.183209e+10
1.795634e+11 -3.720716e+11 1.854975e+10
1.415663e+11 4.439359e+11 -7.678435e+09
2.060857e+11 -3.815306e+11 -1.683683e+10
-2.663676e+11 -2.974687e+11 -2.038109e+09
-2.920961e+10 4.347880e+11 -6.437888e+09
6.268585e+10 -4.292200e+11 -2.150022e+09
2.361329e+11 -3.462557e+11 3.051906e+09
1.060854e+12 -9.521262e+11 -1.794971e+09
-4.758400e+11 2.294278e+10 -1.972361e+10
3.998129e+11 3.034147e+10 1.664889e+10
-3.557439e+11 -3.140861e+11 1.677947e+10
-3.832638e+09 -4.565009e+11 1.050544e+10
1.515261e+11 3.627283e+11 3.812709e+09
3.146261e+11 -2.273964e+11 -5.508380e+09
-4.071450e+11 5.382830e+10 1.638241e+09
7.366154e+10 -4.090107e+11 -4.971535e+09
3.947651e+11 -1.533940e+11 -4.864527e+09
3.261793e+09 -4.200994e+11 -1.125568e+10
1.298512e+12 -1.009434e+12 1.078251e+09
-2.254162e+11 -3.510193e+11 5.324836e+09
-3.483744e+11 -4.065023e+11 -6.355707e+09
-2.873418e+11 -3.407423e+11 2.252253e+09
-3.005160e+11 -4.145692e+11 5.256257e-06
-6.684492e+10 4.249454e+11 -5.377381e+09
3.071701e+10 4.422222e+11 -5.802380e+08
3.533132e+10 4.047045e+11 3.719350e+08
-2.861835e+11 -4.038376e+11 -1.017019e+10
6.386279e+10 4.173624e+11 5.035388e+09
-2.061878e+11 -3.639881e+11 1.408574e+09
1.253036e+12 -8.383038e+11 1.170811e+09
-4.216661e+11 1.814096e+11 -1.354511e+10
-1.444641e+11 3.877998e+11 -7.343933e+09
4.563161e+11 -1.522833e+11 3.581769e+09
4.350616e+11 -3.843285e+11 1.020864e+10
3.693818e+11 -4.528223e+11 -9.809472e+07
2.880899e+11 -3.102547e+11 4.470600e+09
3.042142e+11 -3.910831e+11 4.107721e+09
4.188746e+11 8.744757e+10 6.982590e+09
3.429665e+11 2.407596e+11 8.541882e+09
-4.841244e+11 -2.865920e+11 -1.897881e+09
3.967477e+11 -8.703456e+11 1.343625e+09
1.181794e+12 -6.856482e+11 -6.897766e+09
-3.117582e+11 3.130509e+11 -6.925484e-06
-7.018082e+10 -4.187615e+11 -1.845328e-06
4.029514e+11 -1.481024e+11 -3.087854e+09
-3.369081e+11 1.990467e+11 1.130210e+09
4.119232e+11 1.287041e+10 2.660485e+09
1.559315e+11 -3.779338e+11 -7.479948e+09
2.952396e+11 -3.033269e+11 3.019056e+09
2.863771e+11 -2.840900e+11 -4.680956e+09
2.873063e+11 -2.812830e+11 -2.543417e+09
-1.368249e+11 4.175837e+11 -6.696298e+09
1.168120e+12 -5.887740e+11 -1.703901e+09
-3.935266e+11 2.324964e+11 -3.435848e-05
2.048852e+11 -3.590482e+11 -6.857031e+08
3.697296e+11 -3.257910e+11 1.092594e+10
-4.197268e+11 -6.348200e+09 -4.292375e+09
-4.708674e+11 2.500085e+11 -2.276814e+09
-2.179849e+11 -4.531560e+11 3.584903e+09
-3.015489e+11 3.781755e+11 2.988682e+09
-5.119290e+11 2.822427e+11 -1.044118e+09
-3.550306e+11 2.109115e+11 4.610713e+09
-4.139298e+11 2.796445e+11 5.596980e+09
1.357487e+12 -5.888664e+11 -3.694676e+09
-3.896434e+11 2.435083e+11 -2.431215e+09
-4.264183e+11 1.962327e+11 -1.033038e+10
1.598606e+11 3.769507e+11 -1.240614e+10
4.615741e+11 2.114224e+11 2.625553e+09
-4.658543e+11 2.981479e+11 -7.465833e+09
-4.019873e+11 -3.745076e+11 4.867128e+09
-4.072911e+11 3.835394e+10 2.063841e+09
-3.729558e+11 -1.784268e+11 -6.227686e+09
2.458070e+11 3.241197e+11 -4.202226e+09
-1.946063e+11 -3.599946e+11 3.806766e+09
1.267688e+12 -4.684559e+11 -4.179980e+09
-2.068413e+11 -4.171218e+11 -1.400883e+10
-4.272019e+11 -1.066430e+11 1.294358e+10
1.738464e+11 3.793056e+11 2.419016e+09
-3.746382e+11 1.924424e+11 2.828013e+09
-1.401260e+11 -3.924234e+11 -7.860628e+09
-2.782259e+11 3.378985e+11 5.707312e+09
-3.904042e+11 3.015732e+11 5.578057e-06
3.794866e+11 1.367316e+11 -2.684876e+09
4.187300e+11 -6.099479e+10 1.434989e+09
-2.574508e+11 3.162546e+11 3.540228e+09
1.277248e+12 -3.722004e+11 2.602381e+09
3.205937e+11 3.561369e+11 1.537077e+09