# vtk DataFile Version 2.0
Electric current density generated by TTH
ASCII
DATASET UNSTRUCTURED_GRID
POINTS 1298 double
1.500000e-05 0.000000e+00 0.000000e+00
1.466105e-05 3.170739e-06 0.000000e+00
4.330379e-06 -1.436133e-05 0.000000e+00
1.289485e-05 3.631417e-06 2.000000e-07
1.288353e-05 -3.705982e-06 2.000000e-07
-1.337126e-05 8.166842e-07 2.000000e-07
-1.337126e-05 -8.166842e-07 2.000000e-07
1.324046e-05 2.035032e-06 2.000000e-07
1.300643e-05 2.419304e-06 1.000785e-07
7.227985e-06 1.268342e-05 9.998808e-08
1.247748e-05 -7.805455e-06 9.999664e-08
-1.035783e-05 8.218715e-06 1.000017e-07
-9.733766e-06 1.087721e-05 1.000157e-07
5.088583e-06 -1.411050e-05 0.000000e+00
-8.016029e-06 1.049876e-05 9.997912e-08
-1.110722e-05 8.461942e-06 9.999975e-08
-1.323319e-05 6.437223e-06 9.999999e-08
1.187107e-05 5.840977e-06 9.999974e-08
2.633645e-06 -1.294984e-05 1.000102e-07
8.678193e-06 -9.975856e-06 9.999111e-08
1.141304e-05 -9.236958e-06 1.000474e-07
1.292620e-05 2.830518e-06 9.937968e-08
8.364385e-06 -1.024053e-05 9.999250e-08
-8.371564e-06 1.033597e-05 1.000079e-07
5.832363e-06 -1.381968e-05 0.000000e+00
3.045161e-06 -1.288067e-05 1.000070e-07
-1.301089e-05 6.794133e-06 1.000066e-07
1.169946e-05 6.197709e-06 9.998672e-08
1.266940e-05 -7.432636e-06 1.000072e-07
-1.011935e-05 8.523763e-06 1.000178e-07
1.469559e-05 -1.805321e-07 9.998579e-08
1.461862e-05 1.378988e-06 9.998706e-08
1.323774e-05 6.461374e-06 1.000031e-07
1.330550e-05 -6.242540e-06 1.000110e-07
-1.417990e-05 -3.886476e-06 9.999144e-08
6.559610e-06 -1.348968e-05 0.000000e+00
-1.421711e-05 3.691261e-06 9.998724e-08
1.386570e-05 4.968236e-06 1.000028e-07
-1.454082e-05 -2.160485e-06 9.999007e-08
-1.458285e-05 1.726066e-06 1.000125e-07
1.450237e-05 2.502804e-06 9.992898e-08
-1.467644e-05 -8.044488e-07 9.998191e-08
-1.467764e-05 8.069958e-07 1.000108e-07
-9.362926e-06 -9.388393e-06 9.998110e-08
6.899271e-06 1.165976e-05 1.000003e-07
-4.634133e-06 -1.244554e-05 1.000112e-07
7.268263e-06 -1.312145e-05 0.000000e+00
-4.275223e-06 1.285575e-05 1.000010e-07
1.442546e-06 1.347457e-05 1.000044e-07
1.890128e-06 -1.314457e-05 1.000136e-07
1.415203e-05 4.097303e-06 9.999204e-08
1.386264e-05 -4.994993e-06 9.999803e-08
-1.178524e-05 8.794415e-06 1.000111e-07
6.887610e-06 -1.167206e-05 9.999995e-08
9.224427e-06 1.144362e-05 9.998955e-08
9.224728e-06 -1.144450e-05 9.995874e-08
-7.830886e-06 1.244855e-05 1.000124e-07
7.956314e-06 -1.271602e-05 0.000000e+00
-6.759770e-06 -1.309253e-05 1.000141e-07
-6.427192e-06 1.320634e-05 1.000114e-07
5.544857e-06 1.361265e-05 9.999024e-08
3.856716e-06 1.422264e-05 1.000042e-07
3.860764e-06 -1.421740e-05 1.000059e-07
1.114149e-05 7.405782e-06 9.998460e-08
1.110368e-05 -7.270686e-06 1.090639e-07
-7.462557e-07 -1.471455e-05 1.000042e-07
-1.137923e-06 1.466162e-05 9.998853e-08
1.438316e-05 -2.493315e-06 9.999384e-08
8.621811e-06 -1.227454e-05 0.000000e+00
-1.337264e-05 5.855329e-06 9.999493e-08
-1.337272e-05 -5.856787e-06 1.000141e-07
-4.383087e-06 -1.392476e-05 9.998448e-08
1.337606e-06 -1.453553e-05 9.999331e-08
-9.744172e-06 -1.086841e-05 9.998122e-08
-1.248499e-05 5.266025e-06 9.999513e-08
-1.228922e-05 -8.097482e-06 9.820649e-08
-1.236889e-05 7.951289e-06 1.000026e-07
-1.178845e-05 -8.809267e-06 1.016706e-07
1.066176e-05 1.011322e-05 1.000068e-07
9.262869e-06 -1.179827e-05 0.000000e+00
1.066275e-05 -1.011321e-05 1.000036e-07
-8.168987e-06 -1.226439e-05 9.999271e-08
5.403606e-06 -1.370664e-05 1.000109e-07
-2.526729e-06 -1.447877e-05 9.999319e-08
-2.541109e-06 1.447695e-05 1.000422e-07
7.933656e-06 1.230694e-05 9.999699e-08
2.365948e-06 1.452404e-05 1.000020e-07
1.145014e-06 1.450272e-05 9.999156e-08
-4.039077e-06 1.407446e-05 1.000068e-07
1.157508e-05 9.088260e-06 1.000000e-07
9.877671e-06 -1.128856e-05 0.000000e+00
1.421669e-05 -3.087421e-06 1.000080e-07
1.213337e-05 8.030218e-06 9.999043e-08
-1.297445e-05 -6.974095e-06 9.999968e-08
-1.067266e-05 -1.008440e-05 1.000428e-07
-1.205649e-05 -5.572311e-06 1.000127e-07
-3.119573e-06 -1.442779e-05 1.000018e-07
-3.698171e-06 -1.275442e-05 9.998499e-08
-3.699455e-06 1.275321e-05 9.998500e-08
-1.067323e-05 1.008510e-05 9.999177e-08
1.294454e-05 -3.098112e-06 9.999112e-08
1.046447e-05 -1.074685e-05 0.000000e+00
8.292758e-06 -1.212267e-05 9.999633e-08
-5.382140e-06 1.369649e-05 9.999589e-08
-8.399621e-06 -1.033347e-05 1.000126e-07
6.766273e-06 -1.306407e-05 9.999735e-08
-9.532409e-06 9.283633e-06 9.995302e-08
6.317399e-06 1.168034e-05 9.998661e-08
1.076724e-05 7.948313e-06 1.000148e-07
-1.394914e-05 -4.580939e-06 1.000134e-07
-1.393745e-05 4.613358e-06 1.000054e-07
-8.802509e-06 1.184689e-05 1.000015e-07
1.447152e-05 3.946538e-06 0.000000e+00
1.102161e-05 -1.017468e-05 0.000000e+00
-1.251065e-05 -4.525688e-06 9.995319e-08
7.164472e-06 -1.118207e-05 9.998830e-08
1.460963e-05 -1.532458e-06 1.000141e-07
-1.948694e-10 1.476035e-05 9.999812e-08
7.939948e-06 1.053436e-05 1.000005e-07
1.322093e-05 -7.793810e-07 9.999453e-08
-1.290590e-05 -3.002061e-06 1.000068e-07
-2.391188e-06 -1.302378e-05 9.999954e-08
-1.241984e-05 4.708252e-06 1.000736e-07
1.020242e-05 -8.430895e-06 9.941192e-08
1.154751e-05 -9.573663e-06 0.000000e+00
3.392542e-07 1.323019e-05 1.000674e-07
1.318415e-05 -1.774034e-06 1.000100e-07
-1.138236e-05 6.765852e-06 1.000440e-07
-1.155848e-05 -6.406719e-06 1.000011e-07
-1.317829e-05 1.224844e-06 1.000133e-07
-1.312431e-05 -1.817112e-06 9.999138e-08
-1.284271e-05 3.221507e-06 9.929128e-08
1.188023e-05 -5.826537e-06 1.000010e-07
-5.501061e-06 -1.201314e-05 9.999740e-08
-2.377576e-07 -1.323926e-05 1.000050e-07
1.204067e-05 -8.945510e-06 0.000000e+00
1.314501e-05 1.577569e-06 9.999676e-08
1.276836e-05 3.979720e-06 1.059068e-07
-1.275519e-05 -3.559776e-06 9.999467e-08
5.266479e-06 -1.214740e-05 1.000060e-07
-1.322846e-05 3.737337e-07 1.000110e-07
1.205072e-05 5.489902e-06 1.000106e-07
1.317950e-05 4.505573e-07 1.000212e-07
-8.294125e-07 -1.321393e-05 1.000695e-07
-7.558013e-06 1.087154e-05 1.000578e-07
9.300218e-06 9.408277e-06 9.999963e-08
1.249971e-05 -8.292001e-06 0.000000e+00
-1.073238e-05 -7.918924e-06 1.066297e-07
-6.385098e-06 1.158055e-05 9.998663e-08
-7.079998e-06 -1.117654e-05 9.999283e-08
-1.127904e-05 -6.907643e-06 1.000426e-07
1.236030e-05 -4.731548e-06 1.000061e-07
-8.293922e-07 1.321393e-05 9.994655e-08
-2.391151e-06 1.302378e-05 9.995319e-08
5.281467e-06 1.213616e-05 1.000236e-07
-1.094893e-05 7.387074e-06 1.000808e-07
3.769210e-06 1.267880e-05 9.999409e-08
1.292331e-05 -7.614987e-06 0.000000e+00
4.153145e-06 -1.252270e-05 9.999621e-08
-1.016042e-05 1.041109e-05 1.000064e-07
1.462631e-05 1.954892e-06 1.000065e-07
1.421689e-05 3.063382e-06 1.000067e-07
-1.456686e-05 -1.567087e-06 9.999653e-08
-1.466873e-05 -3.048146e-07 1.000132e-07
-1.451559e-05 2.284613e-06 1.000106e-07
-8.999676e-06 -9.976278e-06 1.000069e-07
-9.213347e-06 9.934545e-06 1.000030e-07
1.474673e-05 6.286764e-07 1.000080e-07
1.331028e-05 -6.916388e-06 0.000000e+00
-4.260747e-06 -1.286542e-05 9.999348e-08
1.440750e-06 -1.347609e-05 1.000001e-07
-1.143573e-05 9.237419e-06 9.998858e-08
-6.953460e-06 1.295693e-05 9.998906e-08
1.062781e-05 -7.950504e-06 1.085550e-07
-1.249731e-05 -5.236078e-06 1.000016e-07
1.331503e-05 -2.487943e-06 9.999939e-08
9.675548e-06 1.107644e-05 1.000186e-07
-8.297066e-06 1.213241e-05 9.998787e-08
-5.766302e-07 1.468810e-05 1.000115e-07
1.365952e-05 -6.198183e-06 0.000000e+00
1.429471e-05 3.556817e-06 1.000142e-07
-1.016164e-05 -1.040998e-05 1.000058e-07
7.609222e-06 -1.245726e-05 9.998449e-08
-5.152742e-06 -1.370509e-05 1.000076e-07
-4.774600e-06 1.379586e-05 9.999632e-08
1.925964e-06 -1.441445e-05 1.000065e-07
7.780007e-07 -1.469541e-05 9.999946e-08
-3.664931e-06 -1.422289e-05 9.999447e-08
6.588785e-06 1.312634e-05 9.996156e-08
7.053646e-06 -1.271759e-05 9.999625e-08
1.397004e-05 -5.462409e-06 0.000000e+00
-9.213663e-06 1.143680e-05 9.999076e-08
-9.373291e-06 -1.134357e-05 1.000126e-07
1.166972e-05 -8.687153e-06 9.998683e-08
-1.322394e-05 -6.455257e-06 9.999427e-08
-1.370968e-05 -5.148570e-06 1.000049e-07
-1.371077e-05 5.150421e-06 1.000074e-07
-1.263408e-05 -7.458303e-06 1.001583e-07
-1.278205e-05 7.317571e-06 1.000639e-07
1.110579e-05 -9.719594e-06 9.999702e-08
1.109183e-05 9.731556e-06 9.999439e-08
1.424096e-05 -4.711151e-06 0.000000e+00
6.099697e-06 1.344054e-05 1.000033e-07
-3.482979e-06 1.425330e-05 1.000052e-07
-1.199436e-05 5.769682e-06 9.999093e-08
-8.662966e-06 1.006387e-05 1.000126e-07
1.368307e-05 -5.549147e-06 9.998995e-08
-1.470543e-05 1.197900e-06 9.999076e-08
1.420886e-05 -3.693773e-06 1.000064e-07
1.458806e-05 -1.950810e-06 1.000004e-07
-5.919266e-06 1.349490e-05 9.998956e-08
1.256452e-05 7.605356e-06 9.999263e-08
1.447152e-05 -3.946538e-06 0.000000e+00
-1.435130e-05 3.144134e-06 9.998878e-08
-7.816056e-06 -1.246139e-05 9.998459e-08
1.135825e-05 6.919143e-06 9.999631e-08
3.392465e-07 -1.323019e-05 1.000137e-07
8.804046e-06 -1.185048e-05 1.000051e-07
8.435029e-06 1.200866e-05 9.999510e-08
-1.413507e-05 4.244997e-06 1.000063e-07
5.023440e-06 1.382089e-05 9.999091e-08
4.992169e-06 -1.384046e-05 9.998620e-08
-4.834326e-06 1.239775e-05 9.999151e-08
1.424096e-05 4.711151e-06 0.000000e+00
1.466105e-05 -3.170739e-06 0.000000e+00
7.345306e-06 1.109411e-05 9.999181e-08
-1.132393e-05 -9.342833e-06 9.985421e-08
1.017718e-05 1.068311e-05 9.999316e-08
1.470341e-05 -9.587092e-07 9.999296e-08
-2.007044e-07 -1.473545e-05 1.000710e-07
3.200655e-06 1.284584e-05 9.998750e-08
-1.987469e-06 1.457090e-05 9.998365e-08
-7.820243e-06 -1.062578e-05 1.000008e-07
-5.680794e-06 1.194863e-05 1.000185e-07
2.931490e-06 1.444063e-05 9.992807e-08
1.480903e-05 -2.385952e-06 0.000000e+00
5.786681e-06 1.190299e-05 9.998765e-08
5.785974e-06 -1.190334e-05 1.000123e-07
1.326687e-05 -2.120912e-07 1.000037e-07
-3.114907e-06 -1.285267e-05 1.000165e-07
-6.273431e-06 -1.333655e-05 9.998888e-08
-9.830307e-06 8.822186e-06 1.000050e-07
-8.459005e-06 -1.200220e-05 1.000263e-07
9.836188e-06 -8.856382e-06 1.000357e-07
1.270338e-05 -3.607360e-06 9.999037e-08
-2.377461e-07 1.323926e-05 1.000112e-07
1.491502e-05 -1.594402e-06 0.000000e+00
[...]
POINT_DATA 1298
VECTORS 10.000GHz_fone_imag double
-1.172170e+09 -5.501319e+11 1.760469e+08
1.135355e+11 -5.226754e+11 1.213460e+07
-5.305022e+11 -1.592699e+11 -2.874742e+07
1.519655e+11 -5.420565e+11 2.466890e+08
-1.631771e+11 -5.503108e+11 -8.902980e+08
3.613664e+10 5.836948e+11 -3.752765e+07
-2.926427e+10 5.927219e+11 -1.378143e+09
9.566675e+10 -5.856879e+11 1.378856e+09
1.152162e+11 -6.343636e+11 9.233519e+08
4.301862e+11 -2.473953e+11 1.447653e+08
-2.759355e+11 -4.416884e+11 -4.346006e+05
4.181523e+11 5.257927e+11 2.594426e+08
3.663930e+11 3.323785e+11 1.482541e+08
-5.163502e+11 -1.881788e+11 -3.224874e+07
5.454535e+11 4.125629e+11 1.852843e+07
2.720986e+11 3.689979e+11 8.412580e+08
2.276895e+11 4.663282e+11 -7.575315e+06
2.936479e+11 -5.969118e+11 2.208539e+08
-6.663489e+11 -1.359754e+11 1.274301e+08
-4.884169e+11 -4.281921e+11 1.026579e+09
-3.174455e+11 -3.990025e+11 1.143196e+08
1.447321e+11 -6.532745e+11 2.608645e+07
-5.252491e+11 -4.266284e+11 2.144661e+08
4.895192e+11 3.860058e+11 -5.133512e+08
-5.075115e+11 -2.141043e+11 -5.288685e+07
-6.291992e+11 -1.455300e+11 1.087234e+09
2.310800e+11 4.440183e+11 -1.788833e+08
3.029192e+11 -5.644614e+11 8.982558e+08
-2.546262e+11 -4.338906e+11 1.531827e+08
4.187878e+11 4.934349e+11 9.791236e+08
-8.388634e+09 -5.138494e+11 -1.931354e+08
4.554127e+10 -5.093122e+11 -7.569951e+07
2.274825e+11 -4.675365e+11 -2.398748e+07
-2.201396e+11 -4.640167e+11 1.637763e+08
-1.374381e+11 5.019436e+11 -2.576070e+08
-4.894088e+11 -2.396208e+11 2.774278e+07
1.252854e+11 4.957244e+11 1.206502e+08
1.749569e+11 -4.903687e+11 2.581316e+07
-7.257760e+10 5.065340e+11 -2.259430e+08
6.322902e+10 5.060518e+11 6.109761e+07
9.044899e+10 -5.073505e+11 -5.943625e+07
-2.616712e+10 5.036730e+11 3.324728e+07
2.617102e+10 5.046336e+11 7.941149e+07
-4.623453e+11 4.635410e+11 1.197171e+07
4.742422e+11 -2.797615e+11 -3.531974e+07
-6.012051e+11 2.257840e+11 -5.629412e+07
-4.571581e+11 -2.558665e+11 -2.870421e+08
5.226971e+11 1.731883e+11 5.295487e+07
5.491301e+11 -5.859434e+10 1.959820e+07
-6.350897e+11 -9.358011e+10 3.654732e+07
1.459277e+11 -4.982102e+11 -9.481171e+07
-1.766665e+11 -4.928502e+11 3.666652e+07
3.036382e+11 4.029931e+11 2.035482e+08
-4.752867e+11 -2.802287e+11 -2.292543e+07
3.977565e+11 -3.247034e+11 -1.456172e+08
-3.978731e+11 -3.250364e+11 -1.022780e+08
4.258543e+11 2.703715e+11 -2.090184e+08
-4.529415e+11 -2.822362e+11 2.642798e+08
-4.643416e+11 2.412751e+11 -2.545143e+06
4.502734e+11 2.205077e+11 -1.226534e+08
4.763401e+11 -1.905962e+11 1.162754e+08
5.041044e+11 -1.367147e+11 3.533518e+07
-5.067101e+11 -1.378894e+11 -4.151055e+07
3.278481e+11 -4.992916e+11 9.770416e+07
-3.447250e+11 -5.366271e+11 2.060734e+09
-5.226826e+11 2.843070e+10 3.029730e+07
5.020324e+11 3.691147e+10 -2.020538e+08
-8.808811e+10 -4.870817e+11 -1.406787e+08
-4.523279e+11 -3.153569e+11 2.858923e+08
1.971881e+11 4.555768e+11 1.418399e+08
-1.971366e+11 4.558095e+11 -1.407659e+08
-4.724721e+11 1.510756e+11 1.278538e+08
-4.923148e+11 -4.868107e+10 1.611368e+08
-3.660327e+11 3.331519e+11 1.356387e+08
2.130384e+11 5.067583e+11 -1.482333e+07
-2.844969e+11 4.351944e+11 3.940352e+08
2.768376e+11 4.350650e+11 -1.534255e+08
-3.128159e+11 4.156244e+11 9.557541e+08
3.553973e+11 -3.713901e+11 -1.158579e+08
-4.377873e+11 -3.437420e+11 -2.752882e+08
-3.556528e+11 -3.715388e+11 -6.706859e+07
-4.350003e+11 2.897182e+11 -4.296994e+07
-4.873762e+11 -1.902025e+11 3.517514e+07
-5.069820e+11 8.604283e+10 9.700314e+07
5.054539e+11 8.560245e+10 -1.257190e+08
4.200162e+11 -2.716192e+11 1.927845e+08
5.141854e+11 -8.262487e+10 3.466042e+07
4.796117e+11 -3.948322e+10 -2.369525e+08
4.808430e+11 1.372016e+11 -1.915744e+08
3.212939e+11 -4.089177e+11 1.063414e+07
-4.094251e+11 -3.571747e+11 1.640549e+08
-1.004956e+11 -4.706946e+11 -2.435398e+08
2.675955e+11 -4.004549e+11 2.082113e+08
-2.455708e+11 4.540516e+11 1.847650e+08
-3.530591e+11 3.674209e+11 1.262359e+08
-2.703259e+11 5.799757e+11 2.890544e+07
-5.229487e+11 1.129649e+11 5.488817e+06
-6.213231e+11 1.745168e+11 -3.864742e+06
6.212289e+11 1.740454e+11 1.374490e+07
3.534299e+11 3.676532e+11 -1.138902e+08
-1.550070e+11 -6.119197e+11 -2.419221e+08
-3.940515e+11 -3.856833e+11 -8.252710e+06
-4.245200e+11 -2.868076e+11 -1.005652e+08
4.852850e+11 1.896990e+11 -2.591613e+07
-4.868265e+11 3.810819e+11 5.323029e+08
-4.579698e+11 -2.384486e+11 2.021707e+07
4.357464e+11 4.590544e+11 -2.755209e+08
5.696959e+11 -3.017669e+11 2.470504e+07
3.569544e+11 -4.782367e+11 1.162134e+08
-1.584893e+11 4.759728e+11 -1.273538e+08
1.606438e+11 4.748977e+11 1.353622e+08
4.293758e+11 3.192225e+11 5.735213e+05
1.430838e+11 -5.288770e+11 -1.008586e+08
-3.753540e+11 -4.035961e+11 2.537858e+08
-2.077065e+11 5.981966e+11 2.365900e+08
-5.394697e+11 -3.473637e+11 -2.830095e+07
-5.258649e+10 -4.996177e+11 1.529040e+08
5.351537e+11 -1.873036e+08 -3.583459e+06
5.490083e+11 -4.030947e+11 1.506055e+08
-4.242338e+10 -6.378025e+11 -9.034057e+08
-1.435968e+11 6.398342e+11 5.271826e+08
-6.507330e+11 1.219295e+11 -5.754807e+08
2.251053e+11 5.985525e+11 6.012876e+07
-4.174413e+11 -5.000697e+11 -2.911100e+08
-3.534340e+11 -4.232969e+11 -3.405988e+08
6.522433e+11 -1.530648e+10 -2.279109e+08
-7.592176e+10 -6.286140e+11 -2.386508e+08
3.364854e+11 5.719484e+11 6.500603e+08
-3.219835e+11 5.789391e+11 6.237580e+08
5.567112e+10 6.402177e+11 -8.948000e+08
-9.486451e+10 6.492655e+11 4.510411e+08
1.641427e+11 6.439160e+11 -3.087612e+06
-2.914863e+11 -6.010003e+11 -1.800578e+08
-6.037772e+11 2.777342e+11 6.512333e+08
-6.414352e+11 9.094123e+09 -1.074151e+09
-3.162520e+11 -4.274669e+11 -1.286159e+08
8.046525e+10 -6.351938e+11 8.694481e+08
1.771753e+11 -5.690890e+11 -6.488373e+08
-1.762362e+11 6.148468e+11 1.009939e+09
-5.887694e+11 -2.580037e+11 -1.105193e+09
2.261011e+10 6.428623e+11 9.412379e+08
2.623729e+11 -5.841894e+11 9.118746e+08
2.576768e+10 -6.901361e+11 -3.253100e+07
-6.577219e+11 4.556886e+10 -6.538174e+08
5.434232e+11 3.809669e+11 6.895187e+08
4.618291e+11 -4.518066e+11 9.695951e+08
-2.957437e+11 -4.481082e+11 3.366280e+08
-3.624839e+11 4.879135e+11 -3.635439e+08
5.667578e+11 3.135396e+11 1.048760e+09
-5.461932e+11 3.431423e+11 1.051380e+09
-3.540288e+11 5.779910e+11 1.968114e+08
-2.323118e+11 -5.997807e+11 9.561366e+08
6.575893e+11 4.556982e+10 -4.702027e+08
6.513291e+11 1.221253e+11 -6.672536e+08
5.901484e+11 -2.586475e+11 1.008595e+09
3.724414e+11 5.525192e+11 7.103303e+08
6.186459e+11 -1.864992e+11 -1.056421e+09
-2.759718e+11 -4.724738e+11 1.937609e+07
-6.603974e+11 -2.189758e+11 1.039662e+07
3.457337e+11 3.351539e+11 2.210539e+08
7.034589e+10 -5.285992e+11 -1.803361e+07
1.011983e+11 -4.722833e+11 -1.718385e+07
-5.571888e+10 4.934352e+11 8.295801e+07
-1.112028e+10 5.063547e+11 9.419203e+07
7.598832e+10 4.946258e+11 -2.479679e+08
-4.319190e+11 3.937302e+11 8.712916e+07
4.040594e+11 3.736703e+11 -5.880470e+07
2.144148e+10 -5.189879e+11 -2.718687e+08
-2.474731e+11 -4.878524e+11 1.861252e+07
-5.235872e+11 1.737810e+11 1.291190e+06
-5.487136e+11 -5.870962e+10 -3.750223e+07
3.207448e+11 4.020085e+11 1.296254e+08
4.548829e+11 2.401654e+11 -1.731345e+08
-3.862582e+11 -5.072037e+11 -2.086874e+09
-2.129449e+11 5.067624e+11 4.084825e+07
-1.008626e+11 -5.398792e+11 -2.500725e+07
3.804964e+11 -3.312602e+11 -2.425669e+08
4.258910e+11 2.876186e+11 -8.911091e+07
5.130052e+11 2.347388e+10 -1.109680e+08
-2.258217e+11 -5.036954e+11 2.812935e+08
1.242198e+11 -5.101298e+11 -5.507840e+06
-3.454744e+11 3.350628e+11 -2.311858e+08
-4.239364e+11 -2.550467e+11 1.633154e+08
-4.671988e+11 1.767129e+11 -1.944645e+08
4.700340e+11 1.602606e+11 -1.283392e+08
-4.771760e+11 -6.160791e+10 2.430578e+08
-5.185177e+11 -2.689214e+10 6.661525e+06
-4.948270e+11 1.305370e+11 -9.638862e+07
4.557742e+11 -2.320238e+11 1.031141e+08
-4.198907e+11 -2.351389e+11 2.503099e+08
-1.970051e+11 -5.125677e+11 2.041435e+07
3.966547e+11 3.234309e+11 1.082084e+08
-4.012023e+11 3.329550e+11 -1.345519e+07
-2.845069e+11 -3.867564e+11 3.030293e+08
-2.276391e+11 4.684756e+11 1.598620e+07
-1.747238e+11 4.685017e+11 -1.865966e+08
1.753449e+11 4.688237e+11 2.019675e+08
-2.556189e+11 4.302634e+11 -1.062056e+08
2.555102e+11 4.483960e+11 1.506517e+08
-3.520332e+11 -4.023872e+11 1.919665e+06
3.508372e+11 -4.013704e+11 -2.913662e+07
-1.744043e+11 -5.194948e+11 8.750302e+07
4.866812e+11 -2.209391e+11 3.398617e+07
4.850907e+11 1.216226e+11 -1.145654e+08
2.813523e+11 5.655567e+11 -2.644722e+08
4.877206e+11 4.163584e+11 -3.077946e+07
-1.968553e+11 -4.831124e+11 2.742980e+08
4.189982e+10 5.296457e+11 1.404827e+07
-1.240250e+11 -4.935087e+11 -1.545911e+08
-6.817958e+10 -5.154330e+11 1.808174e+06
4.730403e+11 2.090257e+11 -1.839262e+08
2.677971e+11 -4.346419e+11 1.282353e+08
-1.466374e+11 -5.302926e+11 -3.565841e+08
1.091150e+11 4.888501e+11 -2.380427e+08
-4.263533e+11 2.695032e+11 -2.398726e+08
3.140189e+11 -5.359360e+11 -5.440701e+08
-6.521448e+11 -1.528780e+10 2.265176e+08
-4.302531e+11 -3.197025e+11 -2.893186e+07
4.118326e+11 -2.851101e+11 1.109092e+08
1.548804e+11 5.101611e+11 1.233717e+07
4.720524e+11 -1.740645e+11 -1.959535e+08
-4.746013e+11 -1.717470e+11 2.072666e+08
5.864647e+11 2.374582e+11 2.425586e+08
1.695719e+11 -5.176749e+11 -5.647047e+07
-1.122486e+11 -5.161073e+11 -1.400948e+08
5.235138e+11 -3.566806e+11 -2.936569e+08
-3.174095e+11 3.887296e+11 -1.405351e+08
3.775623e+11 -3.578091e+11 -2.430957e+08
-3.457205e+10 -5.151643e+11 1.653409e+08
-5.176937e+11 5.730299e+09 1.592876e+08
6.421048e+11 -1.555121e+11 5.002826e+08
4.980329e+11 7.014901e+10 1.907882e+08
-5.415260e+11 4.090073e+11 1.570028e+08
5.858106e+11 2.763954e+11 1.045413e+09
5.069493e+11 -1.039181e+11 1.961312e+08
-8.612228e+10 -5.335978e+11 2.826895e+08
5.884156e+11 -2.833879e+11 2.295839e+08
-5.881436e+11 -2.836827e+11 1.697106e+08
-6.624449e+09 -6.554811e+11 5.392181e+08
-6.392885e+11 1.509997e+11 -2.743356e+08
-4.683189e+11 2.182341e+11 -1.891096e+08
4.571441e+11 5.098691e+11 6.310720e+07
-4.101892e+11 2.886014e+11 -1.524373e+08
-4.299816e+11 -4.785544e+11 1.081683e+09
-1.897878e+11 -6.603613e+11 -5.670541e+07
6.412830e+11 8.972355e+09 1.016192e+09
-5.602670e+10 -5.433700e+11 2.210560e+07
-2.843789e+11 5.531100e+11 4.522581e+08
-5.303718e+11 -3.988886e+11 6.350232e+08
6.396017e+11 1.508564e+11 2.611910e+08
-5.589923e+10 6.393090e+11 -8.570004e+08
2.285566e+11 -6.080144e+11 -4.887550e+08
1.107498e+11 6.534474e+11 4.921665e+08
-1.259675e+11 6.800396e+11 7.942422e+07
4.452150e+11 -5.163944e+11 -1.526991e+07
-4.414577e+11 4.835053e+11 2.791034e+08
-2.654153e+11 -6.076202e+11 -4.810679e+08
-2.507833e+10 -5.413583e+11 6.066020e+07
-1.481307e+10 6.591315e+11 -4.569229e+08
-4.137919e+11 5.225371e+11 2.370481e+08
5.033524e+11 -4.662644e+11 -1.070876e+07
5.687963e+11 3.491838e+11 7.106536e+08
-5.820773e+11 3.306100e+11 6.685341e+08
-2.043629e+11 -6.275564e+11 -4.948093e+08
-2.060989e+11 6.519165e+11 1.085577e+08
5.208015e+11 -4.119313e+11 5.711993e+08
6.277457e+11 -2.472057e+11 2.102066e+08
-6.201015e+11 -2.323710e+11 -6.671299e+08
4.288226e+10 -7.161549e+11 -9.335571e+08
-5.422284e+11 3.798641e+11 6.821925e+08
6.642911e+11 8.079420e+10 -7.345903e+08
-3.696550e+11 5.497009e+11 6.139611e+08
-6.381565e+11 -1.841727e+11 7.122673e+08
-4.632474e+11 -4.530884e+11 -1.008864e+09
-6.327214e+10 -6.809617e+11 -1.036489e+08
1.046096e+11 -6.768970e+11 1.829225e+08
-6.129359e+11 -1.150263e+11 3.809860e+08
-5.755099e+11 2.419191e+11 -5.323454e+08
-2.814439e+11 -4.057035e+11 -1.907769e+08
8.983365e+10 -7.040439e+11 5.365117e+08
-4.255461e+10 5.266688e+11 1.069578e+07
1.079144e+10 5.065747e+11 -9.502531e+07
1.566775e+11 -4.729370e+11 -1.690562e+08
-6.442676e+11 -3.943493e+10 2.940605e+07
6.444111e+11 -3.941294e+10 -3.701059e+07
1.953884e+11 -4.805823e+11 2.976665e+08
3.190699e+11 -3.868407e+11 -1.550627e+08
-4.924477e+11 -9.298218e+10 1.864818e+08
-5.014713e+11 -1.343250e+10 -1.410247e+08
5.088918e+11 -2.400670e+10 1.040933e+08
1.305283e+11 -7.015524e+11 -8.032735e+07
4.631144e+11 2.734308e+11 -4.919856e+07
5.320553e+11 5.697418e+10 7.874711e+06
-5.699131e+11 -3.024065e+11 2.835845e+07
-2.440920e+11 -4.551561e+11 -1.699585e+08
-3.775760e+11 -3.578430e+11 2.489415e+08
-1.036479e+11 5.086571e+11 2.227505e+08
-4.626997e+11 2.724157e+11 1.556362e+07
6.382850e+11 -9.839520e+10 3.684828e+07
4.287859e+11 -3.172255e+11 -1.645831e+06
5.085689e+11 -1.688619e+11 -1.028312e+06
1.713372e+11 -6.817902e+11 -7.658730e+08
3.531076e+11 4.032042e+11 7.401415e+06
-3.507912e+11 4.019274e+11 6.143663e+06
-1.538395e+11 -5.093260e+11 -1.569872e+07
5.198111e+11 1.135282e+11 -3.090671e+07
-5.165762e+11 6.230499e+10 2.402621e+08
-5.394671e+11 4.118131e+11 6.659259e+07
6.271961e+11 2.747324e+11 1.032248e+08
5.581648e+11 -4.012055e+11 -8.263816e+06
3.096934e+11 4.399820e+11 -4.655726e+06
-4.120590e+11 3.130035e+11 -2.002370e+08
2.070866e+11 -6.563628e+11 7.879666e+07
3.259932e+11 6.060007e+11 4.095798e+07
-4.727164e+11 -2.084861e+11 1.821983e+08
8.500532e+10 6.640396e+11 -2.979731e+07
-4.966784e+11 -1.577335e+11 -2.113033e+08
-4.616453e+11 1.929591e+11 1.348126e+08
2.582833e+11 -4.671069e+11 3.371328e+06
-3.928171e+10 6.885909e+11 -1.413978e+08
1.794833e+10 -6.766890e+11 1.635049e+08
4.489683e+10 -6.548180e+11 -4.089011e+08
3.332462e+11 -5.913643e+11 4.986759e+07
2.626093e+11 -6.645693e+11 5.658495e+08
1.772180e+11 6.046993e+11 -6.998989e+07
4.875006e+11 -1.185976e+11 1.827283e+08
4.244901e+10 6.841830e+11 2.371878e+07
2.632603e+11 -6.341543e+11 2.358451e+07
1.562095e+11 -6.062103e+11 4.323081e+08
-4.647499e+11 -4.845843e+11 2.010419e+07
-6.643997e+11 8.066827e+10 6.237768e+08
4.467993e+11 -4.867348e+11 -4.988468e+08
-6.058158e+11 3.103200e+11 1.824673e+08
3.851819e+11 5.191922e+11 1.002936e+09
1.999742e+11 -5.187571e+11 6.259513e+07
2.951218e+11 -6.477803e+11 -8.767671e+07
4.867308e+11 -4.263671e+11 -9.932851e+08
5.994311e+11 3.061267e+11 2.652891e+08
6.305474e+11 -2.208808e+11 5.618738e+08
-5.046799e+11 -4.674727e+11 1.140767e+07
-3.276116e+11 -5.649679e+11 -5.605375e+07
-4.158757e+11 4.915419e+11 1.057561e+09
-5.107306e+11 -3.580398e+11 -5.023847e+08
4.914723e+11 -5.624478e+10 1.387084e+08
2.871162e+11 -4.028058e+11 1.639512e+08
-5.047034e+11 -1.147721e+11 -1.483939e+08
3.324228e+11 -6.230716e+11 4.177195e+08
9.884679e+10 5.245824e+11 -4.073805e+07
6.451966e+11 -1.273102e+11 2.650152e+08
-5.032027e+11 4.011667e+10 2.247875e+08
4.829771e+11 -1.437193e+11 2.300759e+08
2.290763e+11 -4.444120e+11 -1.334273e+08
1.321102e+11 6.247687e+11 -8.561905e+08
-1.587338e+11 -4.749813e+11 1.211572e+08
-4.422652e+11 2.416844e+11 2.500862e+08
-4.501749e+11 -2.186267e+11 1.908951e+08
-3.026532e+11 -5.637679e+11 -8.671771e+08
3.575496e+11 -5.962849e+11 -8.584481e+08
2.076657e+11 -4.573981e+11 -2.785270e+08
3.954008e+11 -4.771808e+11 5.579475e+08
1.956568e+11 5.894057e+11 4.424778e+08
-3.805519e+11 -3.311801e+11 2.482847e+08
-5.099190e+11 -8.165605e+10 3.028886e+07
3.746492e+11 -5.313000e+11 -2.943756e+08
4.359669e+11 -5.339564e+11 1.126729e+09
4.799437e+11 -5.325229e+11 -7.565655e+08
5.047629e+11 -4.956975e+11 5.232616e+08
5.358271e+11 -4.709945e+11 -5.288438e+08
5.768397e+11 -4.380861e+11 1.157137e+09
5.801930e+11 -3.990006e+11 -1.058658e+09
2.279043e+11 -4.983727e+11 -4.177668e+07
5.533665e+11 -3.268959e+11 3.188569e+08
6.256060e+11 -3.166919e+11 1.662537e+07
6.504002e+11 -2.875679e+11 1.185556e+08
6.750656e+11 -2.494762e+11 -4.678887e+07
6.819927e+11 -2.071712e+11 -2.795355e+08
6.960136e+11 -1.618205e+11 3.558116e+08
6.924343e+11 -1.260894e+11 -3.188314e+07
6.505562e+11 -7.164783e+10 1.110780e+08
7.008584e+11 -2.969986e+10 1.337437e+07
7.070366e+11 7.708571e+09 -8.828270e+07
2.531647e+11 -4.861125e+11 1.130543e+08
7.129498e+11 5.606301e+10 2.858518e+08
7.092083e+11 9.547587e+10 -4.159712e+07
6.990039e+11 1.411328e+11 2.238520e+08
6.858896e+11 1.762826e+11 1.495917e+08
6.098663e+11 2.023642e+11 -3.353689e+08
6.499755e+11 2.663449e+11 9.334527e+08
6.487459e+11 3.036342e+11 -3.358753e+06
6.270277e+11 3.435526e+11 1.698359e+08
6.096845e+11 3.858896e+11 3.031450e+08
5.792503e+11 4.244478e+11 6.434391e+08
2.811938e+11 -4.733652e+11 -3.026174e+08
5.394874e+11 4.327796e+11 -6.139615e+08
4.799131e+11 4.413247e+11 -2.264432e+08
4.847444e+11 5.181591e+11 7.699844e+08
4.608830e+11 5.473896e+11 -1.354718e+07
4.241551e+11 5.745064e+11 2.502021e+08
3.892784e+11 6.003465e+11 2.584651e+08
3.503558e+11 6.196217e+11 6.071561e+08
3.195730e+11 6.324493e+11 -8.122719e+08
2.496645e+11 6.010493e+11 2.529457e+08
2.210940e+11 6.554742e+11 7.009990e+07
2.939986e+11 -4.384084e+11 -1.701741e+08
1.882975e+11 6.799654e+11 5.970417e+08
1.456508e+11 6.944766e+11 2.258547e+07
1.094455e+11 7.001640e+11 1.817758e+08
6.367339e+10 7.145225e+11 1.202717e+08
2.329323e+10 7.047784e+11 -2.831364e+08
-2.285978e+10 7.169389e+11 6.046681e+08
-6.136301e+10 7.079708e+11 -5.048020e+08
-1.128155e+11 7.122279e+11 7.171197e+08
-1.458774e+11 6.941745e+11 -6.843725e+08
-1.910150e+11 6.826181e+11 4.964026e+08
3.158079e+11 -4.256727e+11 4.554549e+08
-2.272474e+11 6.718856e+11 -8.394962e+08
-2.537262e+11 5.996786e+11 2.367688e+08
-3.105798e+11 6.152477e+11 2.462712e+08
-3.528777e+11 6.249234e+11 4.360236e+08
-3.912129e+11 6.022981e+11 -1.754906e+07
-4.222365e+11 5.695000e+11 5.673312e+07
-4.610408e+11 5.412344e+11 1.833278e+08
-4.851775e+11 5.109518e+11 9.081318e+07
-4.737255e+11 4.439769e+11 -8.954114e+08
-5.325267e+11 4.292863e+11 9.989752e+08
3.476846e+11 -4.231982e+11 1.021818e+08
-5.781598e+11 4.262361e+11 -9.401244e+08
-5.998314e+11 3.808546e+11 2.742425e+08
-6.351911e+11 3.504518e+11 3.560660e+08
-6.441951e+11 3.051877e+11 -1.391294e+08
-6.458307e+11 2.679369e+11 -3.000484e+08
-6.203420e+11 2.082293e+11 8.550786e+07
-6.859293e+11 1.765015e+11 -1.222491e+08
-6.985285e+11 1.406436e+11 -3.837983e+08
-7.093312e+11 9.531234e+10 1.474015e+07
-7.066791e+11 5.868814e+10 -4.735856e+08
6.258873e+09 -7.200600e+11 1.235860e+09
3.727419e+11 -4.066312e+11 -3.194207e+08
-7.065115e+11 1.233321e+10 -1.437913e+08
-7.066692e+11 -2.766903e+10 1.651746e+08
-6.508618e+11 -7.200224e+10 -7.104447e+07
-6.880042e+11 -1.252866e+11 4.545155e+08
-6.889014e+11 -1.597418e+11 -1.517763e+08
-6.912407e+11 -2.059064e+11 8.356848e+08
-6.790164e+11 -2.420552e+11 -7.221708e+08
-6.502445e+11 -2.820954e+11 -1.650921e+08
-6.290829e+11 -3.120533e+11 3.725472e+07
-5.644160e+11 -3.310334e+11 1.448862e+08
3.903307e+11 -3.875218e+11 2.069138e+07
-5.744361e+11 -3.932150e+11 5.865787e+07
-5.740419e+11 -4.414302e+11 4.057003e+08
-5.388860e+11 -4.741650e+11 3.249499e+08
-5.099979e+11 -5.037772e+11 -3.560521e+08
-4.709158e+11 -5.240119e+11 6.989628e+07
-4.398542e+11 -5.427579e+11 -9.261710e+08
-3.680535e+11 -5.261684e+11 2.433129e+07
-3.595626e+11 -6.007981e+11 9.222295e+08
-3.311909e+11 -6.254504e+11 -1.453344e+08
-2.920024e+11 -6.528729e+11 -3.609932e+08
4.118213e+11 -3.615002e+11 -1.144513e+08
-2.533133e+11 -6.627726e+11 7.763554e+07
-2.103307e+11 -6.864930e+11 5.782565e+08
-1.746123e+11 -6.792971e+11 -9.858430e+08
-1.164508e+11 -6.388564e+11 4.336745e+07
-7.541219e+10 -7.013387e+11 8.545173e+08
-4.457422e+10 -7.001533e+11 -6.666800e+08
3.487981e+10 -5.473072e+11 8.763685e+07
5.771620e+10 -5.400613e+11 -4.283774e+08
8.497357e+10 -5.474223e+11 2.716038e+08
1.107663e+11 -5.229182e+11 -1.451763e+08
4.371737e+11 -3.431906e+11 2.382801e+08
1.457647e+11 -5.377659e+11 1.210825e+08
1.726239e+11 -5.168349e+11 -1.635567e+07
1.955049e+11 -5.101546e+11 1.125382e+08
2.253636e+11 -5.001343e+11 -1.809681e+07
2.502322e+11 -4.871219e+11 -1.167203e+08
2.784096e+11 -4.764169e+11 3.431022e+08
2.919104e+11 -4.410048e+11 1.638735e+08
3.222125e+11 -4.341639e+11 -2.919014e+08
3.504233e+11 -4.215382e+11 -1.531160e+08
3.749874e+11 -4.032948e+11 2.736217e+08
4.466373e+11 -3.089116e+11 -2.886837e+08
3.940543e+11 -3.854767e+11 -6.580892e+07
4.133443e+11 -3.584743e+11 1.058925e+08
4.296765e+11 -3.372670e+11 -4.032005e+08
4.463416e+11 -3.125375e+11 3.043330e+08
4.554586e+11 -2.820405e+11 6.213644e+07
4.687478e+11 -2.563986e+11 -2.448438e+08
4.968180e+11 -2.393726e+11 -3.465024e+08
5.028594e+11 -2.123216e+11 4.086027e+08
5.139718e+11 -1.893819e+11 -2.566142e+08
5.275725e+11 -1.595661e+11 1.216077e+08