# vtk DataFile Version 2.0
Electric current density generated by TTH
ASCII
DATASET UNSTRUCTURED_GRID
POINTS 95 double
1.408163e-05 0.000000e+00 -1.000000e-07
4.351464e-06 1.339243e-05 -1.000000e-07
1.962275e-20 1.408163e-05 -1.000000e-07
-4.351464e-06 1.339243e-05 -1.000000e-07
-8.276976e-06 1.139228e-05 -1.000000e-07
-1.139228e-05 8.276976e-06 -1.000000e-07
-1.339243e-05 4.351464e-06 -1.000000e-07
-1.408163e-05 7.978004e-21 -1.000000e-07
-1.339243e-05 -4.351464e-06 -1.000000e-07
-1.139228e-05 -8.276976e-06 -1.000000e-07
-8.276976e-06 -1.139228e-05 -1.000000e-07
1.034694e-05 0.000000e+00 -1.000000e-07
-4.351464e-06 -1.339243e-05 -1.000000e-07
5.994826e-20 -1.408163e-05 -1.000000e-07
4.351464e-06 -1.339243e-05 -1.000000e-07
8.276976e-06 -1.139228e-05 -1.000000e-07
1.139228e-05 -8.276976e-06 -1.000000e-07
1.339243e-05 -4.351464e-06 -1.000000e-07
9.452399e-06 4.208479e-06 -1.000000e-07
6.923453e-06 7.689274e-06 -1.000000e-07
3.197380e-06 9.840524e-06 -1.000000e-07
-1.081550e-06 1.029026e-05 -1.000000e-07
1.408163e-05 0.000000e+00 1.000000e-07
-5.173469e-06 8.960712e-06 -1.000000e-07
-8.370849e-06 6.081778e-06 -1.000000e-07
-1.012083e-05 2.151250e-06 -1.000000e-07
-1.012083e-05 -2.151250e-06 -1.000000e-07
-8.370849e-06 -6.081778e-06 -1.000000e-07
-5.173469e-06 -8.960712e-06 -1.000000e-07
-1.081550e-06 -1.029026e-05 -1.000000e-07
3.197380e-06 -9.840524e-06 -1.000000e-07
6.923453e-06 -7.689274e-06 -1.000000e-07
9.452399e-06 -4.208479e-06 -1.000000e-07
1.034694e-05 0.000000e+00 1.000000e-07
1.339243e-05 4.351464e-06 1.000000e-07
1.139228e-05 8.276976e-06 1.000000e-07
8.276976e-06 1.139228e-05 1.000000e-07
4.351464e-06 1.339243e-05 1.000000e-07
1.962275e-20 1.408163e-05 1.000000e-07
-4.351464e-06 1.339243e-05 1.000000e-07
-8.276976e-06 1.139228e-05 1.000000e-07
-1.139228e-05 8.276976e-06 1.000000e-07
-1.339243e-05 4.351464e-06 1.000000e-07
-1.408163e-05 7.978004e-21 1.000000e-07
-1.339243e-05 -4.351464e-06 1.000000e-07
-1.139228e-05 -8.276976e-06 1.000000e-07
-8.276976e-06 -1.139228e-05 1.000000e-07
-4.351464e-06 -1.339243e-05 1.000000e-07
5.994826e-20 -1.408163e-05 1.000000e-07
4.351464e-06 -1.339243e-05 1.000000e-07
8.276976e-06 -1.139228e-05 1.000000e-07
1.139228e-05 -8.276976e-06 1.000000e-07
1.339243e-05 -4.351464e-06 1.000000e-07
9.452399e-06 4.208479e-06 1.000000e-07
6.923453e-06 7.689274e-06 1.000000e-07
3.197380e-06 9.840524e-06 1.000000e-07
-1.081550e-06 1.029026e-05 1.000000e-07
-5.173469e-06 8.960712e-06 1.000000e-07
-8.370849e-06 6.081778e-06 1.000000e-07
-1.012083e-05 2.151250e-06 1.000000e-07
-1.012083e-05 -2.151250e-06 1.000000e-07
-8.370849e-06 -6.081778e-06 1.000000e-07
-5.173469e-06 -8.960712e-06 1.000000e-07
-1.081550e-06 -1.029026e-05 1.000000e-07
1.339243e-05 4.351464e-06 -1.000000e-07
3.197380e-06 -9.840524e-06 1.000000e-07
6.923453e-06 -7.689274e-06 1.000000e-07
9.452399e-06 -4.208479e-06 1.000000e-07
-1.192996e-05 -1.136000e-06 -1.136761e-12
-8.266621e-06 -8.648572e-06 -3.630475e-13
1.514307e-06 -1.193474e-05 3.112316e-13
-1.212674e-05 2.161372e-06 -7.060732e-14
-4.683624e-06 1.101497e-05 -2.390519e-13
9.430698e-06 6.854337e-06 -7.485357e-14
-4.767553e-06 -1.099488e-05 -7.279662e-13
1.139228e-05 8.276976e-06 -1.000000e-07
9.431849e-06 -6.852670e-06 -2.611234e-13
1.203942e-05 3.615642e-12 -2.821876e-13
5.612902e-06 1.059067e-05 -2.552784e-13
-9.389464e-06 8.162039e-06 8.035521e-13
-1.077983e-05 -5.189460e-06 -1.423302e-13
8.431183e-06 8.998257e-06 4.799047e-13
3.718808e-06 -1.144996e-05 -1.884169e-14
-1.081761e-05 5.210983e-06 7.750771e-13
1.182107e-05 -2.238493e-06 -8.622299e-13
-7.132175e-06 9.140562e-06 7.591787e-13
8.276976e-06 1.139228e-05 -1.000000e-07
-1.676397e-06 1.220058e-05 -3.867389e-13
1.116027e-05 5.253310e-06 4.746919e-13
1.116061e-05 -5.252930e-06 6.111023e-13
5.781380e-06 -1.055083e-05 4.259820e-14
-1.701303e-06 -1.220179e-05 1.135750e-13
1.182105e-05 2.238515e-06 -8.748168e-13
8.444607e-06 -8.991194e-06 -1.798241e-13
1.674447e-06 1.186753e-05 4.545345e-13
CELLS 240 1200
4 89 52 67 51
4 89 76 67 32
4 67 76 89 51
4 55 94 78 20
4 48 49 14 70
4 14 13 48 70
4 28 62 27 69
4 27 62 61 69
4 25 59 71 68
4 7 25 71 68
4 94 37 55 78
4 44 68 8 7
4 26 59 25 68
4 26 60 59 68
4 21 72 23 56
4 73 19 75 18
4 94 56 38 87
4 73 19 81 75
4 75 73 35 81
4 94 56 55 38
4 31 32 76 16
4 28 74 12 29
4 56 72 23 57
4 72 21 23 3
4 21 94 55 20
4 84 0 11 77
4 92 0 77 11
4 45 10 9 69
4 1 78 86 37
4 4 79 5 24
4 90 14 82 30
4 94 37 78 1
4 5 83 24 79
4 32 84 89 17
4 83 59 71 25
4 78 19 86 81
4 30 66 90 31
4 70 91 29 13
4 93 50 90 15
4 8 80 27 26
4 80 9 45 8
4 27 9 10 69
4 90 14 30 15
4 78 1 86 20
4 90 82 65 30
4 86 37 78 36
4 84 0 77 22
4 11 77 33 84
4 92 0 11 64
4 11 77 92 33
4 79 24 85 58
4 4 79 24 85
4 8 45 80 44
4 94 37 1 38
4 45 10 69 46
4 94 1 78 20
4 83 5 24 6
4 58 79 24 83
4 93 66 76 31
4 12 46 47 74
4 29 91 12 13
4 12 91 29 74
4 25 6 7 71
4 31 76 93 16
4 93 51 16 76
4 86 75 81 19
4 88 35 75 73
4 35 75 81 36
4 21 2 3 87
4 8 68 44 80
4 7 44 68 43
4 85 23 72 57
4 72 23 4 3
4 67 11 33 84
4 92 11 33 53
4 32 84 17 11
4 83 24 25 6
4 78 86 36 81
4 91 13 70 48
4 66 30 90 65
4 31 90 30 15
4 29 70 13 30
4 78 19 81 54
4 21 2 94 20
4 57 85 24 58
4 85 23 57 24
4 15 93 50 16
4 93 51 76 66
4 24 83 25 58
4 88 92 34 53
4 47 13 91 48
4 15 31 93 16
4 75 86 81 36
4 8 68 26 7
4 89 17 52 16
4 23 85 72 4
4 82 30 14 70
4 82 65 30 70
4 14 30 13 70
4 49 48 65 70
4 46 61 62 69
4 43 59 60 68
4 28 27 10 69
4 7 26 25 68
4 89 76 16 51
4 16 76 89 32
4 16 52 89 51
4 89 17 16 32
4 18 75 88 64
4 88 75 18 73
4 92 18 88 64
4 92 18 64 11
4 94 87 2 21
4 94 2 87 38
4 34 92 88 64
4 39 87 2 38
4 74 69 46 62
4 74 69 62 28
4 10 12 74 46
4 74 12 10 28
4 34 92 33 53
4 22 92 77 33
4 65 29 70 63
4 63 70 65 48
4 29 65 70 30
4 22 92 33 34
4 78 19 20 86
4 45 69 9 80
4 27 9 69 80
4 45 69 61 46
4 71 59 43 68
4 7 71 43 68
4 71 59 42 43
4 71 6 7 43
4 6 71 42 43
4 21 87 72 56
4 56 39 72 57
4 87 21 72 3
4 40 72 39 57
4 39 72 4 3
4 72 40 39 4
4 53 19 73 18
4 53 19 54 73
4 73 53 35 54
4 88 35 73 53
4 88 73 18 53
4 28 63 62 74
4 62 47 74 63
4 74 46 47 62
4 74 69 28 10
4 74 69 10 46
4 31 32 66 76
4 93 66 31 90
4 93 51 66 50
4 67 66 76 51
4 76 66 67 32
4 84 0 22 17
4 92 0 64 22
4 84 0 17 11
4 84 22 77 33
4 22 92 34 64
4 92 0 22 77
4 78 54 55 20
4 94 37 38 55
4 78 37 55 36
4 94 1 20 2
4 94 1 2 38
4 4 41 5 79
4 83 41 79 5
4 41 79 40 58
4 4 41 79 40
4 83 41 5 42
4 80 60 27 26
4 26 60 68 80
4 61 80 60 27
4 61 80 44 60
4 26 68 8 80
4 93 51 50 16
4 39 56 87 38
4 68 44 60 43
4 44 68 60 80
4 94 56 21 55
4 94 56 87 21
4 63 91 29 70
4 28 63 74 29
4 12 91 47 13
4 47 91 12 74
4 73 19 54 81
4 81 73 35 54
4 91 47 63 74
4 35 81 54 36
4 47 91 63 48
4 80 9 8 27
4 63 91 70 48
4 45 69 80 61
4 27 80 69 61
4 90 14 15 49
4 90 14 49 82
4 90 49 15 50
4 49 82 14 70
4 49 65 82 70
4 83 41 42 58
4 42 5 83 6
4 83 41 58 79
4 71 83 25 6
4 83 59 25 58
4 88 35 53 34
4 84 22 33 52
4 84 22 52 17
4 67 84 33 52
4 89 17 84 52
4 85 23 24 4
4 40 85 72 57
4 80 45 61 44
4 85 40 72 4
4 87 2 3 39
4 57 40 85 58
4 87 39 72 56
4 39 87 72 3
4 88 75 34 64
4 88 35 34 75
4 92 18 11 53
4 92 18 53 88
4 63 29 91 74
4 32 84 11 67
4 32 84 67 89
4 4 79 85 40
4 79 85 40 58
4 67 89 84 52
4 83 59 58 42
4 31 93 90 15
4 66 90 50 65
4 42 83 71 6
4 83 59 42 71
4 78 19 54 20
4 78 54 81 36
4 78 54 36 55
4 90 49 65 82
4 90 49 50 65
4 93 66 90 50
CELL_TYPES 240
10
10
10
10
10
10
10
10
10
10
10
10
10
10
10
10
10
10
10
10
10
10
10
10
10
10
10
10
10
10
10
10
10
10
10
10
10
10
10
10
10
10
10
10
10
10
10
10
10
10
10
10
10
10
10
10
10
10
10
10
10
10
10
10
10
10
10
10
10
10
10
10
10
10
10
10
10
10
10
10
10
10
10
10
10
10
10
10
10
10
10
10
10
10
10
10
10
10
10
10
10
10
10
10
10
10
10
10
10
10
10
10
10
10
10
10
10
10
10
10
10
10
10
10
10
10
10
10
10
10
10
10
10
10
10
10
10
10
10
10
10
10
10
10
10
10
10
10
10
10
10
10
10
10
10
10
10
10
10
10
10
10
10
10
10
10
10
10
10
10
10
10
10
10
10
10
10
10
10
10
10
10
10
10
10
10
10
10
10
10
10
10
10
10
10
10
10
10
10
10
10
10
10
10
10
10
10
10
10
10
10
10
10
10
10
10
10
10
10
10
10
10
10
10
10
10
10
10
10
10
10
10
10
10
10
10
10
10
10
10
POINT_DATA 95
VECTORS 10.000GHz_fone_imag double
1.010467e+07 -3.777583e+11 2.252210e+04
3.642828e+11 -1.092956e+11 -8.293680e+07
3.832282e+11 2.842812e+09 5.637821e+07
3.581592e+11 1.123821e+11 -1.046032e+08
3.052037e+11 2.270802e+11 2.570085e+07
2.113292e+11 3.162981e+11 1.510813e+07
1.155367e+11 3.640139e+11 6.888904e+07
-4.274195e+09 3.825875e+11 2.379162e+07
-1.257059e+11 3.610632e+11 -5.105571e+07
-2.235688e+11 3.078361e+11 1.490702e+06
-3.046996e+11 2.311629e+11 4.952590e+07
-9.144966e+05 -5.074682e+11 2.309135e+05
-3.623975e+11 1.222377e+11 -2.143377e+07
-3.807497e+11 2.483582e+09 -7.316932e+07
-3.623603e+11 -1.106400e+11 6.327222e+07
-3.139682e+11 -2.106866e+11 -2.854890e+07
-2.251230e+11 -3.099345e+11 1.570947e+04
-1.033807e+11 -3.636266e+11 2.839609e+07
2.086368e+11 -4.456267e+11 1.823174e+08
3.636193e+11 -3.579642e+11 -8.640496e+07
4.694478e+11 -1.680971e+11 -1.126688e+07
4.956903e+11 4.680517e+10 -8.394125e+06
7.537256e+06 -3.794466e+11 -2.961593e+05
4.691593e+11 2.548848e+11 1.771810e+08
3.120373e+11 3.843774e+11 -1.367059e+08
1.102021e+11 4.865778e+11 4.355287e+07
-9.541164e+10 5.078968e+11 3.973120e+07
-2.997330e+11 4.126454e+11 2.457537e+05
-4.537188e+11 2.476214e+11 -4.141958e+07
-4.972074e+11 4.547589e+10 -4.972786e+07
-4.692311e+11 -1.652170e+11 -4.706479e+07
-3.592310e+11 -3.359526e+11 1.770305e+08
-2.273808e+11 -4.556040e+11 -1.599957e+08
-2.246298e+06 -4.849613e+11 -3.055047e+05
1.192009e+11 -3.593072e+11 -4.947462e+07
2.210076e+11 -3.042981e+11 -3.511279e+06
3.069656e+11 -2.262610e+11 3.812390e+07
3.587869e+11 -1.257232e+11 -7.956736e+07
3.820048e+11 -1.350042e+10 1.263638e+07
3.663430e+11 1.158218e+11 -1.720366e+07
3.030337e+11 2.259085e+11 2.818438e+07
2.293831e+11 3.099672e+11 -4.728579e+07
1.308951e+11 3.581487e+11 3.063901e+06
1.224561e+10 3.828872e+11 9.439142e+07
-1.097287e+11 3.620190e+11 9.425536e+06
-2.236910e+11 3.079737e+11 3.560493e+05
-3.104831e+11 2.161941e+11 -1.069728e+07
-3.677816e+11 1.066265e+11 -9.298939e+07
-3.798806e+11 -1.395155e+10 -3.533142e+05
-3.580983e+11 -1.235294e+11 6.440753e+07
-3.049695e+11 -2.244203e+11 -5.155181e+07
-2.209913e+11 -3.042582e+11 7.040907e+05
-1.192021e+11 -3.592960e+11 5.036627e+07
2.190834e+11 -4.722758e+11 -1.048245e+08
3.784363e+11 -3.347821e+11 9.835310e+07
4.782812e+11 -1.401199e+11 -1.648739e+07
4.955614e+11 7.367609e+10 4.913507e+06
4.557499e+11 2.873428e+11 -2.066598e+08
2.899029e+11 3.959177e+11 1.943685e+08
8.401378e+10 4.913888e+11 -4.407057e+07
-1.273079e+11 4.986211e+11 -1.024376e+08
-2.859015e+11 3.936359e+11 1.616046e+06
-4.347946e+11 2.749677e+11 1.040870e+08
-4.928603e+11 7.195633e+10 7.177929e+07
1.033692e+11 -3.636039e+11 -2.912807e+07
-4.763841e+11 -1.423945e+11 -4.019842e+07
-3.814141e+11 -3.542108e+11 -1.050334e+08
-2.013122e+11 -4.649138e+11 1.151999e+08
-4.630550e+10 4.427189e+11 3.161966e+05
-3.288735e+11 3.142940e+11 -6.289650e+05
-4.415870e+11 -5.515602e+10 -1.579232e+05
7.204875e+10 4.134824e+11 -6.446984e+05
4.111943e+11 1.804900e+11 6.150913e+05
2.727630e+11 -3.756806e+11 6.434622e+05
-4.067457e+11 1.808282e+11 -5.297087e+05
2.251436e+11 -3.099753e+11 4.368492e+06
-2.727980e+11 -3.756643e+11 -6.081328e+05
2.141354e+07 -4.562006e+11 -2.733698e+04
3.982195e+11 -2.051281e+11 2.641437e+04
2.797736e+11 3.080908e+11 3.849707e+04
-1.972452e+11 4.099380e+11 7.724708e+05
3.025735e+11 -2.921546e+11 -5.851225e+05
-4.338796e+11 -1.410631e+11 -2.666701e+06
1.920104e+11 3.992964e+11 -5.506399e+05
-8.425436e+10 -4.366756e+11 5.680137e+05
3.765227e+11 2.951024e+11 -2.817646e+05
3.156220e+11 -2.123859e+11 3.889823e+07
4.155771e+11 5.873120e+10 1.407466e+05
1.854209e+11 -3.776014e+11 -3.508844e+05
-1.853537e+11 -3.777116e+11 2.832682e+05
-3.893075e+11 -2.149976e+11 -1.213251e+05
-4.153710e+11 5.985083e+10 3.427828e+05
8.427665e+10 -4.366772e+11 -5.810474e+05
-3.019575e+11 -2.929640e+11 -1.496136e+05
4.430704e+11 -6.821315e+10 2.716831e+05
