# vtk DataFile Version 2.0
Electric current density generated by TTH
ASCII
DATASET UNSTRUCTURED_GRID
POINTS 70 double
1.408163e-05 0.000000e+00 -1.000000e-07
-4.351464e-06 1.339243e-05 -1.000000e-07
-8.276976e-06 1.139228e-05 -1.000000e-07
-1.139228e-05 8.276976e-06 -1.000000e-07
-1.339243e-05 4.351464e-06 -1.000000e-07
-1.408163e-05 7.978004e-21 -1.000000e-07
-1.339243e-05 -4.351464e-06 -1.000000e-07
-1.139228e-05 -8.276976e-06 -1.000000e-07
-8.276976e-06 -1.139228e-05 -1.000000e-07
-4.351464e-06 -1.339243e-05 -1.000000e-07
5.994826e-20 -1.408163e-05 -1.000000e-07
1.034694e-05 0.000000e+00 -1.000000e-07
4.351464e-06 -1.339243e-05 -1.000000e-07
8.276976e-06 -1.139228e-05 -1.000000e-07
1.139228e-05 -8.276976e-06 -1.000000e-07
1.339243e-05 -4.351464e-06 -1.000000e-07
9.452399e-06 4.208479e-06 -1.000000e-07
6.923453e-06 7.689274e-06 -1.000000e-07
3.197380e-06 9.840524e-06 -1.000000e-07
-1.081550e-06 1.029026e-05 -1.000000e-07
-5.173469e-06 8.960712e-06 -1.000000e-07
-8.370849e-06 6.081778e-06 -1.000000e-07
1.408163e-05 0.000000e+00 1.000000e-07
-1.012083e-05 2.151250e-06 -1.000000e-07
-1.012083e-05 -2.151250e-06 -1.000000e-07
-8.370849e-06 -6.081778e-06 -1.000000e-07
-5.173469e-06 -8.960712e-06 -1.000000e-07
-1.081550e-06 -1.029026e-05 -1.000000e-07
3.197380e-06 -9.840524e-06 -1.000000e-07
6.923453e-06 -7.689274e-06 -1.000000e-07
9.452399e-06 -4.208479e-06 -1.000000e-07
1.339243e-05 4.351464e-06 1.000000e-07
1.139228e-05 8.276976e-06 1.000000e-07
1.034694e-05 0.000000e+00 1.000000e-07
8.276976e-06 1.139228e-05 1.000000e-07
4.351464e-06 1.339243e-05 1.000000e-07
1.962275e-20 1.408163e-05 1.000000e-07
-4.351464e-06 1.339243e-05 1.000000e-07
-8.276976e-06 1.139228e-05 1.000000e-07
-1.139228e-05 8.276976e-06 1.000000e-07
-1.339243e-05 4.351464e-06 1.000000e-07
-1.408163e-05 7.978004e-21 1.000000e-07
-1.339243e-05 -4.351464e-06 1.000000e-07
-1.139228e-05 -8.276976e-06 1.000000e-07
1.339243e-05 4.351464e-06 -1.000000e-07
-8.276976e-06 -1.139228e-05 1.000000e-07
-4.351464e-06 -1.339243e-05 1.000000e-07
5.994826e-20 -1.408163e-05 1.000000e-07
4.351464e-06 -1.339243e-05 1.000000e-07
8.276976e-06 -1.139228e-05 1.000000e-07
1.139228e-05 -8.276976e-06 1.000000e-07
1.339243e-05 -4.351464e-06 1.000000e-07
9.452399e-06 4.208479e-06 1.000000e-07
6.923453e-06 7.689274e-06 1.000000e-07
3.197380e-06 9.840524e-06 1.000000e-07
1.139228e-05 8.276976e-06 -1.000000e-07
-1.081550e-06 1.029026e-05 1.000000e-07
-5.173469e-06 8.960712e-06 1.000000e-07
-8.370849e-06 6.081778e-06 1.000000e-07
-1.012083e-05 2.151250e-06 1.000000e-07
-1.012083e-05 -2.151250e-06 1.000000e-07
-8.370849e-06 -6.081778e-06 1.000000e-07
-5.173469e-06 -8.960712e-06 1.000000e-07
-1.081550e-06 -1.029026e-05 1.000000e-07
3.197380e-06 -9.840524e-06 1.000000e-07
6.923453e-06 -7.689274e-06 1.000000e-07
8.276976e-06 1.139228e-05 -1.000000e-07
9.452399e-06 -4.208479e-06 1.000000e-07
4.351464e-06 1.339243e-05 -1.000000e-07
1.962275e-20 1.408163e-05 -1.000000e-07
CELLS 140 560
3 3 21 2
3 25 6 7
3 68 18 66
3 0 11 15
3 12 13 28
3 44 11 0
3 10 12 28
3 7 8 25
3 69 18 68
3 4 21 3
3 2 21 20
3 25 24 6
3 66 18 17
3 15 11 30
3 28 13 29
3 44 16 11
3 27 10 28
3 69 19 18
3 25 8 26
3 4 23 21
3 29 14 30
3 20 19 1
3 55 17 16
3 5 24 23
3 26 9 27
3 2 20 1
3 6 24 5
3 13 14 29
3 66 17 55
3 9 10 27
3 55 16 44
3 14 15 30
3 8 9 26
3 1 19 69
3 5 23 4
3 22 0 44
3 22 44 31
3 44 55 31
3 55 66 34
3 31 55 32
3 32 55 34
3 66 68 35
3 34 66 35
3 68 69 36
3 68 36 35
3 69 1 37
3 36 69 37
3 1 2 37
3 2 3 39
3 37 2 38
3 2 39 38
3 3 4 40
3 39 3 40
3 4 5 41
3 40 4 41
3 5 6 42
3 41 5 42
3 6 7 43
3 42 6 43
3 43 7 8
3 8 9 45
3 43 8 45
3 9 10 46
3 45 9 46
3 47 10 12
3 46 10 47
3 12 13 48
3 47 12 48
3 49 13 14
3 48 13 49
3 14 15 51
3 49 14 50
3 14 51 50
3 51 15 22
3 15 0 22
3 33 52 11
3 11 52 16
3 52 17 16
3 17 53 18
3 52 53 17
3 18 54 19
3 53 54 18
3 19 56 20
3 54 56 19
3 20 57 21
3 56 57 20
3 21 58 23
3 57 58 21
3 23 59 24
3 58 59 23
3 24 60 25
3 59 60 24
3 25 62 26
3 60 61 25
3 61 62 25
3 26 63 27
3 62 63 26
3 27 64 28
3 63 64 27
3 28 65 29
3 64 65 28
3 65 30 29
3 65 67 30
3 30 67 11
3 67 33 11
3 39 58 38
3 61 42 43
3 35 54 34
3 22 33 51
3 48 49 64
3 31 33 22
3 47 48 64
3 43 45 61
3 36 54 35
3 40 58 39
3 38 58 57
3 61 60 42
3 54 53 34
3 51 33 67
3 64 49 65
3 52 33 31
3 63 47 64
3 36 56 54
3 61 45 62
3 40 59 58
3 65 50 67
3 37 57 56
3 32 53 52
3 41 60 59
3 62 46 63
3 38 57 37
3 42 60 41
3 49 50 65
3 34 53 32
3 46 47 63
3 32 52 31
3 50 51 67
3 45 46 62
3 37 56 36
3 41 59 40
CELL_TYPES 140
5
5
5
5
5
5
5
5
5
5
5
5
5
5
5
5
5
5
5
5
5
5
5
5
5
5
5
5
5
5
5
5
5
5
5
5
5
5
5
5
5
5
5
5
5
5
5
5
5
5
5
5
5
5
5
5
5
5
5
5
5
5
5
5
5
5
5
5
5
5
5
5
5
5
5
5
5
5
5
5
5
5
5
5
5
5
5
5
5
5
5
5
5
5
5
5
5
5
5
5
5
5
5
5
5
5
5
5
5
5
5
5
5
5
5
5
5
5
5
5
5
5
5
5
5
5
5
5
5
5
5
5
5
5
5
5
5
5
5
5
POINT_DATA 70
VECTORS 10.000GHz_fone_imag double
2.107357e-02 2.482063e-06 4.810984e-02
-6.673627e-03 1.954314e-02 4.772160e-02
-1.197897e-02 1.643041e-02 4.746899e-02
-1.740534e-02 1.257333e-02 4.855405e-02
-1.986100e-02 6.783803e-03 4.815898e-02
-2.069457e-02 -3.263067e-04 4.784050e-02
-1.950651e-02 -6.604434e-03 4.762754e-02
-1.700447e-02 -1.234516e-02 4.802776e-02
-1.230560e-02 -1.652245e-02 4.763889e-02
-6.713170e-03 -1.959462e-02 4.785073e-02
3.022878e-04 -2.101186e-02 4.814921e-02
4.405411e-02 -7.344738e-07 -1.090519e-01
6.524331e-03 -2.003149e-02 4.812659e-02
1.210043e-02 -1.718445e-02 4.806106e-02
1.650422e-02 -1.198510e-02 4.764602e-02
2.008351e-02 -6.201287e-03 4.805762e-02
3.941964e-02 1.794066e-02 -1.084239e-01
2.917432e-02 3.195831e-02 -1.083423e-01
1.451110e-02 4.467356e-02 -1.107286e-01
-4.280734e-03 4.244545e-02 -1.075476e-01
-2.424004e-02 4.080022e-02 -1.116817e-01
-3.538212e-02 2.529579e-02 -1.085053e-01
-2.104455e-02 -1.714790e-08 4.810516e-02
-4.161493e-02 9.060769e-03 -1.074188e-01
-4.511266e-02 -1.011134e-02 -1.101509e-01
-3.824847e-02 -2.777154e-02 -1.108847e-01
-2.355067e-02 -3.978831e-02 -1.101551e-01
-4.290433e-03 -4.237722e-02 -1.074429e-01
1.363879e-02 -4.191217e-02 -1.090354e-01
2.921130e-02 -3.192446e-02 -1.083842e-01
3.941075e-02 -1.793352e-02 -1.084133e-01
-2.006538e-02 -6.214574e-03 4.805451e-02
-1.648260e-02 -1.198018e-02 4.762676e-02
-4.408862e-02 -1.590757e-07 -1.090588e-01
-1.201461e-02 -1.710559e-02 4.801088e-02
-6.488527e-03 -2.000828e-02 4.806016e-02
-3.537200e-04 -2.093367e-02 4.809845e-02
6.716461e-03 -1.955746e-02 4.773157e-02
1.198756e-02 -1.646306e-02 4.747306e-02
1.742808e-02 -1.258849e-02 4.855969e-02
1.987273e-02 -6.805390e-03 4.816332e-02
2.066984e-02 2.917772e-04 4.783144e-02
1.946760e-02 6.591296e-03 4.761955e-02
1.697719e-02 1.232535e-02 4.802150e-02
2.008452e-02 6.201321e-03 4.805824e-02
1.228133e-02 1.648932e-02 4.763062e-02
6.670608e-03 1.958151e-02 4.784146e-02
-3.182480e-04 2.102984e-02 4.815393e-02
-6.500987e-03 2.003989e-02 4.812673e-02
-1.210784e-02 1.716140e-02 4.805699e-02
-1.650679e-02 1.198743e-02 4.764638e-02
-2.006416e-02 6.214690e-03 4.805385e-02
-3.943103e-02 -1.795111e-02 -1.084262e-01
-2.916952e-02 -3.195744e-02 -1.083413e-01
-1.451665e-02 -4.466969e-02 -1.107284e-01
1.647990e-02 1.197854e-02 4.762646e-02
4.281782e-03 -4.245180e-02 -1.075487e-01
2.424710e-02 -4.081751e-02 -1.116857e-01
3.538602e-02 -2.528869e-02 -1.085039e-01
4.159866e-02 -9.057363e-03 -1.074170e-01
4.511283e-02 1.010044e-02 -1.101488e-01
3.826391e-02 2.778190e-02 -1.108882e-01
2.353910e-02 3.979259e-02 -1.101525e-01
4.284935e-03 4.235238e-02 -1.074397e-01
-1.362253e-02 4.191527e-02 -1.090352e-01
-2.922556e-02 3.193491e-02 -1.083863e-01
1.200804e-02 1.712753e-02 4.801463e-02
-3.942343e-02 1.794438e-02 -1.084158e-01
6.515277e-03 1.999903e-02 4.806008e-02
3.395547e-04 2.091587e-02 4.809416e-02
