# vtk DataFile Version 2.0
Electric current density generated by TTH
ASCII
DATASET UNSTRUCTURED_GRID
POINTS 2101 double
-2.002655e-05 -8.698757e-06 -4.283187e-22
-2.149767e-05 2.457613e-06 8.053412e-07
1.927584e-05 1.034021e-06 1.564220e-06
1.927584e-05 -1.034021e-06 1.564220e-06
-1.931708e-05 -7.472343e-06 -1.632654e-06
-3.395973e-07 -1.926317e-05 1.544965e-06
-1.270313e-05 -1.745104e-05 -8.998032e-07
-1.718771e-05 -9.014771e-06 -1.612342e-06
7.044855e-06 -1.752302e-05 1.272714e-06
-1.527751e-05 1.387152e-05 1.659996e-06
-6.940674e-06 1.942753e-05 1.661749e-06
-1.960987e-05 -9.601243e-06 -4.283187e-22
4.680525e-06 1.828036e-05 -1.257363e-06
1.458724e-05 1.210562e-05 1.335183e-06
1.458724e-05 -1.210562e-05 1.335183e-06
-1.072553e-05 -1.870211e-05 9.410859e-07
-1.853806e-05 4.111197e-06 -1.361900e-06
1.142439e-05 1.435029e-05 -1.426301e-07
6.585474e-06 1.734181e-05 8.372057e-07
-1.154985e-05 -1.572782e-05 -1.652457e-06
-4.406005e-06 1.867447e-05 -1.500431e-06
-1.958407e-05 5.090421e-06 1.742350e-06
-1.915255e-05 -1.048383e-05 -4.283187e-22
1.193762e-05 -1.800880e-05 8.635099e-07
1.512377e-06 -2.151165e-05 9.325807e-07
-2.000211e-05 8.219871e-06 -8.289218e-07
-8.829252e-06 1.669172e-05 1.269794e-06
-5.564282e-06 -2.086834e-05 -8.786064e-07
-1.439338e-05 -1.613707e-05 -8.321874e-07
-1.710666e-05 -1.321892e-05 -8.405320e-07
-2.046571e-05 -7.070659e-07 1.704128e-06
-1.759477e-05 -6.933700e-06 -1.296320e-06
9.871351e-06 -1.583429e-05 1.012010e-06
-1.865554e-05 -1.134468e-05 -4.283187e-22
-1.306762e-05 -1.378082e-05 1.364269e-06
1.948387e-06 -2.047213e-05 1.681802e-06
-1.940299e-05 6.978496e-06 -1.665102e-06
1.163402e-05 1.514457e-05 -1.442842e-06
1.169027e-05 -1.505117e-05 -1.414959e-06
-2.003263e-05 8.164527e-06 8.152416e-07
3.253424e-06 2.041646e-05 1.646699e-06
-2.069268e-05 6.309222e-06 8.140280e-07
1.513567e-05 1.180510e-05 -1.505086e-06
1.513567e-05 -1.180510e-05 -1.505086e-06
-1.811986e-05 -1.218203e-05 -4.283187e-22
-1.820859e-05 9.584629e-06 1.678198e-06
-1.344534e-05 -1.322810e-05 -1.249140e-06
-1.578010e-05 9.650208e-06 7.313852e-07
9.517790e-06 1.943943e-05 7.923001e-07
-1.869547e-05 1.080088e-05 8.892517e-07
-7.957740e-06 -1.842159e-05 1.748646e-06
-2.155374e-05 -1.247935e-06 -8.915525e-07
-1.033035e-05 1.780433e-05 -1.676097e-06
-1.317470e-05 1.450783e-05 -1.679205e-06
-1.494646e-06 -1.932790e-05 -1.602608e-06
-1.754662e-05 -1.299412e-05 -4.283187e-22
2.125825e-05 3.733537e-06 -9.019534e-07
2.125825e-05 -3.733537e-06 -9.019534e-07
-6.334727e-06 -1.933183e-05 1.729631e-06
-1.818646e-05 1.170557e-05 -8.238795e-07
4.660254e-06 -2.001105e-05 1.686855e-06
-2.075500e-05 5.891554e-06 -9.161210e-07
-1.676815e-05 -1.070891e-05 -1.738456e-06
-1.828894e-05 -1.432775e-06 -1.701592e-07
-2.057501e-05 3.597739e-06 1.554116e-06
-1.838239e-05 7.465967e-06 -1.731533e-06
-1.693701e-05 -1.377928e-05 -4.283187e-22
-1.904199e-05 -6.792020e-06 1.743784e-06
7.816050e-06 -1.919876e-05 1.626093e-06
-1.654428e-05 -1.143084e-05 1.748583e-06
4.134709e-06 1.792220e-05 4.400946e-07
1.826216e-05 2.274231e-06 4.778154e-07
1.826216e-05 -2.274231e-06 4.778154e-07
-2.115836e-05 4.330922e-06 -8.792400e-07
-1.410692e-05 -1.505607e-05 1.661045e-06
7.882836e-06 2.008483e-05 9.138919e-07
-1.664956e-05 8.081883e-06 -7.536569e-07
-1.629230e-05 -1.453588e-05 -4.283187e-22
9.705347e-06 1.781887e-05 1.736674e-06
8.843590e-06 -1.608861e-05 -2.783960e-07
-2.050140e-05 -2.640278e-06 -1.647889e-06
4.071975e-07 -1.918286e-05 -1.500417e-06
-2.057318e-05 1.760178e-06 -1.655668e-06
-1.966935e-05 9.028130e-06 7.963437e-07
1.800449e-05 -3.773270e-06 4.502096e-07
1.800449e-05 3.773270e-06 4.502096e-07
-1.509374e-05 1.278371e-05 -1.721847e-06
-1.878555e-05 -1.815116e-06 1.260244e-06
-1.561382e-05 -1.526236e-05 -4.283187e-22
-1.745617e-05 1.082415e-05 -1.688704e-06
-4.613043e-06 -1.779540e-05 4.023068e-07
1.044550e-05 1.560365e-05 -1.160428e-06
1.047322e-05 -1.554210e-05 -1.118963e-06
-3.920578e-06 -2.128875e-05 7.876346e-07
2.334210e-06 2.146911e-05 8.817052e-07
1.648105e-05 8.044762e-06 1.020603e-07
1.648105e-05 -8.044762e-06 1.020603e-07
-2.003611e-05 -3.676193e-06 -1.725341e-06
1.347613e-05 1.243497e-05 6.947672e-09
-1.490298e-05 -1.595720e-05 -4.283187e-22
1.347272e-05 -1.243866e-05 8.204138e-09
-1.935219e-05 5.833596e-06 1.744133e-06
1.857740e-05 -8.696390e-07 -9.191886e-07
1.856887e-05 9.120633e-07 -9.086056e-07
5.276075e-06 -1.758127e-05 2.583132e-07
-1.818853e-05 -6.168409e-06 -1.511548e-06
-8.198031e-06 1.997742e-05 8.843180e-07
-1.654137e-05 1.392217e-05 -8.377502e-07
-1.037520e-05 1.581811e-05 1.301215e-06
-1.873444e-05 7.600705e-06 1.743745e-06
-1.416125e-05 -1.661896e-05 -4.283187e-22
7.423850e-07 -2.158728e-05 8.740901e-07
-1.072202e-05 1.552688e-05 -1.256519e-06
-4.000561e-06 1.884767e-05 1.545708e-06
-1.896550e-05 -8.139998e-06 1.658964e-06
-1.039949e-05 1.517325e-05 -4.479172e-07
2.797623e-06 1.940294e-05 -1.681054e-06
2.144705e-05 2.661803e-06 8.537598e-07
2.144705e-05 -2.661803e-06 8.537598e-07
2.094104e-05 -5.449938e-06 8.035833e-07
2.094104e-05 5.449938e-06 8.035833e-07
-1.339017e-05 -1.724628e-05 -4.283187e-22
1.461222e-05 -1.130735e-05 6.846679e-07
1.461222e-05 1.130735e-05 6.846679e-07
-1.543779e-05 -1.397980e-05 1.583764e-06
1.223736e-05 1.655220e-05 -1.675967e-06
1.223736e-05 -1.655220e-05 -1.675967e-06
3.979807e-07 1.921918e-05 -1.521458e-06
9.412095e-06 -1.947598e-05 8.180671e-07
4.345817e-06 -1.781829e-05 -1.169092e-07
1.037745e-05 1.905194e-05 -6.839332e-07
-1.681491e-05 7.367350e-06 2.727383e-07
-1.259134e-05 -1.783786e-05 -4.283187e-22
-2.149629e-05 -2.036220e-06 8.870146e-07
-1.158897e-05 1.704737e-05 1.667102e-06
-1.988720e-05 5.179241e-06 -1.685751e-06
-1.919366e-05 -3.564604e-06 1.655444e-06
-1.858505e-05 -5.115716e-06 1.550281e-06
8.934950e-06 1.833160e-05 -1.721455e-06
-4.390973e-06 -2.002227e-05 1.699355e-06
1.419874e-05 1.635026e-05 7.712472e-07
-5.901640e-06 -2.082699e-05 7.871261e-07
2.451937e-06 1.820679e-05 3.455025e-07
-1.176640e-05 -1.839246e-05 -4.283187e-22
-1.259674e-06 1.938566e-05 -1.619868e-06
-1.145746e-05 1.678229e-05 -1.732886e-06
-3.795922e-07 -1.858576e-05 9.059327e-07
8.417529e-06 -1.733918e-05 -1.549294e-06
3.664700e-06 1.860712e-05 1.342302e-06
1.917625e-05 7.161351e-06 -1.705974e-06
1.917625e-05 -7.161351e-06 -1.705974e-06
-1.095323e-05 -1.490850e-05 -7.371487e-07
5.765979e-07 -2.082646e-05 -1.580215e-06
-1.681540e-05 1.230109e-05 -1.580209e-06
-1.091709e-05 -1.890895e-05 -4.283187e-22
-1.874286e-05 -2.682102e-06 -1.315997e-06
-2.868636e-08 -1.856329e-05 -8.609725e-07
1.130108e-05 -1.482500e-05 9.860939e-07
-1.874556e-05 2.167304e-06 1.257735e-06
-1.891271e-05 -7.890249e-07 1.311932e-06
-1.859560e-05 8.765649e-06 1.683670e-06
1.034781e-05 -1.515099e-05 -1.939126e-07
8.967550e-06 1.601077e-05 -2.238664e-07
2.042116e-05 -6.929690e-06 9.323649e-07
2.042116e-05 6.929690e-06 9.323649e-07
-1.004514e-05 -1.938624e-05 -4.283187e-22
1.124802e-05 1.513967e-05 1.248298e-06
-8.894290e-07 -2.082126e-05 1.577451e-06
-1.288608e-05 1.729656e-05 -9.258026e-07
-3.132336e-07 2.074862e-05 1.617138e-06
1.673656e-06 -1.849672e-05 -8.766399e-07
-1.836508e-05 -6.043705e-06 1.579055e-06
-1.624049e-05 1.110753e-05 1.700052e-06
3.769342e-06 -1.804753e-05 5.836407e-07
1.762935e-05 -7.216453e-06 1.408647e-06
1.762935e-05 7.216453e-06 1.408647e-06
-9.152372e-06 -1.982335e-05 -4.283187e-22
-6.399908e-06 1.806144e-05 1.484927e-06
-1.825502e-05 -2.475115e-06 -5.397152e-07
-1.797409e-05 5.021591e-06 1.016384e-06
3.043254e-07 -2.070483e-05 1.634525e-06
-9.994303e-06 -1.616988e-05 -1.378376e-06
2.843864e-06 -1.813436e-05 2.591557e-07
1.293508e-05 -1.347992e-05 -1.043572e-06
1.293508e-05 1.347992e-05 -1.043572e-06
-6.154807e-06 -1.791121e-05 -1.320703e-06
1.800413e-05 -4.557948e-06 8.763527e-07
-8.240635e-06 -2.021937e-05 -4.283187e-22
1.800413e-05 4.557948e-06 8.763527e-07
-8.501254e-06 -1.989877e-05 8.034449e-07
-9.270177e-06 1.587249e-05 -3.925044e-07
-2.039098e-06 -2.155580e-05 7.770926e-07
-6.765838e-06 -2.055055e-05 8.092493e-07
1.769406e-05 5.898149e-06 1.000576e-06
1.769406e-05 -5.898149e-06 1.000576e-06
-1.274647e-05 1.748719e-05 8.015626e-07
-1.154904e-05 1.829978e-05 8.020976e-07
-2.073209e-06 -1.888342e-05 1.368641e-06
-7.311819e-06 -2.057349e-05 -4.283187e-22
-2.018394e-05 -1.170083e-06 -1.743724e-06
-6.831865e-06 2.055824e-05 -7.531132e-07
1.827130e-05 -2.429301e-06 -5.697231e-07
1.827130e-05 2.429301e-06 -5.697231e-07
-1.415090e-05 -1.197443e-05 -8.134341e-07
-8.595226e-06 1.780435e-05 -1.720154e-06
6.482509e-06 1.825012e-05 -1.594462e-06
-7.136425e-06 -1.691232e-05 -2.614158e-07
-2.971599e-06 2.141510e-05 -8.380393e-07
-1.482922e-06 -1.840782e-05 6.635302e-07
-6.367847e-06 -2.088496e-05 -4.283187e-22
-1.841188e-05 -4.185074e-06 -1.268360e-06
-1.798142e-05 -4.606244e-06 8.587011e-07
-1.711083e-05 -1.322248e-05 8.304720e-07
-2.083982e-05 -5.723983e-06 8.537170e-07
6.189285e-07 2.084366e-05 -1.571359e-06
-7.235903e-06 -2.036020e-05 -8.605624e-07
-6.178450e-06 -1.728640e-05 2.681487e-07
-9.350542e-06 -1.737986e-05 1.713388e-06
1.586489e-05 -1.012601e-05 -1.208045e-06
1.586489e-05 1.012601e-05 -1.208045e-06
-5.410678e-06 -2.115315e-05 -4.283187e-22
1.899402e-05 -4.986875e-06 1.690472e-06
1.899402e-05 4.986875e-06 1.690472e-06
-1.126648e-05 -1.852694e-05 -7.097705e-07
2.161609e-05 -1.446948e-06 7.515018e-07
2.161609e-05 1.446948e-06 7.515018e-07
-2.023159e-05 1.998645e-06 1.731547e-06
-2.033281e-05 4.578200e-07 -1.730414e-06
-1.626860e-05 1.267260e-05 1.664427e-06
-1.383938e-05 1.539963e-05 -1.635493e-06
1.293365e-05 1.478031e-05 1.691114e-06
-4.442293e-06 -2.137749e-05 -4.283187e-22
-1.840648e-05 -2.554710e-07 4.951823e-07
-3.529006e-06 -1.946359e-05 -1.722029e-06
1.942304e-05 -2.208349e-06 1.664172e-06
1.942304e-05 2.208349e-06 1.664172e-06
-6.015279e-06 1.817059e-05 -1.471385e-06
1.040894e-05 -1.901574e-05 -7.219173e-07
2.660855e-06 -1.976344e-05 -1.742832e-06
3.988316e-06 2.129497e-05 7.498790e-07
-5.849256e-06 2.087627e-05 7.174333e-07
-7.398169e-06 1.920571e-05 -1.676950e-06
-3.464702e-06 -2.155752e-05 -4.283187e-22
[...]
POINT_DATA 2101
VECTORS 10.000GHz_fone_imag double
-8.055389e+09 1.795142e+10 -2.278530e+08
1.831286e+09 2.385427e+10 -2.778416e+09
5.097814e+09 -4.028703e+10 2.181143e+09
-2.374481e+09 -4.453232e+10 1.616115e+09
-9.438027e+09 2.329169e+10 -5.464666e+08
-4.352672e+10 5.104328e+09 -5.237976e+08
-2.122363e+10 1.526144e+10 -1.840789e+09
-1.618119e+10 2.740565e+10 -4.284348e+08
-4.413330e+10 -1.479839e+10 -2.708094e+09
2.746375e+10 2.893421e+10 6.723265e+08
3.594346e+10 1.142396e+10 3.850557e+08
-1.090528e+10 2.007793e+10 -2.612041e+09
3.953348e+10 -1.335293e+10 -1.317529e+09
2.978794e+10 -3.572797e+10 -5.610349e+08
-3.076230e+10 -3.633000e+10 6.942090e+08
-2.309435e+10 1.430429e+10 -1.220664e+09
1.363485e+10 5.378007e+10 -1.689686e+09
3.134294e+10 -2.127961e+10 -1.288180e+09
5.090134e+10 -2.016728e+10 -1.296800e+09
-3.157767e+10 2.047957e+10 3.059736e+09
5.200083e+10 1.276824e+10 -4.122378e+08
7.419588e+09 2.690498e+10 2.265378e+09
-9.319152e+09 2.069620e+10 -2.416380e+07
-2.348487e+10 -1.451464e+10 1.661999e+09
-2.581211e+10 5.616430e+08 2.415923e+09
1.231208e+10 2.371918e+10 -2.286757e+09
3.626053e+10 1.705086e+10 1.899369e+09
-2.597048e+10 7.459900e+09 9.151774e+08
-2.041656e+10 1.730790e+10 1.159445e+09
-1.336812e+10 1.895637e+10 -1.515854e+09
3.150805e+09 3.487861e+10 8.834879e+07
-1.333899e+10 3.283118e+10 -1.277672e+09
-4.373763e+10 -2.869520e+10 7.276816e+08
-1.307924e+10 1.807164e+10 -2.502579e+08
-4.046806e+10 3.619578e+10 -1.136198e+08
-2.794780e+10 -3.081594e+09 -3.096043e+08
1.197400e+10 2.607560e+10 -1.532072e+08
2.167044e+10 -1.646577e+10 1.445752e+09
-3.647376e+10 -3.103661e+10 -2.033458e+09
1.157373e+10 2.378381e+10 1.503782e+08
3.068715e+10 -4.754567e+09 -2.672205e+09
9.804224e+09 2.534348e+10 -1.326376e+09
2.937880e+10 -3.870014e+10 -3.139135e+07
-2.964572e+10 -3.876035e+10 1.299062e+08
-1.047937e+10 1.701380e+10 -2.120752e+08
1.329553e+10 2.193111e+10 -1.084561e+09
-3.229871e+10 3.439274e+10 5.878402e+08
2.150299e+10 3.682176e+10 -2.554248e+09
3.140373e+10 -1.541085e+10 -7.848248e+08
1.155876e+10 1.810102e+10 9.589734e+07
-2.996847e+10 1.317561e+10 -2.897249e+09
-2.117746e+09 2.429879e+10 -8.581445e+08
2.563496e+10 1.428412e+10 -6.754360e+08
2.640386e+10 2.315535e+10 4.237514e+09
-3.790323e+10 -9.170197e+08 -1.272116e+09
-1.302309e+10 1.514344e+10 -1.380535e+08
3.512425e+09 -2.079387e+10 -1.005602e+08
-5.322310e+09 -3.228311e+10 2.009740e+08
-3.904963e+10 1.309446e+10 4.308094e+08
1.653107e+10 2.231345e+10 9.169797e+08
-4.027937e+10 -9.352601e+09 -4.881776e+08
9.318466e+09 2.988305e+10 1.080689e+07
-1.496971e+10 2.338295e+10 3.810487e+07
-4.418227e+09 4.638809e+10 -3.924160e+09
4.235528e+09 2.420235e+10 -1.011045e+09
1.556730e+10 3.946776e+10 -1.207771e+08
-1.332851e+10 1.994031e+10 -1.638563e+08
-9.020421e+09 2.194798e+10 1.212395e+09
-2.647204e+10 -1.242017e+10 2.264989e+08
-2.165485e+10 3.075847e+10 3.011725e+08
4.398819e+10 -1.363269e+10 -1.411759e+09
6.400860e+09 -4.872366e+10 -2.830401e+09
-8.279880e+09 -6.481172e+10 4.601095e+09
7.384596e+09 2.234325e+10 -4.508435e+08
-2.680117e+10 2.573563e+10 -1.888108e+08
3.069961e+10 -1.111099e+10 -1.042624e+08
2.274672e+10 4.471526e+10 -8.423992e+08
-2.203033e+10 2.537353e+10 -1.934147e+09
2.996126e+10 -1.342162e+10 -2.171109e+09
-2.817302e+10 -1.663178e+10 -7.112746e+08
-4.661889e+09 2.751701e+10 3.846427e+09
-2.870963e+10 -1.730432e+09 -6.637725e+08
3.925076e+09 3.095782e+10 -1.095913e+09
9.616726e+09 2.563742e+10 5.482225e+08
-1.145234e+10 -5.577735e+10 8.480441e+08
1.046983e+10 -4.841090e+10 2.576191e+09
2.914739e+10 3.176770e+10 5.100514e+07
-3.816312e+09 5.143617e+10 -1.483081e+09
-1.879463e+10 1.807472e+10 -6.477157e+07
1.445730e+10 2.142914e+10 3.520113e+08
-4.857056e+10 1.343243e+10 -1.617901e+09
3.420211e+10 -2.501943e+10 4.028162e+08
-3.258184e+10 -2.447120e+10 1.666612e+09
-2.622793e+10 5.813160e+09 2.958676e+09
2.267153e+10 -5.408375e+08 7.755880e+08
2.201773e+10 -4.812768e+10 -1.589156e+09
-2.231330e+10 -4.884548e+10 3.259908e+07
-5.844097e+09 3.093307e+10 -2.703766e+09
3.534741e+10 -3.853158e+10 2.287823e+09
-2.457411e+10 2.400704e+10 -2.797115e+09
-3.823755e+10 -4.098406e+10 -7.671302e+08
9.265548e+09 2.788093e+10 -2.045417e+09
-4.006265e+09 -3.890630e+10 3.482236e+09
3.832412e+09 -4.890868e+10 -2.057370e+09
-4.499226e+10 -1.157327e+10 -8.913068e+08
-1.168399e+10 4.563547e+10 2.830052e+09
1.965652e+10 7.464302e+09 3.619970e+08
1.302772e+10 1.607852e+10 -8.951663e+08
2.942556e+10 1.770590e+10 1.203164e+09
9.719566e+09 2.468411e+10 8.269438e+08
-1.674901e+10 1.418679e+10 -3.121067e+08
-2.285641e+10 -1.487660e+09 5.725390e+08
3.882826e+10 2.575397e+10 3.176569e+09
3.552019e+10 6.634179e+09 -4.617888e+07
-1.764587e+10 3.672549e+10 -2.300499e+08
4.423036e+10 2.991784e+10 4.649772e+09
4.491883e+10 -8.419517e+09 6.771304e+08
3.155271e+09 -3.474676e+10 2.036460e+09
-3.193204e+09 -2.632989e+10 -6.077839e+07
-6.453913e+09 -2.757188e+10 -5.767463e+08
7.160504e+09 -2.925360e+10 1.804447e+08
-1.754333e+10 1.307205e+10 2.179464e+08
-2.723032e+10 -3.376612e+10 -1.337908e+09
2.705758e+10 -3.356759e+10 1.370399e+09
-1.769303e+10 2.385801e+10 3.488396e+09
2.531385e+10 -1.841262e+10 -6.048467e+07
-2.593880e+10 -1.894961e+10 4.065783e+08
3.494205e+10 -2.252891e+09 -9.233277e+08
-1.668215e+10 -7.768509e+09 -1.131764e+09
-4.753550e+10 -1.259060e+10 5.282214e+09
1.970847e+10 -1.059703e+10 6.102437e+07
1.717506e+10 4.003083e+10 -2.506214e+09
-2.865303e+10 1.940508e+10 4.065849e+08
-2.800034e+09 3.122548e+10 -3.403238e+07
2.387595e+10 1.923545e+10 2.449782e+09
6.703888e+09 2.910861e+10 -1.956492e+09
-6.759580e+09 4.698938e+10 1.492586e+08
-1.470747e+10 4.379118e+10 1.066871e+08
3.633239e+10 -2.029124e+10 3.628818e+07
-3.119711e+10 6.058388e+09 -1.708601e+09
1.982207e+10 -1.489211e+10 2.010621e+09
-3.190914e+10 9.341342e+09 2.900528e+08
5.480567e+10 -5.198799e+09 3.943535e+09
-2.666016e+10 1.797550e+10 1.369389e+09
4.626238e+10 2.042797e+09 6.829152e+08
2.103905e+10 1.984859e+10 1.474989e+09
-3.770269e+10 -4.686635e+07 2.279949e+08
-4.771235e+10 -2.216343e+10 -8.388877e+08
3.255346e+10 -9.980375e+09 8.128443e+08
1.093456e+10 -3.877498e+10 -9.304425e+08
-1.545700e+10 -4.085047e+10 -2.698177e+07
-3.245309e+10 2.631682e+10 3.759568e+09
-3.669464e+10 -2.320291e+09 2.747493e+09
1.505466e+10 1.940066e+10 -8.477592e+08
-1.852169e+10 1.076607e+10 6.309398e+07
-7.861056e+09 3.839597e+10 1.275025e+09
-4.433493e+10 -3.513175e+09 -1.401214e+09
-3.438459e+10 -3.088047e+10 3.825994e+09
6.580125e+09 3.352651e+10 -1.613937e+09
-4.436183e+09 4.621703e+10 -7.842840e+07
1.331858e+10 2.524909e+10 1.177039e+09
-3.766090e+10 -2.093174e+10 3.027024e+09
2.878866e+10 -1.668486e+10 -7.694968e+07
-1.186110e+10 -3.109870e+10 1.008027e+07
1.163647e+10 -3.033462e+10 -3.585842e+07
-2.349024e+10 1.257491e+10 -1.196350e+09
3.495013e+10 -2.684615e+10 -3.398554e+08
-3.373248e+10 -2.154349e+08 -1.302087e+09
2.149307e+10 1.657577e+10 4.539516e+06
2.498765e+10 2.223111e+08 -7.342939e+08
-5.109978e+10 -3.018333e+09 2.549706e+09
-1.374789e+10 3.427842e+10 1.632163e+09
2.920127e+10 3.539285e+10 4.662259e+08
-4.943596e+10 -9.858222e+09 4.937924e+07
-1.003730e+10 -2.794536e+10 2.003520e+09
1.189142e+10 -2.927782e+10 -1.671353e+09
-1.904565e+10 8.684747e+09 3.373394e+09
4.162889e+10 1.187481e+10 1.252421e+08
-4.507010e+09 3.802633e+10 6.572795e+09
1.204337e+10 5.054170e+10 1.986755e+08
-3.151295e+10 -1.407942e+09 6.497984e+08
-3.755242e+10 2.178500e+10 1.312057e+08
-4.215744e+10 -7.366255e+09 -8.292040e+08
-4.417245e+10 -4.374841e+10 -4.602876e+08
2.264877e+10 -2.461869e+10 1.283576e+09
-3.729314e+10 1.369606e+10 -1.913781e+09
-9.660751e+09 -4.860842e+10 -1.382218e+09
-2.596937e+10 1.033899e+10 -1.504504e+08
9.733990e+09 -4.455584e+10 8.879958e+08
-1.662742e+10 9.106375e+09 -2.047806e+09
3.938947e+10 2.372522e+10 -8.367356e+08
-3.356627e+10 3.581270e+09 2.932277e+08
-1.937847e+10 8.700099e+09 -1.710328e+09
1.592494e+10 -4.657390e+10 7.598036e+08
-1.887484e+10 -4.978702e+10 -5.766953e+09
1.819691e+10 1.132930e+10 -7.068343e+08
2.311816e+10 1.331733e+10 1.344357e+09
-4.868002e+10 2.901085e+09 1.966127e+09
-2.233449e+10 6.363565e+09 -4.460101e+08
-2.628294e+09 3.803872e+10 2.213541e+08
2.197823e+10 6.821780e+09 -4.791056e+07
-6.776270e+09 -4.260031e+10 1.632636e+09
4.426662e+09 -4.172742e+10 4.197019e+09
-3.430037e+10 4.018560e+10 -2.284619e+09
3.304965e+10 1.399754e+10 1.968448e+09
3.285161e+10 -7.652866e+09 -9.114384e+08
-4.278365e+10 1.465983e+10 4.345248e+09
2.093674e+10 2.294127e+09 8.806952e+08
-5.481401e+10 4.178807e+09 -4.153474e+07
-2.404250e+10 9.788250e+09 -1.018056e+09
-1.365695e+10 3.737599e+10 -4.739358e+08
-9.776494e+09 3.572210e+10 -2.712154e+09
-1.561915e+10 1.842186e+10 2.247755e+09
-5.318224e+09 2.098982e+10 3.816251e+08
4.242912e+10 -2.055259e+09 -1.093603e+09
-2.369799e+10 6.003064e+09 -1.236346e+09
-3.339716e+10 1.513952e+10 1.423922e+09
-3.246311e+10 2.175025e+10 1.743851e+09
-1.905580e+10 -3.344912e+10 2.291805e+09
1.893694e+10 -3.328693e+10 -2.398215e+09
-2.835366e+10 7.103923e+09 -6.565721e+08
-7.347598e+09 -3.008720e+10 -1.279324e+08
1.149413e+10 -3.771645e+10 2.682847e+09
-2.139446e+10 1.308844e+10 1.971464e+09
-1.447208e+09 -2.478262e+10 -9.299335e+08
2.321044e+09 -3.033350e+10 -5.229995e+08
4.833775e+09 2.863003e+10 1.275677e+09
-2.378449e+09 3.094985e+10 -2.951857e+09
1.807647e+10 1.970362e+10 -7.119777e+08
2.129009e+10 1.904363e+10 3.777081e+09
2.528066e+10 -2.632298e+10 2.657760e+09
-2.620129e+10 5.252532e+09 1.138989e+09
-3.083620e+09 4.382391e+10 -3.040034e+09
-3.680862e+10 9.898116e+09 1.080156e+08
-2.999088e+09 -4.767582e+10 1.138222e+07
6.312099e+09 -4.384058e+10 1.374082e+09
3.881743e+10 1.046042e+10 -2.866560e+09
-2.051482e+10 -1.366108e+10 -2.556192e+09
-4.012957e+10 -7.694335e+09 -1.798170e+09
2.315553e+10 -5.970465e+09 2.396262e+09
2.922841e+10 8.956407e+09 -1.889740e+09
2.891351e+10 8.668349e+09 -8.531184e+08
-3.076997e+10 5.203152e+09 -2.623817e+07
-2.041291e+09 4.675672e+10 -1.320044e+09
5.978792e+09 4.035297e+10 -6.152189e+08
6.623822e+09 3.941119e+10 6.325565e+08
-2.139928e+10 1.293978e+10 -1.042084e+09
1.882691e+10 8.981379e+09 -4.648793e+08
-1.311597e+10 2.947530e+10 1.931910e+09
-3.956558e+10 -3.319400e+10 -2.293480e+09
3.952932e+10 7.060570e+09 -1.837087e+08
4.705045e+10 -3.064524e+10 -1.823232e+09
2.540532e+10 1.988355e+10 -2.037644e+09
-2.239697e+10 2.224093e+09 -4.879257e+08
-3.118428e+10 4.827518e+09 1.306568e+09
-3.120400e+10 2.703753e+10 -3.018799e+09
-3.095254e+10 -1.294188e+09 9.843048e+08
4.715325e+09 2.843480e+10 2.948369e+09
1.792279e+10 1.906068e+10 -4.576938e+08
3.436378e+09 -3.925789e+10 5.208205e+08
-2.043220e+09 -5.342208e+10 6.698368e+08
-1.393141e+10 -2.892658e+10 -5.747977e+08
1.313306e+10 -2.908512e+10 1.419597e+09
-3.995768e+10 7.198103e+09 -2.730190e+09
-2.218128e+10 4.281224e+08 3.210818e+08
-3.537403e+10 2.605074e+10 -7.641541e+08
-1.563473e+10 -1.411757e+10 5.095262e+08
-5.098205e+10 2.452644e+10 4.711835e+09
2.723223e+10 3.492788e+09 -7.783808e+08
-3.307049e+10 1.467337e+10 -4.504970e+09
2.774511e+10 2.010249e+10 -5.743818e+08
1.411615e+10 1.579385e+10 1.930938e+09
-1.409974e+10 4.184437e+10 -7.208797e+07
3.037776e+10 -1.103036e+09 3.900396e+08
-3.819362e+10 -1.470985e+10 -4.040577e+07
-1.954041e+10 1.525653e+09 1.199590e+09
-3.007619e+10 -8.655526e+09 4.226485e+08
1.584640e+10 2.097497e+10 -4.573513e+08
2.221479e+10 -3.408046e+10 -2.290960e+09
-2.247789e+10 -3.533590e+10 2.055638e+08
1.282418e+10 -1.469400e+10 1.301132e+09
-1.279609e+10 -1.473580e+10 -1.289833e+09
-3.012419e+10 -4.262201e+10 4.432861e+08
2.995678e+10 -4.244550e+10 -3.721985e+08
-2.015828e+10 -2.913108e+10 5.643883e+08
2.014035e+10 -2.915423e+10 -5.624089e+08
-3.049676e+10 -7.610780e+08 6.943254e+08
-1.489756e+10 -3.419079e+10 7.178210e+08
1.424423e+10 -3.618015e+10 -7.222546e+08
-1.877425e+10 2.002956e+10 -3.312017e+08
-6.349414e+09 -3.620210e+10 9.154075e+07
6.806036e+09 -3.032070e+10 1.332445e+09
-1.274590e+10 -2.841612e+10 -1.376783e+09
1.316283e+10 -2.926960e+10 1.311796e+09
4.158638e+10 -2.550430e+09 -6.311544e+08
-2.279333e+10 -2.029747e+10 -3.059550e+08
1.644810e+10 -1.225050e+10 -1.220667e+09
-2.402543e+10 -1.669842e+09 -5.170995e+08
2.348131e+10 8.992768e+09 8.576404e+08
1.425069e+10 2.002415e+10 2.260909e+09
-4.826842e+10 2.378205e+10 1.477715e+09
4.005210e+10 1.413668e+10 -7.808258e+09
-3.151267e+10 4.054285e+10 2.517792e+08
3.617387e+10 1.849149e+10 -1.518219e+09
-1.167957e+10 -2.433890e+10 6.890958e+08
1.096914e+10 -2.336981e+10 -9.755474e+08
-1.946428e+09 -2.651818e+10 8.127443e+08
2.829855e+09 -3.487647e+10 -1.981780e+09
-2.651219e+10 -2.856592e+09 -8.943040e+08
-2.231296e+10 1.446928e+10 -9.210014e+08
-2.992972e+10 -9.403540e+09 -4.717228e+08
3.651885e+10 4.412874e+10 -4.011172e+09
-3.545677e+10 4.428958e+10 -1.266123e+09
-2.235755e+08 -3.069597e+10 1.375297e+09
9.810666e+08 -2.775142e+10 6.515567e+08
-1.899351e+10 5.727304e+09 -2.051290e+09
-2.240026e+10 2.192820e+10 1.240334e+09
-3.525412e+10 -5.685900e+09 -2.870427e+08
-1.386200e+09 -3.992881e+10 7.013684e+08
-2.725237e+10 -4.820415e+09 -1.598307e+09
5.282030e+09 -3.277982e+10 -9.306597e+08
-7.633751e+09 2.855656e+10 4.877327e+08
4.545594e+10 2.850964e+09 1.499879e+09
-5.921790e+09 -2.310701e+10 -1.193437e+08
5.688763e+09 -2.292731e+10 5.246516e+08
-1.162551e+10 4.016167e+10 2.108052e+09
2.971704e+10 1.730064e+10 -1.566977e+09
-1.302064e+10 2.886546e+10 -1.788481e+09
-3.315515e+10 -2.416495e+10 -3.129329e+09
-4.534389e+09 3.232503e+10 -1.578961e+09
-2.292697e+10 -4.061952e+09 -1.678704e+08
3.118678e+10 -1.130142e+10 -1.714081e+08
-1.690239e+10 3.239949e+10 1.340302e+09
1.920568e+10 2.951102e+10 -2.001865e+09
-1.342853e+10 -1.697337e+10 5.115673e+08
1.354674e+10 -1.680065e+10 -6.220359e+08
1.521060e+10 3.171740e+10 2.072068e+09
-3.122793e+10 -1.546922e+10 -6.519257e+08
-1.954034e+10 -1.773766e+10 -2.325829e+08
1.642627e+10 -1.433622e+10 6.538198e+08
-2.762874e+10 8.261547e+09 8.406444e+08
-2.308848e+10 -5.712356e+09 4.224769e+09
9.070973e+09 3.678485e+10 -1.608869e+09
2.694111e+10 -3.899020e+08 -1.047677e+08
2.239340e+10 -3.522279e+08 -1.000311e+09
-3.914406e+10 8.360709e+09 1.716427e+08
3.891059e+10 2.210045e+09 6.279328e+08
1.974272e+10 -9.602785e+09 1.305486e+09
-2.287299e+10 4.700476e+10 1.948287e+09
1.968430e+10 -2.468379e+10 -1.389676e+09
-1.948593e+10 -2.409314e+10 1.610147e+09
1.650404e+10 -2.402167e+10 9.345159e+08
-2.615018e+10 -8.087657e+09 -2.442529e+09
-1.650299e+10 -2.399571e+10 -9.722035e+08
2.147618e+10 -1.501756e+10 -1.807348e+08
4.683391e+10 1.412748e+10 4.357253e+09
7.337793e+09 -4.444037e+10 8.472719e+08
-1.085963e+10 -3.467370e+10 -4.481402e+08
-4.833879e+10 -7.094781e+09 -2.131862e+09
4.171309e+09 5.264868e+10 -2.178891e+08
-1.650551e+10 3.195010e+10 -1.776390e+09
-3.932068e+10 1.472999e+09 1.102582e+09
-3.113194e+10 -1.192663e+10 2.572821e+08
-2.254635e+10 -7.428623e+09 -2.665419e+08
-2.933695e+10 7.150483e+08 -2.329611e+09
4.007985e+10 1.145906e+10 -1.522019e+09
-2.146833e+10 4.760454e+10 2.149450e+09
-2.745850e+10 1.447881e+10 -2.209488e+09
4.056283e+10 -3.895007e+10 -1.829586e+09
9.595764e+09 2.655762e+10 1.333946e+09
3.559439e+10 -2.061028e+10 -5.881068e+08
-2.841669e+10 -5.063031e+09 -1.317368e+09
-3.210933e+09 2.496549e+10 2.118945e+09
-2.533991e+10 1.799051e+10 -1.750538e+08
-3.183905e+10 -1.296860e+10 5.167175e+08
3.649092e+10 3.898917e+10 -2.253236e+09
-9.501999e+08 -4.023516e+10 7.275567e+08
-1.066181e+09 -4.222813e+10 -3.260732e+08
-2.075602e+10 -9.242187e+09 -1.806399e+08
-2.750374e+10 1.771650e+09 2.787073e+08
-4.099848e+10 -3.473511e+10 -2.251067e+09
-1.529479e+10 -2.121356e+10 3.099835e+09
1.527636e+10 -2.126258e+10 -3.060493e+09
-1.660895e+09 3.038742e+10 2.610855e+08
2.623549e+10 -6.484179e+09 4.667671e+09
-2.329105e+10 -1.092357e+10 2.118502e+09
2.693301e+10 2.250131e+10 -1.735448e+08
-7.091829e+09 2.236277e+10 -3.070608e+09
4.217204e+10 -1.113194e+10 3.914421e+09
1.022684e+10 -1.936597e+10 1.161922e+08
-1.084032e+10 -2.046743e+10 -4.067565e+07
-4.898890e+10 -9.379283e+09 1.121442e+07
-2.100975e+10 -3.584164e+10 -3.493731e+08
2.170020e+10 -3.618964e+10 3.101328e+08
-1.684871e+10 5.166447e+10 -1.482551e+09
-2.766287e+10 -1.110156e+10 1.756874e+09
-2.119634e+10 -1.310158e+10 -1.794421e+09
-3.861730e+10 7.863030e+09 1.787290e+08
2.437626e+10 3.006338e+10 8.201065e+08
-2.581935e+10 3.243396e+09 6.503403e+08
2.079709e+10 1.735651e+10 -7.834552e+08
-2.198598e+10 -1.092932e+10 -1.832404e+09
3.220416e+10 -3.815622e+10 6.396152e+08
-3.322929e+10 -3.765105e+10 1.516140e+09
-2.514377e+10 8.198759e+09 2.012473e+07
-3.398272e+10 1.015861e+10 -3.493076e+09
2.134715e+10 1.429640e+10 -1.976693e+09
-2.151084e+10 -1.031912e+10 -1.188056e+09
3.558777e+10 1.417138e+10 -2.076618e+09
7.566054e+09 5.590465e+10 -1.239377e+09
-2.724928e+10 -9.209029e+09 2.983164e+08
2.008992e+10 -1.816057e+10 -4.331684e+09
-2.188445e+10 -1.935873e+10 1.639066e+09
1.803198e+10 -2.311525e+10 6.718203e+08
-1.803770e+10 -2.312355e+10 -6.831548e+08
1.872050e+10 2.395955e+10 -1.071634e+09
4.567651e+10 1.096142e+10 1.069614e+08
3.951338e+10 -2.502191e+09 -2.225606e+09
-2.419948e+10 -1.542980e+10 2.261175e+09
-2.195153e+10 -2.254730e+10 1.289001e+09
1.574643e+10 -1.362605e+10 3.435301e+08
-1.381472e+10 -2.116649e+10 1.861942e+09
1.385338e+10 -2.131400e+10 -1.980281e+09
-1.611536e+10 -2.573398e+10 -1.674689e+08
1.492568e+10 -2.488342e+10 4.050504e+08
2.349887e+10 -2.518414e+10 1.566169e+09
-6.052567e+09 4.819655e+10 -1.559160e+09
-2.208568e+10 -2.163107e+10 -5.099525e+09
-2.536512e+09 3.146678e+10 2.619077e+08
-2.457341e+10 -1.718786e+10 2.616974e+09
-4.038465e+10 -2.307764e+10 4.032165e+09
2.089616e+10 -2.501379e+10 -2.004156e+09
-2.095025e+10 -2.508302e+10 2.036053e+09
3.426997e+10 -6.969603e+09 -7.855270e+08
-3.795286e+10 -6.718249e+08 -2.946903e+09
-2.878114e+10 2.071931e+09 -2.345700e+08
-1.096296e+09 3.048372e+10 1.087062e+09
-2.622319e+10 2.258083e+10 1.341057e+08
3.031490e+10 9.395195e+09 -2.325940e+09
5.976411e+09 2.482458e+10 1.886688e+09
-2.079667e+10 -1.755904e+10 -3.561960e+08
3.208324e+10 -8.195135e+09 -1.869050e+08
2.978974e+10 8.244805e+09 2.027117e+09
1.562032e+10 5.956012e+10 2.365886e+09
2.879321e+10 -1.187073e+10 2.084044e+09
2.522115e+10 1.519564e+10 3.475322e+07
-3.689763e+10 -5.449375e+09 -1.587554e+09
-2.795638e+10 2.417950e+10 3.339649e+07
1.611556e+10 2.990035e+10 -1.163611e+09
3.363569e+10 -1.747053e+10 5.716328e+08
-2.357184e+10 3.528712e+10 -1.649228e+08
-1.983710e+10 -1.457875e+10 1.250405e+08
-2.579353e+10 -3.753136e+09 -2.020957e+09
-7.861427e+09 3.695327e+10 2.033415e+09
2.760142e+10 9.293712e+09 3.792628e+08
3.234000e+10 1.844241e+10 4.429398e+08
-2.537854e+10 2.073382e+10 -4.161523e+08
-2.447176e+10 3.982755e+10 -1.488682e+08
-3.286012e+10 2.196686e+10 6.290057e+09
-1.398607e+10 2.180229e+10 1.555234e+09
-9.753921e+09 2.896243e+10 -1.069878e+09
-4.407292e+10 -1.664339e+10 -3.950727e+09
-2.279986e+10 -2.086617e+10 -1.123319e+08
4.895917e+10 2.456579e+10 -8.650313e+07
2.266807e+10 6.102605e+09 1.249952e+09
2.589323e+10 3.422918e+10 9.054515e+08
-3.305941e+10 2.950036e+10 3.046832e+08
3.614328e+10 -3.216590e+09 1.555124e+09
-1.805627e+10 2.079305e+10 -5.292316e+08
1.422405e+10 -1.473824e+10 6.953957e+08
-2.776712e+10 2.105165e+10 3.702761e+09
2.036381e+10 3.659672e+09 -4.226699e+08
-4.574293e+10 -2.169646e+10 -1.848388e+09
-1.984771e+10 -2.105974e+10 -3.336594e+08
-4.452046e+09 2.133948e+10 6.594783e+08
1.049981e+10 3.013826e+10 -1.820772e+09
-3.925432e+10 2.458357e+10 -1.474418e+09
5.620136e+09 2.301041e+10 2.468871e+09
2.701595e+10 -1.200998e+10 -1.790747e+09
5.579683e+10 -3.271136e+09 6.254533e+08
-1.769652e+10 -3.088543e+10 -4.232491e+09
1.775555e+10 -3.082774e+10 4.467988e+09
4.135666e+10 -1.930777e+10 2.765413e+08
-4.768485e+10 -1.382820e+10 7.567105e+08
-1.908375e+10 -2.162165e+10 9.268650e+08
-2.978304e+10 1.511464e+10 2.882361e+08
-3.458487e+10 -2.029671e+10 2.260989e+08
-2.611387e+10 -2.812365e+10 8.959195e+08
2.735293e+10 -2.567301e+10 1.165628e+09
7.842716e+09 4.077061e+10 3.474780e+09
-2.709012e+10 1.129186e+10 -2.585951e+08