# vtk DataFile Version 2.0
Electric current density generated by TTH
ASCII
DATASET UNSTRUCTURED_GRID
POINTS 1783 double
1.010189e-05 -9.925153e-06 -5.528757e-22
8.484870e-06 -4.596474e-06 1.096570e-07
9.234797e-06 -4.353456e-06 1.490727e-06
4.367017e-07 -9.668301e-06 3.723509e-07
-4.776385e-08 1.405691e-05 -6.798733e-07
-3.230224e-06 -1.035846e-05 1.996058e-06
-1.123363e-06 -1.166184e-05 2.249385e-06
-1.120863e-05 7.050486e-06 1.818593e-06
-1.279886e-05 -3.543985e-06 1.789450e-06
-8.942223e-06 -9.525736e-06 -1.935938e-06
6.049727e-07 1.163001e-05 2.242403e-06
1.077684e-05 -9.187853e-06 -5.528757e-22
-3.929366e-07 1.321480e-05 -1.833895e-06
-1.017409e-05 -8.521423e-06 -1.796477e-06
9.857331e-06 -9.969078e-06 -7.885070e-07
-1.053002e-06 -9.694682e-06 6.787501e-07
-1.011018e-05 8.516383e-06 1.835002e-06
7.019910e-06 -6.815828e-06 -7.748917e-07
1.697511e-06 -1.395192e-05 6.867542e-07
-1.319617e-05 1.032942e-06 -1.822385e-06
7.197794e-06 1.123034e-05 -1.742881e-06
-1.231902e-05 -4.304550e-06 1.945393e-06
1.139809e-05 -8.404779e-06 -5.528757e-22
-5.147772e-06 9.417846e-06 -1.929422e-06
5.580478e-06 -9.040120e-06 1.858800e-06
5.544027e-06 -1.289500e-05 -7.422516e-07
1.372953e-05 2.798059e-06 8.092698e-07
-1.146462e-05 -4.308217e-06 2.231096e-06
3.661834e-06 9.519151e-06 1.478901e-06
-6.737704e-06 -7.512683e-06 -1.344640e-06
9.277073e-06 -2.649535e-06 5.915189e-08
1.116299e-05 5.099608e-06 -2.227064e-06
5.191503e-06 -1.218485e-05 1.816386e-06
1.196257e-05 -7.579833e-06 -5.528757e-22
-1.239174e-05 -2.830445e-06 2.108344e-06
-7.203565e-07 -1.216451e-05 -2.239691e-06
-1.344557e-05 -3.988615e-07 -1.643856e-06
1.368386e-05 3.001778e-06 -8.158067e-07
6.723414e-06 6.920929e-06 8.968400e-08
-1.220012e-05 -1.247254e-06 2.228526e-06
-9.176952e-06 3.137399e-06 4.780547e-07
2.687590e-06 1.302164e-05 1.777316e-06
-1.173080e-05 -5.774707e-06 1.930031e-06
-2.482261e-07 -1.406282e-05 -6.539263e-07
1.246744e-05 -6.717125e-06 -5.528757e-22
-1.402500e-05 7.448616e-07 -7.174121e-07
-3.897901e-06 1.182743e-05 2.189592e-06
-1.387029e-05 -2.140327e-06 -7.474845e-07
-2.281667e-06 9.727352e-06 1.197987e-06
-1.233349e-05 4.781943e-06 -1.828540e-06
-2.862686e-06 -1.372400e-05 7.891090e-07
-1.247390e-05 6.400015e-06 -7.876459e-07
-2.268306e-06 1.202910e-05 2.232053e-06
-4.169180e-07 -1.337708e-05 1.705207e-06
-9.945527e-06 -9.010737e-06 1.672568e-06
1.291020e-05 -5.820953e-06 -5.528757e-22
-1.275931e-05 -3.538183e-06 -1.819258e-06
-7.407822e-06 -8.688179e-06 2.204131e-06
-9.947578e-06 -5.827648e-06 -2.225816e-06
8.305813e-06 8.019184e-06 -2.228519e-06
9.212857e-06 6.825148e-06 -2.214196e-06
3.301480e-06 9.122757e-06 -4.932070e-07
-1.135918e-06 1.318095e-05 1.827283e-06
-7.488059e-06 8.613201e-06 -2.203139e-06
6.800552e-06 -1.225260e-05 -8.051322e-07
-4.334070e-06 1.057950e-05 2.207456e-06
1.328865e-05 -4.895781e-06 -5.528757e-22
-9.150511e-06 -3.148411e-06 3.653592e-07
-2.296365e-07 -1.050341e-05 -1.771795e-06
7.790087e-06 -9.977928e-06 -2.127546e-06
-6.676557e-06 9.956022e-06 -2.255763e-06
-6.557072e-06 8.609252e-06 1.980747e-06
-2.087591e-06 9.432936e-06 -2.504764e-07
-1.137524e-05 -3.385800e-06 -2.256998e-06
-9.085919e-06 -3.880917e-06 -9.984306e-07
-6.188033e-06 8.134857e-06 -1.503628e-06
1.267473e-05 1.978527e-06 2.059641e-06
1.360089e-05 -3.946218e-06 -5.528757e-22
1.783962e-06 9.621037e-06 -7.765993e-07
6.992878e-06 7.499085e-06 1.539430e-06
3.779696e-06 1.086780e-05 2.221885e-06
8.716753e-06 -8.680908e-06 -2.222010e-06
-9.719547e-06 6.161241e-07 6.372566e-07
-1.127502e-05 -8.393006e-06 -6.832720e-07
4.577143e-06 8.495754e-06 -1.173533e-07
1.399043e-05 -1.477463e-06 6.432187e-07
5.363993e-06 1.296550e-05 -7.564856e-07
-1.128771e-05 7.146468e-06 -1.725544e-06
1.384537e-05 -2.976996e-06 -5.528757e-22
-8.798244e-06 -3.957506e-06 2.045169e-08
-6.166776e-06 1.260895e-05 -7.425089e-07
-9.156961e-06 -1.064187e-05 -7.338101e-07
-4.686373e-06 -1.134929e-05 -2.226044e-06
1.292241e-05 -5.485125e-06 7.362876e-07
-3.738706e-06 -1.270517e-05 -1.817025e-06
9.040531e-07 -1.348963e-05 1.576680e-06
1.292187e-05 5.494034e-06 7.275845e-07
9.825005e-06 4.712535e-06 -2.019825e-06
-4.761875e-06 1.009430e-05 -2.131357e-06
1.402088e-05 -1.992942e-06 -5.528757e-22
2.168524e-06 -1.006579e-05 -1.584405e-06
1.199843e-05 -7.277321e-06 -7.519598e-07
-9.642748e-06 -7.338990e-07 3.241788e-07
1.403764e-06 -1.116062e-05 -2.159873e-06
-9.146227e-06 -9.521253e-06 1.846734e-06
-2.657945e-07 1.228941e-05 2.223731e-06
-9.340841e-06 -4.082016e-06 1.472709e-06
1.155632e-05 -5.579790e-06 2.057550e-06
8.433064e-06 -6.692684e-06 1.949180e-06
2.219873e-06 -1.384215e-05 -7.900799e-07
1.412653e-05 -9.989593e-07 -5.528757e-22
5.024505e-06 1.125891e-05 -2.216981e-06
-6.222373e-06 1.193846e-05 1.633210e-06
-7.430851e-06 8.499436e-06 2.171951e-06
-4.877566e-06 -8.489721e-06 -7.930117e-07
1.444566e-06 1.054149e-05 1.869855e-06
9.534687e-06 1.565219e-06 -2.604038e-07
-5.086875e-06 -9.343814e-06 -1.869005e-06
6.236541e-06 -1.165291e-05 1.836618e-06
-1.132835e-05 5.276437e-06 -2.178175e-06
4.183012e-06 -1.259547e-05 -1.795999e-06
1.396666e-05 -3.420844e-21 9.181211e-07
-9.465509e-06 9.460675e-06 -1.705854e-06
1.196814e-05 3.008993e-06 -2.214763e-06
9.691110e-06 -1.013688e-05 7.765040e-07
8.220913e-06 1.141474e-05 6.474091e-07
1.158549e-05 6.452133e-06 -1.804264e-06
1.039702e-05 6.683703e-07 -1.699125e-06
-9.318699e-06 1.054745e-05 6.223009e-07
9.440228e-06 -7.877185e-06 2.223250e-06
-1.049357e-05 -3.711040e-06 -2.120414e-06
1.401827e-05 7.588625e-07 -7.349890e-07
1.341494e-05 -3.285713e-21 1.677491e-06
2.746839e-06 1.047567e-05 -1.985027e-06
-1.899310e-06 -1.044183e-05 1.851410e-06
1.112030e-05 -8.573672e-06 7.265470e-07
-1.354778e-05 -1.003535e-06 1.507213e-06
7.623381e-07 -1.356611e-05 -1.504291e-06
-1.076833e-05 6.038594e-06 2.213711e-06
-6.653944e-06 -6.996988e-06 1.954480e-07
-7.222131e-06 6.428333e-06 -3.101341e-07
-7.743176e-06 -1.175618e-05 6.125947e-07
-7.138977e-06 1.144339e-05 1.609069e-06
1.260206e-05 -3.086615e-21 2.146807e-06
7.079362e-06 1.014219e-05 -2.209073e-06
9.876127e-06 -5.965046e-06 -2.227290e-06
1.172607e-05 -3.704795e-06 2.222832e-06
-2.226892e-06 -1.390120e-05 -6.077951e-07
1.940098e-06 1.390123e-05 -7.431758e-07
6.208657e-06 8.521496e-06 1.800747e-06
-8.653152e-06 6.538726e-06 1.993616e-06
-8.942392e-06 -8.083695e-06 2.252294e-06
7.040421e-06 7.230541e-06 -1.345387e-06
4.402196e-06 -8.701171e-06 -6.777787e-07
1.166857e-05 -2.857976e-21 2.244921e-06
5.992616e-06 9.954849e-06 -2.239207e-06
-8.323004e-06 1.043388e-05 1.736391e-06
1.402774e-05 -7.344361e-07 -7.108749e-07
1.366556e-05 -3.141007e-06 7.823695e-07
-8.900845e-06 9.743976e-06 1.850387e-06
9.008265e-06 8.131195e-06 -2.245460e-06
9.729674e-06 -2.004749e-06 -1.101193e-06
-5.999068e-06 -7.555221e-06 1.541312e-08
1.328895e-05 -2.297625e-06 1.610558e-06
3.845271e-06 -9.170134e-06 -1.118292e-06
1.077588e-05 -2.639329e-21 1.954867e-06
1.076730e-05 2.004928e-06 -2.046643e-06
-6.013369e-06 -1.273237e-05 -5.986759e-07
-8.123689e-06 -5.247172e-06 -3.262872e-07
-5.845297e-06 -1.053153e-05 2.252915e-06
1.296622e-06 9.567332e-06 1.845771e-07
-4.819435e-06 1.278640e-05 1.413419e-06
1.677904e-06 -1.339099e-05 -1.601095e-06
5.889362e-06 7.977708e-06 -1.068358e-06
1.403206e-05 -7.216303e-07 6.997578e-07
3.680530e-06 1.358252e-05 -6.291693e-07
1.007834e-05 -2.468481e-21 1.326800e-06
-1.284686e-05 -5.747858e-06 -6.231960e-07
-1.404158e-05 2.300076e-07 7.213027e-07
1.009733e-05 2.302698e-06 -1.642916e-06
-8.386780e-07 1.125512e-05 -2.170983e-06
6.686512e-06 1.232653e-05 7.785660e-07
-1.022206e-05 7.495700e-06 2.121430e-06
-6.766224e-06 -9.024441e-06 2.168968e-06
3.304667e-06 -1.363498e-05 7.608009e-07
1.366667e-05 -3.259337e-06 -7.017793e-07
1.334570e-05 -2.278429e-06 -1.557077e-06
9.696563e-06 -2.374973e-21 4.693162e-07
7.685524e-06 -1.174211e-05 7.496555e-07
-1.360503e-06 1.393961e-05 8.245007e-07
4.132309e-06 9.851847e-06 -1.898468e-06
1.391935e-05 1.802782e-06 7.441815e-07
7.832330e-06 8.433966e-06 2.222520e-06
5.957159e-06 9.852371e-06 2.223132e-06
1.298618e-05 -3.707725e-06 1.591683e-06
-1.281941e-06 1.401665e-05 -6.194671e-07
-1.020155e-05 3.218754e-06 -1.907339e-06
2.171975e-07 1.291695e-05 -2.016591e-06
9.696563e-06 -2.374973e-21 -4.693162e-07
9.970366e-06 -6.585034e-06 2.256855e-06
9.178237e-06 -3.364590e-06 -7.500840e-07
3.563528e-06 1.145735e-05 -2.255319e-06
-3.626809e-06 -9.794969e-06 1.721841e-06
-3.294328e-06 -1.304371e-05 1.642152e-06
-7.656348e-07 -1.354120e-05 -1.531460e-06
9.521407e-06 5.368556e-06 -2.036386e-06
9.700088e-06 -2.951167e-06 -1.406620e-06
4.945946e-06 1.199089e-05 1.989525e-06
1.197756e-05 1.498810e-06 -2.251141e-06
1.007834e-05 -2.468481e-21 -1.326800e-06
-3.194896e-06 1.369946e-05 6.470830e-07
1.313517e-05 2.956933e-06 -1.632092e-06
-1.109308e-05 -1.803417e-06 -2.156858e-06
5.547335e-06 -8.358968e-06 1.260870e-06
1.308281e-05 3.995528e-06 1.394768e-06
-2.192607e-06 -1.306869e-05 -1.811462e-06
7.677312e-06 -8.265398e-06 2.169422e-06
6.380006e-06 -1.020538e-05 -2.253481e-06
-1.189891e-05 2.536546e-07 -2.257285e-06
-8.696057e-06 4.183329e-06 1.107808e-07
1.077588e-05 -2.639329e-21 -1.954867e-06
1.068198e-05 5.305647e-06 2.257174e-06
-5.244493e-06 -1.253594e-05 -1.502888e-06
-8.838384e-06 -4.623026e-06 1.170518e-06
1.330737e-05 1.713770e-06 -1.675393e-06
-2.587461e-07 1.037413e-05 -1.662257e-06
1.087305e-05 -5.478799e-06 2.240974e-06
-1.100322e-05 -8.026960e-06 1.467197e-06
1.053539e-05 7.041004e-07 1.812355e-06
1.079914e-05 8.957591e-06 -7.581632e-07
1.300370e-05 -3.672254e-06 -1.584449e-06
1.166857e-05 -2.857976e-21 -2.244921e-06
-1.330441e-05 2.875790e-06 1.476820e-06
5.653524e-06 -1.207914e-05 -1.744757e-06
1.065841e-05 3.672250e-06 -2.167231e-06
-1.935455e-06 1.320113e-05 -1.740189e-06
-1.115155e-05 -7.326235e-06 -1.739728e-06
9.665610e-06 -9.613116e-06 -1.452784e-06
-5.859438e-06 1.216863e-05 -1.590923e-06
-9.531453e-07 1.162589e-05 2.244532e-06
1.346369e-05 7.412764e-07 1.612561e-06
-2.518271e-06 1.335849e-05 1.497247e-06
1.260206e-05 -3.086615e-21 -2.146807e-06
[...]
POINT_DATA 1783
VECTORS 10.000GHz_fone_imag double
-2.123019e+10 -2.230083e+10 9.660943e+08
-5.077830e+10 -9.191896e+10 -7.556598e+09
-5.295508e+10 -1.067760e+11 -1.653724e+09
-1.237113e+11 -7.387428e+09 -2.450329e+09
4.333990e+10 1.070188e+09 9.816060e+08
-9.311472e+10 2.719431e+10 2.916461e+09
-7.078031e+10 8.614212e+09 -7.204029e+08
2.571567e+10 4.189482e+10 8.209750e+08
-1.517220e+10 4.949382e+10 -4.048932e+09
-3.422504e+10 3.476611e+10 -1.738129e+09
6.093542e+10 4.565343e+08 -1.924902e+09
-2.102605e+10 -2.418476e+10 1.979622e+08
5.031405e+10 4.232089e+09 1.392870e+09
-2.636152e+10 2.981949e+10 1.020140e+09
-2.481580e+10 -2.447016e+10 2.383101e+09
-1.126989e+11 1.976159e+10 1.163578e+10
2.796354e+10 3.472603e+10 -4.450535e+08
-7.689542e+10 -8.160392e+10 1.019006e+09
-4.132105e+10 -4.540473e+09 2.026642e+09
4.820223e+09 5.347820e+10 -3.143950e+08
4.402288e+10 -2.900360e+10 -1.905527e+08
-2.238092e+10 5.749275e+10 -1.246369e+09
-2.493322e+10 -3.423420e+10 2.863608e+08
8.325058e+10 4.041431e+10 -3.892752e+09
-6.751272e+10 -4.394795e+10 -1.323827e+08
-3.127605e+10 -1.473567e+10 3.341544e+09
7.440478e+09 -3.590425e+10 -7.179066e+08
-2.453187e+10 5.408883e+10 -1.847541e+09
9.428543e+10 -3.293119e+10 3.940435e+09
-8.671677e+10 6.199378e+10 -5.050682e+09
-2.410678e+10 -8.274652e+10 -9.795972e+08
3.006888e+10 -6.051846e+10 -2.150371e+09
-3.698886e+10 -1.684555e+10 8.353422e+07
-1.841248e+10 -2.881404e+10 1.788101e+09
-9.080416e+09 4.170194e+10 3.590337e+08
-5.032696e+10 2.273062e+09 -8.406270e+08
4.423314e+07 3.665970e+10 -9.814142e+08
8.738433e+09 -3.319192e+10 9.401685e+08
7.593526e+10 -7.400862e+10 1.534686e+10
-6.824189e+09 7.263839e+10 -1.635285e+08
3.376685e+10 1.065519e+11 -6.592392e+09
3.876233e+10 -1.024597e+10 1.683626e+09
-2.430135e+10 4.447510e+10 -3.756807e+09
-4.123068e+10 1.948288e+09 -3.310917e+09
-1.448940e+10 -2.695471e+10 5.647838e+08
2.545445e+09 3.212945e+10 -5.020970e+08
6.196884e+10 1.953561e+10 -3.991173e+08
-6.965139e+09 4.067488e+10 3.043633e+09
1.110621e+11 1.973107e+10 -5.774644e+09
2.116952e+10 5.056318e+10 2.829189e+08
-3.160917e+10 7.415696e+09 -1.269142e+08
1.659333e+10 2.937740e+10 -1.053452e+09
5.406247e+10 6.638762e+09 3.386144e+09
-4.975064e+10 3.171795e+09 1.437183e+09
-3.475263e+10 3.346937e+10 -4.114118e+09
-1.585703e+10 -3.475327e+10 -3.152596e+09
-1.064890e+10 3.955055e+10 -1.551530e+09
-5.983754e+10 5.036816e+10 -3.401681e+09
-4.029223e+10 6.465668e+10 5.182915e+09
5.564403e+10 -6.014008e+10 -1.663588e+09
4.760232e+10 -6.598977e+10 3.194462e+08
9.816002e+10 -3.130086e+10 1.974338e+09
3.938488e+10 4.574204e+09 -1.004392e+09
6.568362e+10 5.942750e+10 2.630820e+08
-3.214159e+10 -1.686001e+10 3.894322e+08
7.037348e+10 3.111985e+10 -4.847883e+09
-1.324095e+10 -3.484378e+10 4.511518e+09
-4.303243e+10 1.187417e+11 1.416775e+10
-1.013876e+11 -1.302399e+09 -5.071631e+09
-4.787920e+10 -3.808438e+10 1.960606e+08
4.142073e+10 2.927374e+10 4.209751e+09
6.232599e+10 5.729815e+10 -2.274412e+09
1.086659e+11 2.190954e+10 6.546706e+09
-1.859760e+10 5.956840e+10 2.547837e+09
-4.001385e+10 9.042380e+10 -1.435669e+07
5.944576e+10 4.685877e+10 7.585143e+08
6.268988e+09 -5.055270e+10 -7.150596e+08
-9.181164e+09 -3.160301e+10 4.108873e+07
1.090440e+11 -1.977634e+10 -7.724136e+09
6.117697e+10 -6.811170e+10 -6.816972e+09
6.514850e+10 -3.013734e+10 2.231696e+09
-5.361161e+10 -5.590501e+10 3.239070e+08
8.665089e+09 1.288413e+11 6.185668e+09
-2.495252e+10 3.189022e+10 2.231309e+09
1.135007e+11 -6.082694e+10 -8.745311e+09
-5.304793e+09 -4.640350e+10 2.174667e+08
3.307392e+10 -1.576022e+10 -4.159761e+09
1.969711e+10 2.777346e+10 -6.708693e+08
-6.627487e+09 -3.126915e+10 4.848239e+07
-5.654653e+10 1.178582e+11 -2.252977e+09
3.055133e+10 1.544828e+10 1.322626e+08
-2.657913e+10 2.258530e+10 1.527227e+08
-6.634444e+10 2.625816e+10 -1.311838e+08
-1.435607e+10 -3.574421e+10 7.432708e+08
-4.591206e+10 1.417059e+10 -7.710696e+08
-3.672397e+10 -1.964463e+09 -1.051208e+09
1.609282e+10 -3.635865e+10 -3.855435e+09
3.375925e+10 -7.964246e+10 6.693803e+08
8.448741e+10 3.928522e+10 7.673270e+08
-7.256388e+09 -3.846860e+10 -3.492466e+09
-9.629753e+10 -1.426453e+10 2.696880e+09
-2.233084e+10 -3.964654e+10 4.488874e+09
-1.179111e+10 1.310946e+11 1.462802e+09
-8.164600e+10 -5.027679e+09 1.594050e+09
-3.319502e+10 2.990426e+10 1.267876e+09
5.510632e+10 2.181943e+09 -7.406338e+08
-4.385257e+10 1.018182e+11 -1.659141e+09
-1.978242e+10 -4.483969e+10 3.506169e+08
-4.148744e+10 -5.424184e+10 1.433552e+09
-3.292969e+10 -5.056313e+09 -2.384726e+08
-3.103131e+09 -4.525566e+10 -1.355124e+09
4.503294e+10 -1.939454e+10 -7.240875e+08
4.253642e+10 2.236280e+10 6.338262e+08
4.783568e+10 3.985215e+10 -1.284286e+08
-1.039423e+11 6.368991e+10 -2.252615e+09
7.947473e+10 -1.485623e+10 4.376362e+08
2.259064e+10 -1.046027e+11 -9.725276e+09
-6.046843e+10 3.218176e+10 -5.709050e+09
-3.396520e+10 -1.841373e+10 -1.828383e+08
2.518788e+10 4.201224e+10 -2.097290e+09
-3.437074e+10 -1.198449e+10 1.050789e+09
5.571814e+08 -4.770648e+10 1.423812e+08
3.451194e+10 3.386350e+10 -3.788301e+09
2.046069e+10 -5.524266e+10 2.369387e+09
-3.097133e+10 -2.991498e+10 -3.629456e+09
3.003718e+10 -2.005070e+10 3.351055e+08
2.448089e+10 -3.633975e+10 1.560384e+09
8.974799e+09 -9.016678e+10 -3.289556e+09
3.575600e+10 2.997430e+10 4.027052e+09
-3.338830e+10 -3.840004e+10 -5.429968e+08
-1.597192e+10 7.352311e+10 1.697144e+09
1.662456e+09 -3.139547e+10 3.665313e+08
-4.242629e+07 -4.018161e+10 5.335637e+08
1.057033e+11 -2.464677e+10 -3.158525e+09
-8.203870e+10 3.019411e+10 -7.370620e+09
-2.446680e+10 -3.062398e+10 3.220883e+09
-4.826380e+09 4.612213e+10 -3.400035e+09
-4.240866e+10 -1.278009e+09 1.236772e+09
3.045389e+10 5.435306e+10 -9.860576e+08
-9.829579e+10 9.539418e+10 -1.126033e+10
7.900824e+10 9.556300e+10 -3.291123e+09
-3.897101e+10 2.545654e+10 4.961731e+08
4.109429e+10 2.563516e+10 3.260627e+08
-1.645660e+09 -5.824652e+10 -4.083887e+08
4.041516e+10 -2.856617e+10 2.328825e+08
-3.492965e+10 -6.220010e+10 7.359052e+09
-1.839668e+10 -4.703251e+10 1.266795e+09
-3.782694e+10 7.001247e+09 -1.259546e+09
3.484896e+10 -3.421364e+09 3.508076e+09
8.625849e+10 -6.343480e+10 -1.704612e+09
4.466886e+10 7.534408e+10 4.512759e+09
-3.836489e+10 4.534920e+10 -3.348512e+07
8.480448e+10 -8.429224e+10 -5.027218e+09
-9.388844e+10 -4.451320e+10 1.500760e+09
9.234454e+08 -6.149333e+10 -6.094959e+08
5.339099e+10 -3.566587e+10 -2.760927e+09
2.970356e+10 2.446172e+10 -1.958071e+09
-1.156897e+09 -3.434971e+10 2.165222e+08
-7.997029e+09 -3.717757e+10 -1.487523e+09
3.718366e+10 3.124966e+10 4.044095e+09
4.775415e+10 -4.373056e+10 5.584423e+08
-2.730914e+10 -9.942206e+10 -1.935921e+09
-9.003500e+10 7.307769e+10 5.095046e+09
-5.358149e+09 -4.439716e+10 -3.150991e+09
-9.108860e+10 -3.799555e+10 -2.044328e+09
-5.021152e+09 -1.047761e+11 1.384523e+08
2.323352e+10 -7.600501e+10 -1.455988e+09
-3.264422e+10 1.462659e+10 -3.096809e+07
-5.361085e+10 9.746498e+10 6.642967e+09
-4.720687e+10 2.244455e+10 -9.775600e+08
1.326515e+11 -2.102427e+10 -9.189995e+08
3.963583e+10 1.633538e+10 -4.859420e+09
-5.205058e+10 -7.789859e+09 1.061868e+09
7.364738e+10 -5.424070e+10 2.618484e+09
-1.396315e+09 -4.647057e+10 -2.174865e+09
3.711699e+10 -9.995648e+09 4.338532e+08
4.272565e+08 -9.778142e+10 1.661071e+09
-1.351436e+10 3.393872e+10 -3.631078e+09
2.015806e+07 3.553844e+10 -3.421822e+08
2.604029e+10 -1.194246e+11 6.832155e+08
8.599046e+10 6.326463e+09 2.151045e+09
2.944391e+10 -1.508016e+10 -1.943307e+09
3.791158e+10 4.407985e+10 3.354004e+09
-8.301329e+10 5.925104e+10 1.572519e+09
-3.341132e+10 -6.172691e+09 1.677087e+09
-1.000642e+10 -4.278485e+10 7.651341e+08
-6.663101e+09 -3.703066e+10 -1.406451e+09
2.619083e+08 -1.286299e+11 -1.905686e+09
-3.610152e+10 -2.325655e+10 -2.783779e+09
4.534188e+10 3.541222e+09 2.157261e+09
8.207757e+10 -3.841080e+10 2.160435e+09
3.904203e+09 -4.017632e+10 1.594241e+09
5.833750e+10 -5.017425e+10 1.357449e+09
6.587539e+10 -3.787605e+10 6.874482e+08
-1.263576e+10 -4.408417e+10 3.006448e+09
3.257538e+10 6.598358e+08 2.678256e+08
2.289790e+10 6.706266e+10 9.489749e+07
4.565658e+10 -2.452721e+08 -5.992200e+08
-3.988474e+09 -1.106871e+11 1.415744e+10
-3.000748e+10 -5.171271e+10 -2.849951e+08
-3.530814e+10 -1.016274e+11 8.373970e+09
4.639692e+10 -1.486288e+10 2.899918e+09
-7.836193e+10 2.412764e+10 1.761518e+09
-4.146304e+10 1.326380e+10 -5.889187e+08
-4.465787e+10 2.682557e+09 2.735763e+08
5.124656e+10 -8.422901e+10 -1.217630e+09
-3.169034e+10 -1.130542e+11 -1.049846e+09
5.147013e+10 -2.324981e+10 5.861355e+08
8.098008e+09 -5.730668e+10 -8.543119e+08
1.786012e+09 -8.164652e+10 3.919354e+09
4.039914e+10 9.735743e+09 -7.080713e+08
1.172145e+10 -4.839807e+10 1.995760e+09
-9.648700e+09 6.927282e+10 -1.399542e+09
-9.312911e+10 -5.635790e+10 -6.597515e+08
1.637883e+10 -4.430717e+10 -2.329861e+09
-3.698531e+10 5.371807e+09 3.716950e+08
-4.311859e+10 -4.149210e+10 3.501560e+08
-6.120117e+10 -4.217041e+10 -5.040085e+08
8.755885e+09 6.571831e+10 -1.506343e+09
5.219564e+10 1.129027e+11 4.314952e+09
6.510759e+09 -8.374177e+10 -2.587489e+09
2.525005e+10 -6.407578e+10 4.368164e+08
-3.533090e+10 1.639010e+10 -1.689579e+09
-4.299668e+10 8.206063e+10 3.070361e+09
5.585154e+09 -3.690377e+10 -2.321149e+09
8.409703e+10 3.157363e+09 8.855970e+08
-3.412265e+10 -7.123282e+10 -1.056060e+09
-2.719712e+10 3.787976e+10 9.016155e+07
1.650276e+10 -1.028254e+11 3.234052e+09
2.642579e+10 -3.228789e+10 -1.820479e+08
-1.125766e+10 -3.580118e+10 -6.845130e+08
2.816543e+08 -5.552659e+10 8.789740e+08
9.039492e+09 4.319298e+10 -7.425844e+08
-4.386448e+10 -2.144771e+10 6.850596e+08
2.692454e+10 -6.716948e+10 2.645854e+09
5.352409e+10 9.066436e+09 8.530435e+08
-2.829309e+10 4.101367e+10 9.845975e+08
-2.939139e+10 -2.774939e+10 1.011807e+09
4.386004e+10 2.169885e+10 -8.230734e+08
8.162006e+10 -5.611241e+08 -6.601422e+08
5.231159e+09 -4.320819e+10 -2.217938e+09
5.119385e+10 1.049287e+10 -1.202913e+09
-4.570186e+09 -4.706630e+10 -2.014160e+08
4.272160e+10 -1.120669e+11 2.487098e+09
-4.184869e+10 2.929275e+10 -3.306255e+08
-2.476670e+10 2.340899e+10 -2.908205e+09
2.756435e+10 -2.093426e+10 -2.848762e+09
-3.664459e+10 7.442467e+09 3.548861e+09
-4.646486e+10 -2.153715e+10 -3.814702e+09
4.150627e+10 -6.909006e+10 9.261198e+08
-1.762690e+10 3.844976e+10 3.190625e+08
-5.397572e+10 7.188771e+10 -4.269097e+08
2.102677e+10 4.480657e+10 1.502739e+09
2.860671e+09 -4.809272e+10 2.995855e+09
5.046662e+10 -1.077100e+11 6.269394e+09
1.300515e+11 -9.544408e+09 4.436668e+09
1.253086e+11 1.405048e+10 -1.279547e+09
1.204277e+10 3.689350e+10 -2.201145e+09
2.149414e+10 -1.128212e+11 3.646675e+09
1.053318e+10 4.209445e+10 -3.626662e+09
-6.351650e+10 2.463081e+10 -8.567626e+08
1.104585e+10 -3.734249e+10 -2.687144e+09
4.479249e+10 1.650914e+10 1.260345e+09
2.467124e+10 -2.866399e+10 1.758692e+09
-7.265829e+08 -3.549726e+10 -1.449731e+09
1.208360e+11 -5.608625e+10 -5.422944e+09
-6.275602e+10 -7.622177e+10 -2.786809e+09
-6.220715e+10 7.459275e+10 2.349103e+09
5.043191e+10 -7.757927e+10 -6.118761e+09
4.290937e+10 3.766322e+10 3.778239e+08
6.597231e+10 -4.958192e+10 -4.753936e+07
3.652307e+09 -1.059117e+11 -9.335155e+09
-4.237454e+10 -4.141595e+10 8.129049e+08
2.864262e+10 3.310347e+10 9.947018e+08
3.427438e+10 -9.258567e+10 -3.732942e+09
1.072584e+11 6.564751e+08 1.414434e+09
4.008690e+10 -1.434734e+08 -1.819496e+09
-4.115857e+09 6.734400e+10 -9.143449e+08
-7.334733e+09 -8.761915e+10 1.850445e+09
-5.527754e+09 -9.788525e+10 -1.139096e+09
5.690865e+10 6.178175e+10 -3.329096e+09
1.658008e+10 3.289756e+10 -7.214941e+08
-3.095413e+10 -2.061821e+10 3.159194e+09
-7.309960e+10 -9.485858e+10 2.159780e+09
-5.817977e+09 4.013564e+10 -3.209423e+08
-5.463938e+10 -3.616779e+10 -7.727747e+07
4.205295e+08 1.080626e+11 2.191024e+09
1.580560e+10 1.088397e+11 3.916157e+09
4.140329e+10 -8.681189e+10 -3.214618e+09
1.285273e+11 1.468993e+10 1.518137e+09
-4.032157e+10 -1.766812e+10 -1.332778e+09
3.905969e+10 -7.106247e+09 -1.365948e+09
-7.517888e+10 9.269229e+10 3.343052e+09
9.626640e+10 -3.118593e+10 3.872930e+09
2.714378e+10 -3.118775e+10 1.574120e+09
1.452224e+11 9.915663e+07 -6.156567e+09
6.985481e+10 9.160428e+09 -1.788328e+09
-1.140701e+11 -4.370442e+10 1.831450e+09
4.285024e+10 5.020172e+10 -3.731897e+09
-1.701831e+09 4.142874e+10 -3.988013e+09
4.576670e+10 -3.552613e+10 8.119353e+08
1.125646e+11 8.576529e+10 3.382377e+09
-2.387264e+10 3.674267e+10 4.828816e+09
2.134084e+10 9.080671e+10 8.132595e+09
2.083063e+10 -4.846028e+10 -1.631583e+08
-2.182465e+10 6.470776e+10 -3.053808e+09
5.584242e+10 -9.093351e+10 -1.164531e+10
-3.518050e+10 -7.063938e+10 3.148202e+09
5.665522e+10 -4.741433e+10 1.592529e+09
-5.488326e+10 5.808377e+10 1.721748e+09
5.100749e+10 -8.791985e+09 -1.674245e+09
-7.188484e+10 6.066840e+10 9.674514e+09
-1.076102e+10 7.168494e+10 4.492737e+09
-2.657008e+10 3.179747e+10 -8.792572e+08
-1.459908e+10 -6.250479e+10 3.585359e+08
2.773735e+10 1.605316e+10 -5.489224e+08
7.258464e+10 7.669929e+09 -1.201906e+09
-9.232106e+10 4.593354e+10 3.789379e+09
-3.256109e+10 1.397014e+10 2.668713e+08
-3.178440e+10 2.219215e+10 4.965611e+09
1.548923e+10 3.523311e+10 2.856337e+08
-5.471673e+09 -3.771408e+10 -1.789447e+09
-3.473055e+10 1.872551e+10 3.910253e+08
2.258121e+10 3.258073e+10 -2.244896e+09
3.639542e+10 -4.405431e+09 4.831472e+09
-6.949121e+10 1.518543e+10 7.294003e+08
-3.213852e+10 -3.702844e+10 -2.135943e+09
-3.649132e+10 -1.217178e+10 -3.493801e+09
1.249634e+11 4.694505e+10 8.053125e+09
-9.944200e+09 -1.014799e+11 4.826434e+07
-6.233749e+10 1.180262e+11 1.004420e+09
3.440428e+10 2.934181e+10 2.110854e+09
9.993902e+10 4.176362e+09 5.321771e+09
9.101004e+10 -1.783949e+10 -4.443805e+08
-3.138701e+10 -3.532689e+10 -3.109828e+08
-8.982564e+10 2.893617e+10 8.707951e+08
4.734903e+09 3.516128e+10 9.050855e+08
-1.760170e+08 -4.542470e+10 2.342441e+09
-8.844077e+10 -3.249876e+10 -1.090319e+09
-1.803630e+10 -6.038638e+10 1.722006e+09
-4.968344e+10 4.397875e+10 8.758878e+08
-8.983973e+10 3.074481e+10 -2.040666e+08
-1.871422e+10 -9.514569e+10 2.283483e+09
-1.476933e+10 3.347868e+10 1.470464e+09
-3.254762e+10 2.299615e+10 -2.295509e+09
1.631424e+10 -3.177839e+10 -2.537476e+09
-2.260883e+10 5.508548e+10 7.830570e+08
2.146895e+10 -8.757027e+10 -1.957924e+09
2.553230e+10 2.657527e+10 3.236110e+08
-3.766424e+10 -2.843081e+10 2.470506e+09
6.160718e+10 -1.231545e+10 3.444057e+08
4.290071e+09 8.877546e+10 -4.870621e+09
-3.087482e+10 -4.501233e+10 -1.254023e+09
-5.813634e+10 1.059491e+10 -2.643500e+08
-2.829866e+10 -2.259434e+10 -1.559906e+08
3.406356e+10 -3.567434e+10 4.560700e+08
1.020407e+11 3.435243e+10 1.277740e+10
-7.148698e+10 2.401336e+10 7.762900e+08
-1.818002e+10 4.350235e+10 1.466364e+09
-6.215216e+10 -1.245448e+10 4.756808e+09
-7.809954e+10 3.125149e+10 5.299310e+09
-3.551911e+10 -3.998157e+10 -1.496049e+09
-1.011228e+11 -5.286372e+10 8.206392e+09
-3.335816e+10 -6.132266e+10 2.803264e+09
-2.915456e+10 6.755838e+09 -2.363814e+09
2.129325e+10 -6.249743e+10 -1.507966e+08
6.889734e+10 -6.160276e+10 -9.037247e+08
1.136121e+10 -3.148009e+10 1.250521e+09
-4.103551e+10 1.536154e+10 1.764121e+09
-6.254030e+10 -2.337434e+10 5.351014e+08
1.229998e+11 -6.163825e+10 -3.129026e+09
-1.198172e+10 6.501107e+10 9.368703e+07
-3.604159e+10 2.530926e+10 2.249833e+09
4.016829e+10 4.070177e+10 4.967872e+09
3.657290e+10 -6.632885e+10 -2.143431e+09
-3.531129e+10 -9.666803e+09 -3.127232e+09
3.462513e+09 4.829084e+10 -3.593119e+09
8.062427e+09 -5.037110e+10 8.942189e+08
7.291017e+10 -1.021734e+11 9.361359e+09
-1.149840e+11 6.636801e+10 1.312266e+10
4.528684e+10 -7.490213e+09 -8.889917e+06
9.836875e+10 -3.570508e+10 -5.248716e+09
3.468158e+10 -3.480497e+10 -2.234226e+09
-7.187071e+10 7.444473e+10 -3.671151e+09
7.434378e+09 -6.265584e+10 -1.059936e+09
5.995041e+10 6.830972e+10 -5.226130e+07
1.482848e+10 3.439853e+10 6.321803e+08
1.802131e+10 6.292467e+10 -5.638671e+08
-6.893752e+10 -1.142804e+10 -8.134696e+08
9.288478e+10 -5.349075e+10 2.464960e+09
-6.021333e+10 -4.581327e+10 2.690093e+09
4.351163e+10 -2.804020e+09 -1.253107e+09
1.158947e+11 5.459581e+10 3.586283e+09
-8.095640e+10 -6.112986e+10 5.897978e+09
1.068099e+10 -4.077273e+10 2.811559e+09
1.923567e+09 -4.239341e+10 2.792494e+09
1.241771e+11 -1.536940e+10 1.141956e+10
1.145036e+11 4.953094e+10 3.310783e+09
5.857832e+10 4.468516e+10 1.954013e+08
-2.388687e+10 -3.284572e+10 3.153003e+09
-5.659450e+10 -7.461552e+10 5.625240e+09
-8.263532e+10 1.059023e+11 3.795748e+09
8.584229e+10 7.307190e+10 -3.363985e+09
7.023401e+10 -1.418444e+10 -1.654439e+08
-2.989017e+10 2.770103e+10 2.778407e+07
-5.091769e+09 5.608307e+10 5.776776e+07
-3.642696e+10 -1.944251e+10 2.218805e+09
1.917957e+10 -3.971539e+10 1.528712e+08
3.316200e+10 -1.569796e+10 4.349662e+09
-2.680146e+10 2.121089e+10 -6.790281e+07
1.068082e+10 -3.813291e+10 -3.404027e+09
2.070883e+10 -7.675456e+10 2.607570e+09
3.697813e+10 -3.130558e+10 1.994538e+09
-8.882528e+10 -3.675532e+10 4.137367e+09
-3.413231e+10 4.333889e+10 -1.890044e+08
-7.247524e+10 1.673801e+10 -3.928227e+09
2.905336e+10 -4.626693e+10 -5.315761e+08
-3.790564e+10 -7.561504e+10 -1.103647e+09
-8.240744e+10 -5.206500e+10 -2.162621e+09
4.656382e+10 6.527965e+09 -1.322231e+08
1.723342e+10 -2.882228e+10 -9.311455e+07
1.098535e+11 -5.703482e+10 5.312963e+09
-6.386857e+08 4.345387e+10 1.703459e+09
4.273256e+10 -9.308115e+08 2.989943e+09
-7.180600e+10 -1.022097e+11 -5.283025e+09
6.533901e+10 -6.532025e+10 2.699989e+09
-8.924367e+10 -1.331678e+10 -6.380461e+09
-3.545469e+10 -2.525904e+10 1.416140e+09
1.222746e+10 4.929117e+10 -5.282231e+08
1.097298e+11 -6.450409e+10 -1.839565e+09
-6.528266e+10 -1.008291e+11 9.903264e+09
-9.389111e+10 -3.847007e+09 1.562780e+09
2.675402e+10 -2.201583e+10 -1.728334e+08
-1.467071e+10 1.108258e+11 2.799070e+09
-3.852322e+10 5.865228e+10 6.747058e+08
-3.913138e+10 3.059360e+10 3.380530e+09
-6.201157e+10 -2.361117e+10 8.653964e+08
4.779031e+10 -2.094195e+10 -1.449422e+09
-1.183020e+10 -3.728808e+10 5.274314e+09
-2.041598e+10 -3.253666e+10 -9.794301e+08
-1.525764e+10 -4.978351e+10 2.343612e+09
-2.024833e+09 -3.727855e+10 -9.720741e+08
-1.774719e+10 9.286061e+10 -2.721622e+09
1.030734e+11 2.000761e+10 -3.838497e+09
3.416769e+10 5.970254e+09 -1.077175e+09
-6.301212e+10 3.123296e+10 1.259697e+07
-6.009383e+10 -1.107990e+11 5.743318e+09
2.191171e+10 -2.732965e+10 -1.378703e+09
3.630965e+10 -8.393639e+10 1.355639e+08
5.481133e+10 2.749203e+10 -4.077475e+08
-7.960711e+10 2.013642e+10 1.841399e+09
-1.891485e+10 -5.765382e+10 -4.998578e+08
-7.632481e+09 3.073574e+10 1.446565e+08
-1.950267e+10 6.105684e+10 1.784774e+09
-5.185769e+10 3.442598e+10 1.591725e+09
9.465690e+10 -4.570851e+10 9.124929e+08
-1.507883e+09 5.879985e+09 -4.782193e+08
2.130229e+09 -5.514516e+09 1.857547e+08
5.431169e+09 3.282800e+09 -5.295884e+08
-4.797488e+08 6.159492e+09 -1.531260e+08
5.870529e+09 8.381499e+08 1.243630e+08
-3.051044e+09 4.485179e+09 2.879061e+07
1.415262e+10 -3.979550e+10 3.892397e+07
-5.782344e+09 2.809798e+09 -2.181951e+07
-4.497818e+09 -5.935034e+08 1.584315e+08
4.277872e+09 -3.101216e+09 -9.460121e+07
3.656981e+09 -4.024156e+09 1.764589e+08
6.781944e+09 2.396252e+08 8.464775e+07
3.895851e+09 4.844303e+09 8.783215e+07
2.363546e+09 4.679578e+09 -4.095865e+07
-3.721288e+09 3.180683e+09 -4.696889e+07
5.969591e+09 -1.292536e+09 1.190754e+08
-5.526963e+09 -2.094957e+09 2.314001e+08
2.688750e+10 1.136229e+11 -8.855496e+09
1.310443e+08 -5.174258e+09 -3.379711e+08
-2.860621e+09 -6.602160e+09 -7.820207e+08
-4.163212e+09 -4.060078e+09 3.285411e+08
-1.664585e+09 -6.982320e+09 4.470745e+08
5.167204e+09 2.021404e+09 1.965616e+08
-6.272868e+09 1.023201e+09 -4.468637e+07
2.241973e+09 6.021824e+09 -3.026470e+08
-3.893931e+09 -4.764485e+09 -4.117519e+07
2.390630e+09 -4.490008e+09 -3.225720e+08
8.507905e+08 6.079333e+09 5.244381e+08
-6.206619e+10 5.009792e+10 -2.613568e+09
-2.691789e+09 3.284009e+09 -1.598026e+07
-2.291766e+09 5.129790e+09 1.312097e+08
-7.414707e+09 -6.830189e+09 5.676515e+08
5.600250e+09 -1.936723e+09 1.943918e+08
-5.438146e+09 2.767153e+08 9.186320e+07
-2.253227e+08 -5.537537e+09 3.605869e+08
-5.071906e+09 -1.789180e+09 -2.680195e+08