# vtk DataFile Version 2.0
Electric current density generated by TTH
ASCII
DATASET UNSTRUCTURED_GRID
POINTS 3559 double
-6.716388e-06 3.034140e-05 -2.782841e-22
2.925101e-05 -9.150357e-06 8.877202e-07
2.864378e-05 1.091075e-05 8.856299e-07
2.917959e-05 9.214549e-06 9.246547e-07
2.865197e-05 -1.088092e-05 8.879905e-07
-9.965744e-06 -2.895487e-05 -9.085786e-07
-2.600446e-05 -1.616625e-05 9.100580e-07
-1.548681e-05 -2.645291e-05 -8.844837e-07
1.797528e-05 2.484190e-05 -8.760624e-07
1.797528e-05 -2.484190e-05 -8.760624e-07
2.865434e-05 6.510667e-06 9.913967e-07
-7.410330e-06 3.017942e-05 -2.782841e-22
2.865434e-05 -6.510667e-06 9.913967e-07
-3.064953e-05 -5.923090e-07 -8.825462e-07
-1.509432e-05 2.461550e-05 -3.964584e-07
-1.934351e-05 2.143806e-05 -3.964584e-07
-2.477864e-05 1.482500e-05 -3.964584e-07
8.226322e-06 2.805194e-05 -8.898672e-07
-1.301342e-05 -2.780805e-05 -8.421451e-07
-2.134542e-05 -1.998703e-05 -8.969130e-07
-1.197653e-05 -2.661857e-05 -8.526723e-07
-1.432884e-05 -2.534149e-05 -7.783137e-07
-8.100376e-06 3.000157e-05 -2.782841e-22
-1.850432e-05 -2.447947e-05 -8.563666e-07
-2.442137e-05 -1.578099e-05 7.387769e-07
3.052056e-05 -3.232707e-06 -8.520749e-07
3.052056e-05 3.232707e-06 -8.520749e-07
-4.938608e-06 -3.029363e-05 -8.500657e-07
-1.466423e-05 2.518528e-05 8.104450e-07
-2.466136e-05 1.552917e-05 8.104450e-07
-2.001163e-05 2.118661e-05 8.104450e-07
-2.211131e-05 -2.121914e-05 -8.901656e-07
-2.131350e-05 -2.191757e-05 -9.440028e-07
-8.786162e-06 2.980795e-05 -2.782841e-22
-2.338197e-05 -1.980969e-05 -8.904476e-07
-2.397373e-05 -1.894315e-05 -9.554182e-07
-1.252477e-05 2.645484e-05 9.177704e-07
1.053933e-06 -2.926429e-05 -9.273610e-07
9.692704e-06 -2.914726e-05 -8.290261e-07
-1.784110e-05 2.501654e-05 8.194423e-07
-2.346917e-05 -1.670329e-05 -7.924264e-08
-2.807914e-05 -1.226026e-05 8.954334e-07
-1.249014e-05 2.805734e-05 8.334814e-07
-2.881583e-05 -1.060084e-05 -8.407646e-07
-9.467328e-06 2.959865e-05 -2.782841e-22
2.825407e-05 7.776518e-06 9.421834e-07
2.827012e-05 -7.695993e-06 9.382601e-07
-1.576750e-06 -2.920430e-05 9.004720e-07
-2.784725e-05 -9.236693e-06 -9.644931e-07
-1.139630e-05 2.691925e-05 8.890253e-07
2.366455e-05 1.953205e-05 -8.583837e-07
2.366455e-05 -1.953205e-05 -8.583837e-07
-2.807199e-05 6.947702e-06 4.990325e-07
3.361356e-06 2.872298e-05 4.990627e-07
-6.320291e-06 -3.008070e-05 8.089479e-07
-1.014352e-05 2.937379e-05 -2.782841e-22
3.067107e-06 -2.914581e-05 9.435429e-07
2.720756e-05 -1.030615e-05 7.588896e-07
2.777179e-05 8.598236e-06 7.339097e-07
2.723904e-05 1.037970e-05 8.165580e-07
2.779267e-05 -8.557572e-06 7.432082e-07
2.192512e-05 1.904200e-05 -6.935695e-07
2.192512e-05 -1.904200e-05 -6.935695e-07
2.310916e-05 1.778022e-05 -8.242202e-07
2.310916e-05 -1.778022e-05 -8.242202e-07
-2.688550e-05 -1.195135e-05 1.011479e-06
-1.081437e-05 2.913348e-05 -2.782841e-22
1.035166e-05 2.727766e-05 8.410532e-07
2.854843e-05 5.277407e-06 6.835241e-07
2.854843e-05 -5.277407e-06 6.835241e-07
-2.855874e-05 -1.118463e-05 8.697184e-07
-1.309621e-05 -2.598264e-05 -7.615668e-07
2.955102e-05 -8.189440e-06 8.747242e-07
2.955102e-05 8.189440e-06 8.747242e-07
-1.689272e-05 -2.347351e-05 5.012328e-07
2.998652e-05 6.398549e-06 8.773730e-07
2.998652e-05 -6.398549e-06 8.773730e-07
-1.147954e-05 2.887785e-05 -2.782841e-22
5.591344e-06 3.013605e-05 8.864903e-07
-2.919337e-05 9.337696e-06 8.864815e-07
6.455977e-06 -2.852214e-05 -8.980238e-07
-2.767264e-05 9.547149e-06 -9.201880e-07
5.989971e-06 2.865446e-05 -9.206171e-07
-2.744516e-05 -1.029507e-05 9.474104e-07
-5.667069e-06 -2.866208e-05 -8.766675e-07
1.686908e-05 -2.372030e-05 7.730076e-07
1.686884e-05 2.372035e-05 7.729030e-07
2.249060e-06 -3.061052e-05 -8.505240e-07
-1.213867e-05 2.860704e-05 -2.782841e-22
-1.622505e-05 -2.606865e-05 8.393374e-07
1.476048e-05 -2.476505e-05 -2.446996e-07
9.528695e-07 -3.069254e-05 8.376495e-07
2.449401e-05 -1.539419e-05 -5.207290e-07
2.449401e-05 1.539419e-05 -5.207290e-07
-1.764628e-05 -2.513072e-05 8.375843e-07
-1.969358e-05 -2.352528e-05 8.617052e-07
-3.055083e-05 -3.182244e-06 8.295092e-07
2.765327e-05 -8.824665e-06 -6.769356e-07
2.720607e-05 1.011966e-05 -6.769356e-07
-1.279142e-05 2.832119e-05 -2.782841e-22
-1.795212e-05 2.493107e-05 -8.240304e-07
1.630447e-05 2.428410e-05 -9.027759e-07
1.630447e-05 -2.428410e-05 -9.027759e-07
-2.348366e-05 1.750106e-05 9.304881e-07
-3.396728e-06 -3.053640e-05 8.213490e-07
-7.781452e-06 -2.820749e-05 9.112896e-07
-2.791262e-05 -8.795026e-06 9.144946e-07
-9.100228e-06 -2.933315e-05 8.330219e-07
3.533556e-06 -3.055115e-05 7.915140e-07
-2.934281e-05 -1.881272e-06 -1.001457e-06
-1.343744e-05 2.802045e-05 -2.782841e-22
-1.976727e-05 -2.095023e-05 2.388894e-08
1.755365e-05 2.307120e-05 -6.234385e-07
1.755365e-05 -2.307120e-05 -6.234385e-07
1.427020e-05 -2.554080e-05 9.081846e-07
-6.537950e-07 -3.072706e-05 8.123842e-07
-2.654377e-05 -1.127114e-05 -2.764211e-07
-2.916218e-05 -1.112076e-06 8.478721e-07
-2.901495e-05 -6.460977e-06 1.115827e-06
1.431174e-05 2.557974e-05 9.465459e-07
-3.034137e-05 -4.821967e-06 -8.238245e-07
-1.407640e-05 2.770497e-05 -2.782841e-22
-2.886627e-05 -5.739011e-06 -1.016060e-06
1.876135e-05 2.280520e-05 -1.060035e-06
1.876135e-05 -2.280520e-05 -1.060035e-06
-3.058135e-05 -3.337275e-06 -7.830917e-07
-1.269425e-05 -2.797003e-05 8.297038e-07
2.959735e-05 8.261957e-06 -8.173890e-07
2.959735e-05 -8.261957e-06 -8.173890e-07
-3.535179e-06 -2.911068e-05 -9.552465e-07
2.926034e-05 8.215750e-07 9.191897e-07
2.926669e-05 -6.310793e-07 9.203709e-07
-1.470795e-05 2.737492e-05 -2.782841e-22
-9.610038e-06 2.766029e-05 9.265729e-07
-5.065591e-06 2.884076e-05 9.266390e-07
1.210440e-06 -2.887420e-05 4.571790e-07
2.643199e-05 1.561854e-05 8.428487e-07
2.643199e-05 -1.561854e-05 8.428487e-07
-2.325491e-05 2.003631e-05 8.478896e-07
1.475395e-05 2.475855e-05 -1.999915e-07
6.088887e-06 -2.894350e-05 1.076744e-06
-8.772821e-06 -2.830349e-05 1.093696e-06
-2.910669e-05 3.159695e-06 9.233931e-07
-1.533177e-05 2.703048e-05 -2.782841e-22
-5.266389e-07 2.927297e-05 9.234062e-07
-2.245684e-05 -1.831308e-05 -6.037483e-07
-2.811273e-05 -6.277043e-06 5.760887e-08
5.311072e-06 -2.844530e-05 -5.340854e-07
2.880747e-05 2.472495e-06 4.874151e-07
2.880747e-05 -2.472495e-06 4.874151e-07
-2.945714e-05 -2.439251e-06 1.070134e-06
2.702563e-05 1.465018e-05 -8.054444e-07
2.702563e-05 -1.465018e-05 -8.054444e-07
-4.310093e-06 3.043119e-05 8.115157e-07
-1.594753e-05 2.667183e-05 -2.782841e-22
-2.137446e-05 -2.072837e-05 1.124137e-06
-9.147563e-06 2.933541e-05 8.176877e-07
-7.682192e-06 -2.867781e-05 -1.108163e-06
3.122836e-06 -2.908754e-05 -9.064666e-07
-2.874872e-05 5.769611e-06 9.535761e-07
2.107544e-06 2.924614e-05 9.535904e-07
-3.073180e-05 -2.838978e-07 8.132655e-07
-2.485815e-05 1.810119e-05 7.961426e-07
-2.293856e-05 1.821705e-05 9.336882e-07
2.021132e-05 2.315893e-05 -8.083293e-07
-1.655491e-05 2.629915e-05 -2.782841e-22
2.021132e-05 -2.315893e-05 -8.083293e-07
2.087974e-05 -1.985226e-05 -1.304492e-07
2.087974e-05 1.985226e-05 -1.304492e-07
-6.643054e-07 -2.963827e-05 1.097489e-06
1.985609e-05 2.345801e-05 8.129736e-07
1.985609e-05 -2.345801e-05 8.129736e-07
1.161610e-05 2.847777e-05 7.905309e-07
-1.054172e-05 -2.681122e-05 1.133736e-07
-2.937416e-05 -3.483973e-06 -1.077757e-06
1.287424e-05 2.644258e-05 -1.005223e-06
-1.715358e-05 2.591264e-05 -2.782841e-22
1.131713e-05 -2.858295e-05 -8.046335e-07
1.918648e-05 2.169707e-05 -5.813121e-07
1.918648e-05 -2.169707e-05 -5.813121e-07
4.887320e-06 2.849439e-05 -4.812665e-07
-2.765342e-05 8.431087e-06 -4.804922e-07
-1.425809e-05 -2.728338e-05 7.599221e-07
-2.474158e-05 -1.493241e-05 4.547361e-07
-4.978304e-06 -3.035031e-05 7.904079e-07
1.290367e-05 -2.641232e-05 -9.975612e-07
2.465292e-05 1.525411e-05 6.245837e-07
-1.774323e-05 2.551251e-05 -2.782841e-22
2.465292e-05 -1.525411e-05 6.245837e-07
-2.839127e-05 -7.648540e-06 1.001685e-06
1.238922e-05 -2.815601e-05 7.848400e-07
-2.792842e-05 1.281228e-05 -8.191476e-07
1.852141e-05 -2.451555e-05 8.206456e-07
1.852141e-05 2.451555e-05 8.206456e-07
6.976268e-06 -2.811577e-05 5.893912e-07
-2.838266e-05 7.941589e-06 1.035800e-06
4.308184e-06 2.915636e-05 1.035874e-06
-3.244770e-06 -2.884870e-05 6.815054e-07
-1.832355e-05 2.509896e-05 -2.782841e-22
2.605180e-05 1.641422e-05 7.517725e-07
2.605180e-05 -1.641422e-05 7.517725e-07
2.357079e-05 1.677629e-05 5.236828e-07
2.357079e-05 -1.677629e-05 5.236828e-07
-2.784408e-05 -7.376595e-06 5.036119e-08
-4.557469e-07 -3.068844e-05 -8.515932e-07
1.569907e-05 -2.642385e-05 -8.107713e-07
1.570822e-05 2.643611e-05 -7.955538e-07
-1.580390e-05 2.500500e-05 1.077947e-06
-1.951844e-05 2.226620e-05 1.087298e-06
-1.889423e-05 2.467222e-05 -2.782841e-22
-2.964255e-05 -8.172864e-06 7.978599e-07
-2.519742e-05 -1.763784e-05 7.890811e-07
-2.553250e-05 1.510849e-05 1.103152e-06
2.030039e-05 2.065342e-05 5.750545e-07
2.030039e-05 -2.065342e-05 5.750545e-07
1.176996e-05 -2.725491e-05 1.107893e-06
-1.705015e-05 2.405443e-05 -1.040918e-06
-1.819797e-05 2.319398e-05 -1.039454e-06
-2.627821e-05 1.336480e-05 -1.039718e-06
-1.758877e-06 -2.957614e-05 -1.092702e-06
-1.945498e-05 2.423250e-05 -2.782841e-22
-4.722061e-06 -2.929405e-05 -1.104242e-06
-1.989362e-05 -2.347535e-05 -7.746082e-07
-1.132085e-05 -2.747357e-05 -1.113663e-06
-2.267582e-05 -2.056730e-05 9.145780e-07
2.512084e-05 -1.772937e-05 7.993295e-07
2.512084e-05 1.772937e-05 7.993295e-07
1.582044e-05 -2.513914e-05 1.111233e-06
1.581747e-05 2.513131e-05 1.109452e-06
-2.711681e-05 -1.272153e-05 -1.136108e-06
2.606691e-05 1.321558e-05 -8.837191e-07
-2.000550e-05 2.378004e-05 -2.782841e-22
2.606691e-05 -1.321558e-05 -8.837191e-07
3.051473e-05 -4.263301e-06 -7.290692e-07
3.051473e-05 4.263301e-06 -7.290692e-07
-2.765710e-05 8.606313e-06 5.841959e-07
5.058381e-06 2.852006e-05 5.841154e-07
2.836969e-05 -6.318057e-06 -7.247720e-07
2.838348e-05 6.379913e-06 -7.561472e-07
1.899237e-05 -2.422987e-05 -7.577335e-07
1.899237e-05 2.422987e-05 -7.577335e-07
-1.898720e-05 -2.276159e-05 1.096283e-06
-2.054550e-05 2.331507e-05 -2.782841e-22
[...]
POINT_DATA 3559
VECTORS 10.000GHz_fone_imag double
2.532789e+10 5.317937e+09 -7.303921e+08
-7.210393e+09 -2.592933e+10 1.504469e+09
9.637535e+09 -2.598837e+10 -4.055443e+08
8.204244e+09 -2.538888e+10 4.813617e+08
-9.205295e+09 -2.498934e+10 -3.197709e+08
-2.509590e+10 9.111308e+09 -4.227329e+08
-1.450453e+10 2.403094e+10 5.761557e+07
-2.353970e+10 1.421770e+10 -1.298642e+09
2.328313e+10 -1.559902e+10 4.212733e+08
-2.332845e+10 -1.582083e+10 -3.651830e+08
6.448940e+09 -2.994735e+10 -2.763305e+08
2.482786e+10 6.512613e+09 -7.389397e+08
-7.581428e+09 -3.047144e+10 2.221521e+08
-1.259054e+09 2.764320e+10 -1.205218e+08
2.684580e+10 1.832203e+10 1.310018e+09
2.581801e+10 2.184732e+10 1.776314e+09
1.716621e+10 2.858384e+10 2.684049e+07
3.317998e+10 -9.345243e+09 -2.490778e+08
-2.548525e+10 1.090667e+10 1.182064e+09
-2.233104e+10 2.155420e+10 2.488862e+09
-2.927088e+10 1.345211e+10 -2.799238e+08
-2.870685e+10 1.392278e+10 -1.571717e+09
2.574959e+10 6.564714e+09 -1.409977e+09
-2.047582e+10 1.590953e+10 -7.681165e+08
-1.851953e+10 2.751475e+10 6.565797e+08
-3.137285e+09 -2.764690e+10 -6.700636e+08
2.242139e+09 -2.844501e+10 -2.729135e+08
-2.691070e+10 4.202924e+09 -4.277152e+08
2.851868e+10 1.570939e+10 -2.355975e+08
1.891309e+10 2.861597e+10 3.360359e+08
2.361907e+10 2.334200e+10 -1.716212e+08
-1.864496e+10 2.017660e+10 3.819760e+08
-2.136598e+10 1.983183e+10 7.241084e+08
2.442227e+10 6.712769e+09 -1.049000e+09
-1.855999e+10 2.171096e+10 1.739922e+08
-1.681890e+10 2.015573e+10 -6.677352e+08
2.924826e+10 1.410754e+10 -1.175819e+08
-3.485170e+10 -8.874295e+08 -8.180674e+07
-2.565082e+10 -8.750419e+09 -2.700696e+08
2.196096e+10 1.567329e+10 -2.064438e+08
-1.933168e+10 2.813454e+10 1.455284e+08
-1.167809e+10 2.457610e+10 -7.904092e+08
2.433338e+10 1.159443e+10 5.894805e+08
-9.260866e+09 2.643956e+10 1.617070e+08
2.569010e+10 8.358436e+09 5.936694e+07
8.291697e+09 -3.088210e+10 -2.689650e+08
-8.817133e+09 -3.013312e+10 2.812168e+08
-3.124408e+10 2.190136e+08 8.883785e+06
-1.014104e+10 2.896493e+10 1.552277e+08
2.859933e+10 1.339024e+10 -5.253740e+07
1.785159e+10 -2.172119e+10 -7.806659e+08
-1.783700e+10 -2.170622e+10 7.823016e+08
8.926628e+09 3.503566e+10 -1.177429e+09
3.283524e+10 -4.765122e+09 -5.632972e+08
-2.560716e+10 3.474076e+09 1.416884e+08
2.383708e+10 9.053584e+09 -7.924224e+08
-3.056331e+10 -2.742288e+09 1.949612e+08
-1.086653e+10 -2.942764e+10 -1.488966e+08
1.066366e+10 -3.118958e+10 -3.227246e+08
1.466678e+10 -3.055125e+10 -2.634614e+09
-9.746964e+09 -3.259898e+10 4.384079e+07
2.153266e+10 -2.431475e+10 5.599198e+08
-2.152697e+10 -2.432302e+10 -5.703976e+08
1.995842e+10 -2.600013e+10 4.371699e+08
-1.996903e+10 -2.599424e+10 -4.262076e+08
-1.386820e+10 2.956817e+10 -2.049526e+08
2.463563e+10 8.439795e+09 -4.540808e+08
3.082753e+10 -1.034814e+10 -4.981628e+08
6.230324e+09 -3.379160e+10 -5.839418e+08
-7.837094e+09 -3.186010e+10 6.426367e+08
-1.079471e+10 2.443817e+10 5.326193e+08
-3.055439e+10 1.547317e+10 -5.875149e+08
-7.468802e+09 -2.603956e+10 7.613336e+07
7.121903e+09 -2.616699e+10 -6.638718e+07
-2.712566e+10 1.896512e+10 1.041510e+09
4.233182e+09 -2.687672e+10 6.055805e+08
-5.603273e+09 -2.595836e+10 -1.392218e+08
2.526369e+10 1.015810e+10 -4.074717e+08
2.642055e+10 -4.331119e+09 1.460985e+08
8.647804e+09 2.573051e+10 -1.700229e+08
-3.206339e+10 -8.200103e+09 -3.328500e+07
8.935889e+09 3.171644e+10 -9.585344e+08
3.189203e+10 -6.086759e+09 4.200327e+08
-1.194424e+10 2.864875e+10 -1.194469e+08
-3.256517e+10 8.038800e+09 1.506696e+09
-2.791145e+10 -1.780516e+10 8.039166e+08
2.588729e+10 -2.012483e+10 -1.519992e+09
-2.761779e+10 -3.081815e+09 1.493286e+09
2.429603e+10 8.787410e+09 3.667113e+08
-2.280049e+10 1.316801e+10 -4.288340e+08
-3.026782e+10 -1.761911e+10 2.959007e+08
-2.639243e+10 -2.087917e+08 4.061329e+08
-1.758662e+10 -2.922348e+10 -1.491101e+08
1.754063e+10 -2.924656e+10 2.817280e+08
-2.393104e+10 1.728627e+10 1.101465e+09
-1.860812e+10 1.605506e+10 2.104302e+08
-2.958998e+09 2.689452e+10 -5.949134e+08
-1.106342e+10 -3.027009e+10 4.560586e+08
1.006593e+10 -2.966005e+10 -5.811816e+08
2.334183e+10 1.128560e+10 3.868814e+07
2.096040e+10 1.564432e+10 -1.876367e+07
2.725475e+10 -1.949516e+10 1.991086e+08
-2.881112e+10 -1.970979e+10 7.206135e+07
2.047466e+10 2.563208e+10 -5.580238e+08
-2.620235e+10 2.567057e+09 6.887578e+08
-3.080371e+10 9.214688e+09 1.819830e+09
-9.016068e+09 3.113681e+10 3.573280e+08
-2.475854e+10 6.655876e+09 2.676352e+08
-2.578411e+10 -2.724397e+09 3.649855e+08
-1.755190e+09 3.058071e+10 2.657059e+08
2.258713e+10 1.034003e+10 -9.008189e+08
-2.571034e+10 2.431266e+10 -2.085938e+08
2.763198e+10 -2.059555e+10 6.155911e+08
-2.773236e+10 -2.069276e+10 -6.768654e+08
-2.825584e+10 -1.498792e+10 2.290813e+07
-2.575140e+10 1.513699e+09 5.047895e+08
-1.323987e+10 3.096146e+10 -1.832146e+09
-2.037564e+09 3.366208e+10 1.417723e+06
-6.186935e+09 3.016138e+10 -2.008721e+09
2.761620e+10 -1.628563e+10 7.507448e+08
-4.249771e+09 2.707859e+10 -3.860971e+08
2.277755e+10 1.151907e+10 -3.759367e+08
-7.780726e+09 3.161231e+10 9.124155e+08
2.417750e+10 -1.979375e+10 1.316980e+08
-2.444503e+10 -2.002740e+10 -1.549707e+08
-3.485782e+09 2.555218e+10 -7.251276e+08
-2.467265e+10 1.059814e+10 -1.271567e+09
7.303977e+09 -2.484780e+10 3.969812e+08
-7.007385e+09 -2.549888e+10 2.442764e+08
-3.137797e+10 4.718019e+09 3.424448e+08
-1.161731e+08 -2.984885e+10 4.708800e+08
-7.958936e+08 -3.349990e+10 -4.684292e+08
2.248629e+10 1.194922e+10 -1.503492e+07
2.980022e+10 9.993568e+09 4.291352e+08
3.240316e+10 4.687623e+09 -3.981218e+08
-3.398160e+10 -8.845713e+08 5.705929e+06
1.268056e+10 -2.235419e+10 1.396797e+07
-1.377257e+10 -2.255593e+10 7.604143e+08
1.829690e+10 2.060201e+10 -5.364682e+08
2.829559e+10 -1.818771e+10 1.846956e+09
-2.987685e+10 -6.490381e+09 8.401980e+08
-2.941374e+10 8.080967e+09 -2.565517e+08
3.042276e+09 3.227352e+10 9.706500e+08
2.187531e+10 1.291927e+10 8.221062e+08
3.240152e+10 9.883241e+08 9.398016e+08
-2.135898e+10 2.712287e+10 2.390221e+08
-7.530904e+09 3.799046e+10 2.544938e+08
-3.318245e+10 -6.680840e+09 -6.355179e+08
3.303895e+09 -3.516726e+10 1.906327e+08
-2.511658e+09 -3.337103e+10 3.436819e+08
-2.153223e+09 3.115511e+10 4.495623e+08
1.351725e+10 -2.400025e+10 -4.253109e+08
-1.330953e+10 -2.364621e+10 4.437350e+08
2.682766e+10 3.613982e+09 -1.308642e+09
2.189315e+10 1.275148e+10 -1.221498e+07
-2.031180e+10 2.081048e+10 -1.044956e+08
2.491997e+10 8.451525e+09 1.216954e+09
-2.906640e+10 9.463971e+09 4.985019e+08
-3.112022e+10 -2.923871e+09 -1.414359e+09
5.202012e+09 2.924854e+10 -5.478221e+07
3.267331e+10 -2.516332e+09 4.919115e+08
-1.017715e+09 2.605224e+10 -1.374476e+09
1.686041e+10 2.391343e+10 1.080172e+08
1.949262e+10 2.529868e+10 1.071623e+09
1.946483e+10 -1.818449e+10 4.776576e+08
2.162224e+10 1.326737e+10 1.870440e+09
-1.954936e+10 -1.816927e+10 -5.805786e+08
-2.317808e+10 -2.491816e+10 -5.862962e+08
2.317773e+10 -2.491853e+10 5.839010e+08
-3.065004e+10 6.238680e+08 3.726617e+08
2.085944e+10 -1.649373e+10 4.536821e+08
-2.057252e+10 -1.582638e+10 -3.295730e+08
2.470522e+10 -8.938931e+09 -4.238244e+07
-3.195859e+10 1.227811e+10 3.963636e+07
-4.095480e+09 3.397090e+10 -6.629028e+08
2.657870e+10 -1.462899e+10 -2.161761e+08
2.155019e+10 1.420464e+10 -3.977166e+08
-2.442462e+10 -9.708307e+09 7.844937e+08
2.753970e+10 -2.324179e+10 -6.768830e+08
-2.755764e+10 -2.327525e+10 6.484149e+08
3.515380e+10 -6.223892e+09 3.027064e+08
1.060554e+10 3.255977e+10 -6.338422e+08
-2.270109e+10 1.162411e+10 -2.040554e+08
-1.662840e+10 2.823003e+10 -2.817219e+08
-2.633342e+10 3.762681e+09 -5.828348e+08
-2.778474e+10 -1.533454e+10 2.754101e+08
1.749259e+10 -2.758511e+10 2.701483e+07
2.245752e+10 1.465175e+10 1.261122e+09
-1.722230e+10 -2.741911e+10 3.563709e+08
-9.073070e+09 3.106237e+10 4.900979e+08
-2.395062e+10 -1.083671e+10 1.575756e+09
1.033514e+10 2.454340e+10 -5.762775e+08
-2.017932e+10 -1.697149e+10 1.363142e+09
2.152055e+10 -1.714896e+10 -5.868110e+08
-3.292618e+10 -7.353879e+09 1.292637e+09
1.049623e+10 3.258358e+10 -1.845879e+09
3.039540e+10 -4.612387e+09 2.484598e+08
-3.200371e+10 4.160940e+09 3.641484e+08
2.000944e+10 1.593789e+10 4.030842e+08
1.476215e+10 -2.181933e+10 3.151673e+08
-1.490136e+10 -2.181087e+10 -1.910488e+08
1.847110e+10 -2.666347e+10 1.785642e+08
-1.846520e+10 -2.665379e+10 -1.807631e+08
-9.145090e+09 3.122775e+10 -1.993996e+08
-2.777768e+10 3.585943e+08 4.528190e+08
-2.502541e+10 -1.401022e+10 4.378451e+08
2.332512e+10 -1.450493e+10 -9.720072e+08
2.640568e+10 1.592286e+10 1.018372e+09
2.290342e+10 2.113236e+10 -3.308954e+07
2.046412e+10 1.564681e+10 3.278467e+08
-7.212279e+09 2.644425e+10 -1.291580e+08
-1.448396e+10 2.135281e+10 2.323377e+08
1.675571e+10 2.562924e+10 2.327441e+09
2.444727e+10 -2.373741e+10 -7.797751e+07
-2.445485e+10 -2.373952e+10 7.226473e+07
-2.786629e+10 -1.180763e+10 3.286724e+08
2.417405e+10 1.771879e+10 8.659198e+08
2.494855e+10 1.877809e+10 -7.096510e+08
1.442729e+10 2.733429e+10 -2.523282e+08
-3.232624e+10 1.433654e+09 -6.699568e+08
2.023465e+10 1.591045e+10 2.235114e+08
-3.002975e+10 4.099496e+09 7.200462e+07
-1.947955e+10 1.731234e+10 4.567284e+07
-2.825732e+10 1.129942e+10 -1.123898e+07
-1.817795e+10 1.981752e+10 -4.808484e+08
-1.539916e+10 -2.102429e+10 -1.381007e+09
1.539347e+10 -2.102607e+10 1.386250e+09
-2.597450e+10 -1.684264e+10 -9.041822e+08
2.471301e+10 -1.648915e+10 -2.844661e+08
-1.388750e+10 2.611368e+10 -2.815234e+08
1.519833e+10 -2.920883e+10 4.842635e+08
1.949020e+10 1.642116e+10 3.387071e+08
-1.543707e+10 -2.843331e+10 -1.402400e+08
-3.899210e+09 -2.640555e+10 3.026658e+07
4.118998e+09 -2.656105e+10 -1.204214e+09
9.612098e+09 3.227559e+10 5.004135e+08
3.447181e+10 -6.461385e+09 -2.507169e+08
-8.014959e+09 -3.031649e+10 -7.381255e+08
6.667594e+09 -3.089236e+10 2.526839e+08
-2.155214e+10 -1.595974e+10 -1.985668e+08
2.116821e+10 -1.621509e+10 1.685759e+08
-2.271093e+10 1.962917e+10 6.428783e+06
1.902673e+10 1.725980e+10 7.877348e+08
2.097869e+10 -1.815376e+10 -9.450081e+08
-2.097340e+10 -1.814435e+10 9.489735e+08
-3.004327e+10 -2.298560e+09 -3.559073e+08
-2.442839e+10 -1.196003e+10 -5.316705e+08
3.285586e+10 6.672852e+09 1.265159e+09
2.573420e+10 7.327082e+09 -9.322460e+07
-2.880852e+10 1.869698e+10 -1.461212e+08
2.809606e+10 -1.138552e+10 -6.625935e+08
2.703778e+10 2.452528e+09 3.486334e+08
1.080374e+09 2.733805e+10 3.996100e+08
1.884314e+10 1.713326e+10 -1.364382e+08
2.960697e+10 -1.176199e+10 1.707006e+08
-2.233110e+10 -1.325671e+10 -4.580272e+07
2.160832e+10 -1.435387e+10 -3.051550e+08
3.437367e+09 3.286453e+10 -2.266663e+08
3.318042e+10 7.783354e+08 -2.731673e+08
-2.942397e+10 -1.383917e+10 -1.037080e+09
-4.414580e+09 2.656744e+10 -5.241603e+08
2.535775e+10 -4.595396e+09 -1.050611e+08
3.106407e+09 2.806234e+10 -8.503318e+08
7.948233e+09 2.440854e+10 4.093515e+07
1.833794e+10 1.816181e+10 5.979225e+08
2.538379e+10 9.183921e+09 -7.388200e+08
2.720802e+10 4.385147e+09 1.848800e+09
2.823941e+10 4.591319e+08 -8.397937e+08
-3.092609e+10 -8.821165e+09 6.623496e+08
2.544223e+10 -8.914647e+09 4.178463e+08
2.924704e+10 9.304088e+09 -6.964828e+08
2.934705e+10 1.643437e+10 1.481537e+07
2.382820e+10 2.106197e+10 -4.123612e+08
1.463038e+10 2.664109e+10 4.137283e+08
3.037767e+10 5.058694e+09 -3.382026e+08
1.879292e+10 1.679561e+10 5.535556e+08
-2.600709e+10 7.863002e+09 2.834359e+08
1.338663e+10 -2.638979e+10 9.856355e+08
-1.392851e+10 -2.708811e+10 -8.354501e+08
3.839322e+08 3.034162e+10 -5.151271e+08
-1.494279e+10 -3.062480e+10 -1.040431e+09
1.485748e+10 -3.879574e+10 -5.570936e+08
1.454410e+10 2.195014e+10 8.627920e+08
1.915468e+10 1.856514e+10 1.655287e+08
2.293778e+10 1.356985e+10 -5.135879e+08
2.198864e+10 -2.442594e+10 -7.583029e+08
1.938592e+10 2.251438e+10 7.101537e+08
-2.199232e+10 -2.443179e+10 7.594466e+08
-1.566628e+09 -2.530467e+10 -5.092175e+08
1.422862e+09 -2.624256e+10 -1.342339e+08
-1.905722e+10 2.790136e+10 2.541210e+08
-1.218930e+08 -3.279442e+10 4.561373e+08
3.472265e+08 -3.387065e+10 -4.984988e+08
-2.357140e+10 2.279366e+10 1.428115e+08
-2.685270e+10 -5.424926e+09 5.849923e+08
-2.039214e+09 2.650776e+10 -8.129517e+08
2.488391e+10 -1.840747e+10 -3.249710e+08
1.816372e+10 1.889497e+10 2.863408e+08
-2.493376e+10 -1.660844e+10 1.195641e+09
-2.237374e+10 -1.251496e+10 3.397695e+08
2.399325e+10 1.738825e+10 -1.869107e+08
1.955910e+10 2.677510e+10 3.884263e+07
4.613186e+09 -3.262575e+10 -4.074407e+08
-4.138400e+09 -3.309039e+10 -1.023706e+08
-8.341926e+09 2.859485e+10 1.049866e+09
-2.360302e+09 3.539630e+10 -9.152084e+07
3.023852e+10 1.203556e+10 -6.438789e+08
-2.883440e+10 -6.144993e+09 1.274339e+08
1.693330e+10 1.942606e+10 2.773785e+08
-2.390963e+10 9.612589e+09 2.477091e+08
-2.513166e+10 2.221851e+10 -1.128869e+08
6.775710e+09 3.247122e+10 -1.102596e+09
3.348036e+10 -1.562338e+09 -1.216885e+09
-1.273647e+10 3.039688e+10 -9.056357e+08
1.553239e+10 2.741070e+10 -3.591774e+07
-2.665386e+10 -7.838657e+09 -6.966987e+07
-2.185368e+10 2.291548e+10 -2.103756e+08
-3.170647e+10 -1.489788e+09 1.749977e+09
4.068563e+09 3.065524e+10 -9.257855e+08
1.700600e+10 2.094026e+10 -4.617842e+08
3.073964e+10 2.972120e+08 -1.022641e+09
-2.037351e+10 1.883973e+10 -3.421883e+08
3.027120e+10 -4.626421e+08 -4.319173e+08
4.054852e+09 2.966142e+10 -4.059686e+08
-2.907554e+10 4.432117e+09 2.472631e+08
1.367817e+10 2.222431e+10 2.257041e+08
2.948787e+10 -1.340765e+10 -1.330174e+08
-4.600885e+09 2.647763e+10 -1.454339e+09
-3.297365e+10 4.693971e+09 -3.447078e+08
3.246021e+10 -9.556779e+09 4.771914e+08
1.553304e+10 2.077215e+10 2.457369e+08
-1.787962e+09 2.582968e+10 -3.433403e+08
-3.053895e+10 -4.121353e+09 4.414660e+08
-2.984549e+10 4.275168e+09 -1.538793e+08
-1.574245e+10 2.976656e+10 1.104689e+09
1.374775e+10 2.815364e+10 6.892273e+08
1.380334e+10 -3.010133e+10 -5.483109e+08
-1.289362e+10 -3.107855e+10 -3.069571e+08
-3.207103e+10 8.000323e+09 8.943674e+08
2.435424e+10 1.834609e+10 1.235131e+09
2.119287e+10 1.776670e+10 -2.403222e+08
1.361162e+10 2.077843e+10 -1.769790e+09
2.026499e+10 2.583660e+10 -3.075494e+08
-3.071670e+10 1.375894e+10 -2.248635e+07
1.285081e+10 3.117329e+10 -9.007251e+08
1.105959e+10 3.187332e+10 -6.528454e+08
3.297550e+10 1.056833e+10 -2.159069e+08
3.304963e+10 4.239262e+09 -5.243017e+08
-2.416402e+10 8.609671e+09 7.371576e+07
-2.224701e+10 1.596017e+10 -2.164028e+08
2.440123e+10 -1.070045e+10 -7.049646e+08
-3.054542e+09 -2.751108e+10 6.413357e+08
1.544285e+10 2.007498e+10 9.930372e+08
2.712735e+09 -2.580345e+10 6.497434e+08
-1.422896e+09 3.139967e+10 -3.110501e+08
-2.956248e+10 -9.524143e+09 -3.135188e+08
-5.875490e+08 3.070881e+10 3.754085e+08
3.153444e+10 3.561214e+09 5.102397e+08
-2.602819e+10 5.666864e+09 2.346408e+08
2.996006e+10 9.288972e+09 2.446768e+08
2.618787e+10 1.472847e+10 -5.589529e+07
2.664853e+10 1.953717e+10 1.849644e+08
5.811515e+09 3.298253e+10 1.755586e+08
1.512043e+10 2.212048e+10 -8.359074e+08
3.362298e+10 -1.758387e+09 -1.021557e+08
1.593374e+10 2.502509e+10 -2.159667e+09
2.168582e+10 2.161218e+10 4.205487e+08
3.313006e+10 -7.510632e+09 3.809063e+08
-4.165811e+09 2.938950e+10 -4.349349e+08
-2.287555e+10 1.501385e+10 -1.311326e+08
2.089341e+10 -2.061215e+10 1.181832e+09
-2.089589e+10 -2.061325e+10 -1.181835e+09
2.652346e+10 -4.017909e+09 -9.621938e+08
6.831698e+09 2.781975e+10 -4.820752e+08
1.269367e+10 2.155994e+10 -6.682479e+08
-2.692721e+10 1.857043e+10 2.042555e+07
-1.298623e+10 2.318740e+10 7.699607e+08
2.446851e+10 -8.434427e+09 -9.912948e+07
-1.531319e+10 2.093809e+10 -8.747306e+08
-1.164358e+10 2.776020e+10 8.980417e+07
-2.619561e+10 -5.469759e+09 7.287088e+08
1.132094e+10 -2.485981e+10 -9.023940e+08
-9.477718e+09 -2.594132e+10 -1.683177e+09
-3.278104e+10 1.640164e+09 -1.278099e+09
1.147716e+10 -2.354494e+10 2.360538e+08
1.354160e+10 2.104800e+10 1.726696e+08
-1.106874e+10 -2.431015e+10 -8.327359e+08
1.448845e+10 3.090232e+10 -4.965459e+08
-2.779728e+10 -1.286431e+10 -1.819278e+08
-3.503511e+10 2.401481e+09 -7.511652e+08
1.242915e+10 2.315941e+10 1.223526e+07
1.986885e+10 1.856991e+10 9.896100e+07
2.196177e+10 -2.236197e+10 3.301786e+08
-2.196666e+10 -2.236011e+10 -3.324908e+08
-1.959706e+10 -2.571655e+10 -3.054764e+08
1.959365e+10 -2.571735e+10 3.070013e+08
1.300982e+10 2.262699e+10 1.057653e+08
3.080288e+09 -2.817224e+10 9.988863e+08
-3.635588e+09 -2.973876e+10 2.115810e+08
3.042235e+10 1.264249e+10 -2.693030e+08
-2.987029e+10 -6.189242e+09 -4.618149e+08
-3.136922e+10 7.550219e+09 -3.560328e+08
8.344094e+09 2.880861e+10 -3.542572e+08
6.987616e+09 2.986256e+10 1.227197e+09
3.202383e+10 -4.209751e+09 -6.555645e+08
3.043928e+10 -2.371986e+09 1.462652e+09
2.144365e+10 2.439680e+10 1.966348e+08
1.194495e+10 2.195834e+10 -7.032611e+07
-2.820081e+10 1.287389e+10 1.389071e+09
2.849217e+10 -1.047489e+10 4.110071e+08
-3.162728e+10 -3.182037e+09 4.781565e+08
-5.426914e+09 3.498800e+10 -1.004116e+09
-1.006154e+10 3.238316e+10 6.463959e+08
2.946530e+10 -5.110651e+09 -1.569661e+08
2.249679e+09 3.118320e+10 -1.003898e+08
8.785749e+09 2.730291e+10 3.516216e+08
2.930980e+10 1.203608e+10 7.731758e+07
3.125217e+10 1.718982e+09 -9.938044e+07
1.211947e+10 2.235223e+10 3.875769e+08
2.232289e+10 -1.368690e+10 -4.352509e+08
2.990500e+10 8.062941e+09 -5.124117e+08
1.232679e+09 3.052087e+10 -1.563255e+08
3.059167e+10 2.783122e+09 3.085672e+08
-3.161963e+10 -4.267273e+09 6.063190e+08
2.585081e+10 -6.983255e+09 -3.455201e+08
3.259482e+10 -2.262861e+09 6.687978e+08
6.478569e+09 3.348565e+10 3.965870e+08
3.303302e+10 1.456161e+09 5.523167e+08
2.812401e+09 3.301050e+10 6.011039e+08
1.198872e+10 2.390662e+10 1.292592e+09
-2.671883e+10 9.273405e+09 9.312306e+07
2.636915e+10 -5.066076e+09 -1.426720e+09
2.302561e+10 1.325139e+10 -4.451685e+08
2.781976e+10 1.872728e+09 1.146109e+09
2.731481e+10 3.477100e+09 -3.936624e+08
2.586656e+10 1.027234e+10 6.745220e+08
2.341900e+10 1.220314e+10 -7.923649e+08
7.569358e+08 2.697817e+10 2.132120e+07
5.436392e+09 2.555141e+10 5.677370e+08
1.695470e+09 2.786557e+10 1.096983e+09
1.079155e+10 2.352534e+10 7.959475e+08
4.683666e+09 2.610996e+10 1.350340e+08
1.040189e+10 2.394787e+10 2.492137e+08
8.265749e+09 2.472554e+10 -1.214794e+09
1.795148e+10 2.100447e+10 -1.248845e+09
1.629038e+10 2.000956e+10 -2.093412e+09
2.631969e+10 6.938639e+09 7.496656e+07
2.602466e+10 5.848048e+09 2.045553e+08
2.586057e+10 -1.898345e+09 -3.568966e+08
2.994475e+10 -4.768531e+09 1.063947e+09
-1.675892e+10 2.430038e+10 -4.719227e+08
9.871720e+09 2.399207e+10 1.275774e+09
-6.167606e+09 2.596809e+10 4.721541e+08
-2.506436e+10 1.490293e+10 -4.303672e+08
-2.706068e+10 1.403708e+10 3.676998e+08
2.970204e+10 5.222198e+09 2.419696e+07
1.923453e+10 -1.926934e+10 -3.385309e+08
-1.923542e+10 -1.926051e+10 3.293736e+08
-2.144240e+10 2.441814e+10 -4.933166e+08
2.196015e+10 1.521086e+10 -8.694290e+08
2.517132e+10 8.055757e+09 -4.414398e+08
-1.279581e+10 3.004345e+10 -3.263101e+08
9.663462e+09 2.321818e+10 6.695805e+08
2.265141e+10 1.430617e+10 -1.089006e+09
2.902595e+10 7.128737e+09 5.532440e+08
2.864821e+10 1.129120e+10 -9.592093e+08
1.087413e+10 2.339747e+10 -1.697724e+07
-2.386049e+10 -1.309234e+10 -2.818229e+08
1.428940e+10 2.230957e+10 -2.033031e+07
-3.051960e+10 -6.282416e+09 6.159698e+08
1.386169e+10 -2.220438e+10 1.723934e+09
-1.401055e+10 -2.245557e+10 -1.708993e+09
3.107990e+10 -2.263104e+09 -1.319263e+09
8.350293e+09 2.372896e+10 1.459572e+09
5.598745e+09 2.979404e+10 -1.409069e+09
-9.688407e+09 3.053515e+10 -1.557257e+08
-1.799699e+10 2.255175e+10 -3.822224e+08
2.372217e+10 1.148519e+10 -5.909921e+08
2.879675e+10 6.701676e+08 -4.115502e+08
1.004774e+10 -2.794796e+10 -2.498836e+08
-8.655522e+09 -2.788997e+10 -7.509584e+07
2.984208e+09 2.877112e+10 -4.053192e+08
1.524085e+10 2.064552e+10 -7.729793e+08
2.054952e+10 2.292978e+10 1.055936e+09
8.425749e+09 2.398482e+10 -1.504464e+08
2.316705e+10 1.149319e+10 1.878034e+08
2.582547e+10 -9.202680e+08 -5.447859e+08
2.494177e+10 7.671769e+09 -1.834725e+08
6.509709e+09 2.511534e+10 2.278023e+08
3.820880e+09 2.573127e+10 -1.088066e+08
2.581627e+10 5.021242e+09 6.672503e+08
-1.080604e+10 3.238456e+10 -7.026150e+08
-2.603359e+10 -1.546832e+10 -2.235879e+09
2.803040e+10 -4.139001e+09 3.195583e+08