# vtk DataFile Version 2.0
Electric current density generated by TTH
ASCII
DATASET UNSTRUCTURED_GRID
POINTS 5300 double
1.228469e-05 3.286555e-05 -2.131747e-22
8.326472e-06 3.355861e-05 7.923768e-07
2.117287e-05 2.716526e-05 8.405576e-07
2.195000e-05 2.675465e-05 7.778439e-07
3.253523e-05 -7.329677e-06 9.236221e-08
-3.161154e-05 -1.065393e-05 -1.490911e-07
3.004097e-05 1.451134e-05 -1.687226e-07
-3.214405e-05 -8.913144e-06 -1.391283e-07
3.325366e-05 2.483574e-06 -3.081925e-08
3.002468e-05 -1.723114e-05 7.720856e-07
3.341231e-05 -2.032503e-06 4.549083e-07
1.177208e-05 3.305262e-05 -2.131747e-22
2.066812e-05 -2.775939e-05 -7.768155e-07
3.364524e-05 -7.813821e-06 -8.075589e-07
3.349425e-05 -8.676234e-06 -7.812307e-07
-2.942072e-05 -1.612493e-05 -5.600351e-07
2.897711e-05 1.686956e-05 -5.354292e-07
-3.288027e-05 6.255950e-06 -4.484001e-07
1.302258e-05 3.188667e-05 -8.401439e-07
-3.335576e-05 7.104713e-07 -1.741382e-07
6.044510e-06 3.408819e-05 7.709729e-07
-2.491976e-05 -2.236746e-05 4.734814e-07
1.125663e-05 3.323170e-05 -2.131747e-22
-3.460779e-05 -1.979143e-06 7.460406e-07
-3.349286e-05 8.541636e-06 7.974006e-07
-3.279872e-05 -6.044158e-06 9.550134e-08
2.671329e-05 1.996360e-05 -7.351255e-08
3.290798e-05 -1.057027e-05 7.978132e-07
3.237310e-05 1.210987e-05 -7.978099e-07
-3.387755e-05 -7.260889e-06 7.562324e-07
3.153924e-05 1.403651e-05 8.149314e-07
3.724106e-06 3.441411e-05 -7.735345e-07
1.665880e-05 3.027841e-05 -8.001152e-07
1.073846e-05 3.340274e-05 -2.131747e-22
-2.670847e-05 -2.181339e-05 8.279936e-07
-3.308579e-05 -4.320272e-06 1.897634e-07
-3.330695e-05 2.999290e-06 -3.973402e-07
-3.156437e-05 1.409302e-05 7.961838e-07
-2.451164e-05 -2.412429e-05 8.524107e-07
-2.215712e-05 -2.630331e-05 8.524107e-07
-1.102768e-05 -3.257594e-05 8.524107e-07
-9.551150e-06 -3.322213e-05 7.961073e-07
6.413983e-06 -3.396756e-05 7.961073e-07
-2.100800e-05 -2.745175e-05 7.961073e-07
1.021769e-05 3.356571e-05 -2.131747e-22
1.263874e-05 -3.216094e-05 8.015533e-07
-1.260521e-05 -3.218763e-05 7.961073e-07
-4.804594e-06 -3.405463e-05 8.524107e-07
-1.835867e-05 -2.928983e-05 7.961073e-07
-6.413983e-06 -3.396756e-05 7.961073e-07
1.597597e-06 -3.435476e-05 8.524107e-07
-1.610505e-06 -3.435416e-05 8.524107e-07
4.791798e-06 -3.405643e-05 8.524107e-07
3.221005e-06 -3.441743e-05 7.961073e-07
-1.905644e-19 -3.456783e-05 7.961073e-07
9.694442e-06 3.372055e-05 -2.131747e-22
-3.221005e-06 -3.441743e-05 7.961073e-07
-1.960979e-05 -2.825346e-05 8.524107e-07
-1.689184e-05 -2.995776e-05 8.524107e-07
7.944319e-06 -3.346176e-05 8.524127e-07
-1.402691e-05 -3.140140e-05 8.524107e-07
-1.554959e-05 -3.087305e-05 7.961073e-07
9.551150e-06 -3.322213e-05 7.961073e-07
1.109025e-05 -3.274051e-05 7.961073e-07
-7.956876e-06 -3.345878e-05 8.524107e-07
-2.347453e-05 -2.537481e-05 7.961073e-07
9.168854e-06 3.386724e-05 -2.131747e-22
-2.568855e-05 -2.302860e-05 8.229020e-07
-1.998090e-05 2.809312e-05 -8.312433e-07
-1.727628e-05 2.983270e-05 -8.312433e-07
-1.610241e-05 3.048233e-05 -8.312432e-07
-1.144106e-05 3.252021e-05 -8.312341e-07
-1.016713e-05 3.294088e-05 -8.311890e-07
2.460531e-05 -2.335535e-05 8.201733e-07
2.985048e-05 1.743605e-05 -7.952565e-07
-3.263948e-05 1.143875e-05 -7.879003e-07
2.719951e-05 1.931931e-05 -1.694845e-07
8.641048e-06 3.400573e-05 -2.131747e-22
-2.614980e-05 2.256197e-05 -8.087379e-07
2.296488e-05 -2.594667e-05 -7.545278e-07
-3.078608e-05 1.554591e-05 8.266143e-07
-3.013808e-05 1.693597e-05 7.948456e-07
-3.458445e-05 9.017749e-07 7.829540e-07
-3.420533e-05 4.875925e-06 -8.032832e-07
-2.499457e-05 2.389745e-05 -7.903475e-07
5.088052e-06 3.313414e-05 -5.258247e-07
-2.836659e-05 -1.976869e-05 -7.926786e-07
-1.932996e-05 2.718565e-05 1.412124e-07
8.111152e-06 3.413601e-05 -2.131747e-22
-1.671273e-05 2.886852e-05 1.412124e-07
-1.558474e-05 2.949275e-05 1.412121e-07
-1.106608e-05 3.146822e-05 1.412055e-07
-9.841881e-06 3.187225e-05 1.408389e-07
3.237279e-05 1.226474e-05 7.718741e-07
3.300061e-05 -1.045576e-05 -7.723161e-07
-2.717990e-05 1.934435e-05 -1.619125e-07
9.838316e-06 3.186137e-05 6.731582e-09
2.596140e-05 2.294565e-05 7.555065e-07
-3.459777e-05 9.203757e-07 -7.761027e-07
7.579295e-06 3.425802e-05 -2.131747e-22
3.188179e-05 -1.332435e-05 8.020268e-07
3.186534e-06 3.448604e-05 7.640250e-07
1.732034e-05 -2.999349e-05 7.627399e-07
2.829883e-05 1.996117e-05 -7.653512e-07
1.736084e-05 2.873438e-05 -5.851221e-07
-2.843450e-05 -1.979108e-05 7.578796e-07
-1.933701e-05 2.874310e-05 -7.588701e-07
8.447664e-06 3.242314e-05 -5.026697e-07
2.551300e-05 2.152564e-05 -2.439963e-07
2.676166e-05 2.196410e-05 -7.704665e-07
7.045604e-06 3.437175e-05 -2.131747e-22
3.447395e-05 -3.496921e-06 7.539781e-07
-2.669340e-05 -2.212469e-05 -7.423362e-07
-3.064748e-05 1.373827e-05 6.002502e-07
-9.175963e-07 3.337167e-05 -2.561882e-07
-2.939265e-05 1.584270e-05 2.752568e-07
4.387006e-07 3.371711e-05 -7.151083e-07
-3.291103e-05 -7.466505e-06 7.333580e-07
-3.460400e-05 -3.425809e-07 7.782757e-07
1.613805e-05 2.923601e-05 2.867560e-07
3.325332e-05 8.156629e-06 8.700481e-07
6.510209e-06 3.447716e-05 -2.131747e-22
-2.133484e-06 3.329441e-05 -1.710262e-07
2.318838e-05 2.573911e-05 7.579220e-07
2.971893e-05 1.719932e-05 8.619073e-07
-3.405101e-05 -6.100173e-06 7.844486e-07
1.373662e-05 3.043368e-05 2.745641e-07
1.451932e-05 3.002261e-05 7.745180e-08
1.499731e-05 3.013741e-05 -6.718404e-07
3.350846e-05 8.844104e-07 -5.226514e-07
-2.970562e-05 -1.543494e-05 4.584843e-07
-2.999529e-05 -1.460930e-05 1.768760e-07
5.973239e-06 3.457424e-05 -2.131747e-22
-7.953209e-06 3.374854e-05 -7.407651e-07
-3.019700e-05 -1.700423e-05 7.512899e-07
-2.377927e-05 2.503715e-05 -8.118126e-07
3.403187e-05 -6.238559e-06 7.816114e-07
3.471617e-05 -8.931687e-07 7.041294e-07
2.778020e-05 -1.882375e-05 -5.684597e-07
2.917137e-05 -1.873058e-05 7.444117e-07
3.387526e-05 3.838271e-06 8.614639e-07
2.564624e-05 2.312487e-05 -8.108201e-07
3.301978e-05 -7.117144e-06 -7.521171e-07
5.434824e-06 3.466295e-05 -2.131747e-22
-3.446876e-05 4.038884e-06 -7.203293e-07
-3.431993e-05 -4.609009e-06 7.666846e-07
2.102643e-05 2.755411e-05 -7.484250e-07
-3.420656e-05 5.738578e-06 -7.334983e-07
1.511525e-05 -3.122548e-05 7.290219e-07
1.223218e-05 3.104455e-05 -1.934586e-07
3.242781e-05 -1.208168e-05 7.784517e-07
1.329405e-05 -3.082702e-05 -5.846881e-07
-2.093697e-06 3.455427e-05 -7.721804e-07
1.268726e-05 -3.084192e-05 8.120931e-08
4.895095e-06 3.474328e-05 -2.131747e-22
3.062252e-05 1.611602e-05 -7.789216e-07
-3.358586e-05 -5.784592e-07 6.054626e-07
2.428691e-05 2.469903e-05 -7.604026e-07
-3.217723e-05 9.752487e-06 -6.367112e-07
-3.336358e-05 -1.968539e-06 -3.554100e-07
1.080039e-05 3.292843e-05 7.519024e-07
3.308938e-05 5.734937e-06 -5.969230e-07
-3.189468e-05 -1.292743e-05 -8.473267e-07
2.107121e-05 2.611528e-05 -5.672608e-07
-2.688423e-05 2.177990e-05 7.813417e-07
4.354182e-06 3.481521e-05 -2.131747e-22
-3.295020e-05 1.063900e-05 -7.682031e-07
-4.174029e-06 3.308347e-05 -4.385994e-09
1.011276e-06 3.333376e-05 7.647840e-08
-2.873028e-05 -1.802159e-05 8.165029e-07
1.628042e-05 -2.933983e-05 -5.650647e-07
3.155142e-05 1.211034e-05 7.621231e-07
3.226337e-05 -1.006165e-05 -7.621988e-07
-3.179698e-05 -1.254326e-05 8.696683e-07
2.327070e-05 -2.405604e-05 -4.476246e-07
1.132811e-05 3.151220e-05 -4.745597e-07
3.812216e-06 3.487871e-05 -2.131747e-22
1.851162e-05 2.776557e-05 2.071844e-07
3.252310e-05 8.229118e-06 -5.578772e-07
-2.873159e-05 1.942278e-05 -7.359828e-07
-3.219430e-05 1.274467e-05 7.682391e-07
-2.816652e-05 1.851050e-05 -7.041053e-07
1.927867e-05 2.745726e-05 5.596134e-07
2.701117e-05 -2.075906e-05 8.574418e-07
1.488910e-05 3.136197e-05 7.118669e-07
-6.176351e-06 3.416410e-05 -7.111157e-07
-3.349017e-05 -9.256875e-06 6.904697e-07
3.269328e-06 3.493378e-05 -2.131747e-22
3.095120e-05 -1.550751e-05 -7.715908e-07
2.893787e-05 -1.703419e-05 5.932269e-07
2.387674e-05 -2.332566e-05 -2.397861e-07
2.846669e-05 -1.807116e-05 7.139041e-07
2.913074e-05 1.871930e-05 -7.673690e-07
3.429388e-05 -5.031348e-06 7.480375e-07
2.507171e-05 -2.252179e-05 7.022708e-07
7.281658e-06 -3.274778e-05 -5.573213e-07
1.078850e-06 -3.353030e-05 -5.574191e-07
-5.161356e-06 -3.314823e-05 -5.574191e-07
2.725649e-06 3.498040e-05 -2.131747e-22
-2.197803e-05 -2.534584e-05 -5.574191e-07
-1.688268e-05 -2.899556e-05 -5.631336e-07
-1.952070e-05 -2.728346e-05 -5.574191e-07
-2.050173e-06 -3.348495e-05 -5.574191e-07
4.198485e-06 -3.328390e-05 -5.574202e-07
-2.611806e-05 2.076903e-05 2.008876e-07
3.166289e-05 -1.416122e-05 7.329568e-07
-2.419871e-05 -2.319383e-05 -5.213033e-07
-8.185887e-06 -3.250419e-05 -5.213033e-07
-1.407482e-05 -3.042089e-05 -5.213033e-07
2.181311e-06 3.501856e-05 -2.131747e-22
-1.117899e-05 -3.160002e-05 -5.213033e-07
-2.693302e-05 -2.002879e-05 5.764219e-07
-2.940826e-05 1.826009e-05 7.729619e-07
-1.124841e-06 3.465427e-05 -7.410637e-07
3.217316e-05 -1.298738e-05 -7.263469e-07
2.618659e-05 2.129741e-05 -7.374189e-07
1.787039e-05 2.836439e-05 5.283701e-07
6.288308e-06 -3.305456e-05 6.588664e-07
4.592420e-08 -3.364736e-05 6.588644e-07
-9.313378e-06 -3.232054e-05 6.485387e-07
1.636445e-06 3.504825e-05 -2.131747e-22
-1.228446e-05 -3.131211e-05 6.485387e-07
-1.783090e-05 -2.853429e-05 6.588644e-07
-6.198065e-06 -3.307160e-05 6.588644e-07
-1.514866e-05 -3.003123e-05 6.485387e-07
-2.041213e-05 -2.674868e-05 6.588644e-07
-3.089512e-06 -3.350525e-05 6.588644e-07
3.180960e-06 -3.349669e-05 6.588643e-07
-2.281575e-05 -2.473032e-05 6.588645e-07
9.271827e-06 -3.233211e-05 6.482202e-07
3.209976e-05 9.847759e-06 -5.901559e-07
1.091183e-06 3.506946e-05 -2.131747e-22
2.628306e-05 2.118022e-05 7.381933e-07
1.036047e-05 -3.188435e-05 -5.295685e-07
-4.572902e-07 3.471207e-05 7.131015e-07
1.225735e-05 -3.135099e-05 6.711612e-07
1.752592e-05 2.994036e-05 -7.282530e-07
-3.261186e-05 8.299800e-06 6.623473e-07
1.590755e-05 2.982449e-05 -7.653373e-07
-2.198465e-05 2.668839e-05 -7.918194e-07
-1.375476e-05 3.172383e-05 -7.918194e-07
-3.074664e-05 1.605800e-05 -7.316965e-07
5.456576e-07 3.508219e-05 -2.131747e-22
3.459105e-05 2.112821e-06 -7.512690e-07
[...]
POINT_DATA 5300
VECTORS 10.000GHz_fone_imag double
3.329260e+10 -1.081648e+10 -4.928032e+08
3.581302e+10 -1.021867e+10 5.832682e+08
3.109755e+10 -2.266752e+10 -6.081736e+08
2.844393e+10 -2.395808e+10 -3.805929e+08
-1.024771e+10 -4.186246e+10 3.773703e+08
-1.459694e+10 4.287058e+10 -1.534382e+09
1.915592e+10 -3.857078e+10 -9.066834e+08
-1.196848e+10 4.325767e+10 6.323048e+08
1.603044e+09 -4.246567e+10 2.039519e+08
-1.839239e+10 -3.244422e+10 5.456745e+08
-1.956656e+09 -4.359330e+10 -2.441160e+08
3.400306e+10 -1.390537e+10 1.547755e+09
-3.009709e+10 -2.110402e+10 -1.113291e+09
-9.087690e+09 -3.644826e+10 -2.799533e+08
-9.975201e+09 -3.615961e+10 -3.498114e+08
-2.098972e+10 3.529000e+10 1.721736e+08
2.199615e+10 -3.823634e+10 3.086846e+08
8.652215e+09 4.368719e+10 1.430300e+09
3.509700e+10 -1.488440e+10 -1.161999e+08
1.393508e+09 4.364757e+10 3.536649e+08
3.634216e+10 -6.859474e+09 -9.237221e+08
-2.860624e+10 3.227471e+10 -4.732578e+08
3.607245e+10 -1.276506e+10 1.255196e+09
-3.631003e+09 3.678526e+10 5.774645e+08
9.928893e+09 3.657872e+10 2.850281e+08
-7.781481e+09 4.134098e+10 -7.449714e+08
2.557276e+10 -3.470602e+10 1.107694e+09
-1.137591e+10 -3.600457e+10 7.640084e+08
1.335807e+10 -3.445255e+10 -3.379694e+08
-7.888017e+09 3.643905e+10 7.454486e+08
1.508910e+10 -3.695820e+10 1.032306e+09
3.834056e+10 -3.356941e+09 -3.198033e+08
3.256963e+10 -1.791945e+10 -3.526881e+08
3.518220e+10 -9.281859e+09 -1.340256e+08
-2.446657e+10 3.065544e+10 2.167765e+08
-4.100850e+09 4.175702e+10 1.376579e+09
3.285680e+09 4.216472e+10 -3.989214e+08
1.465795e+10 3.442968e+10 2.088683e+08
-2.661512e+10 2.730931e+10 7.998367e+08
-2.862020e+10 2.453605e+10 9.370987e+07
-3.665637e+10 1.181404e+10 -2.323069e+08
-3.744005e+10 1.087905e+10 3.739003e+07
-3.589894e+10 -8.353244e+09 -5.580877e+08
-3.035699e+10 2.132575e+10 -5.369713e+08
3.335230e+10 -1.087699e+10 9.930412e+08
-3.532145e+10 -1.380406e+10 -5.167072e+07
-3.518793e+10 1.365625e+10 -1.293592e+08
-3.770346e+10 5.693147e+09 7.075047e+07
-3.172338e+10 1.999687e+10 1.341685e+08
-3.532337e+10 5.618172e+09 -4.021262e+08
-3.814310e+10 -2.554252e+09 -1.381181e+08
-3.820467e+10 1.064736e+09 -1.293717e+08
-3.774085e+10 -6.035142e+09 -1.361168e+08
-3.649299e+10 -4.956960e+09 -5.537772e+08
-3.671195e+10 -1.583368e+09 -5.675003e+08
3.382762e+10 -9.487323e+09 1.839495e+09
-3.664722e+10 3.586112e+09 9.132005e+07
-3.191945e+10 2.117189e+10 -1.436556e+08
-3.314327e+10 1.801995e+10 7.253834e+08
-3.708291e+10 -9.720771e+09 -1.481802e+08
-3.528670e+10 1.538547e+10 6.653694e+05
-3.389660e+10 1.715933e+10 6.018423e+07
-3.652934e+10 -1.042142e+10 5.197581e+07
-3.380154e+10 -1.106867e+10 6.837810e+07
-3.751389e+10 9.177102e+09 -2.846548e+08
-2.773970e+10 2.643725e+10 5.267076e+07
3.451385e+10 -8.622836e+09 4.173461e+08
-2.479720e+10 2.898910e+10 5.965609e+08
3.113134e+10 2.199534e+10 4.794606e+08
3.446955e+10 2.032184e+10 1.120665e+08
3.511237e+10 1.919531e+10 6.702803e+08
3.649013e+10 1.302056e+10 4.502251e+08
3.656996e+10 1.220100e+10 9.112652e+08
-2.804765e+10 -2.976501e+10 -6.688665e+08
2.000125e+10 -3.338387e+10 4.472720e+08
1.230094e+10 3.609012e+10 1.434511e+08
2.497707e+10 -3.400432e+10 -6.197289e+08
3.448256e+10 -9.609663e+09 1.249197e+09
2.511527e+10 2.809505e+10 -6.340569e+08
-3.026764e+10 -2.628277e+10 -5.094412e+08
1.636297e+10 3.345732e+10 7.671143e+08
1.863215e+10 3.226050e+10 -2.704577e+07
1.089806e+09 3.713018e+10 -4.848220e+07
4.746185e+09 3.715250e+10 -3.434060e+08
2.736290e+10 2.670995e+10 7.522165e+07
4.074962e+10 -6.484596e+09 2.608074e+08
-2.215630e+10 3.180297e+10 1.134274e+09
3.613368e+10 2.549155e+10 8.407846e+08
3.571028e+10 -9.391123e+09 3.807649e+08
3.751857e+10 2.197230e+10 1.089740e+09
3.751715e+10 2.051957e+10 1.176436e+09
3.983665e+10 1.400695e+10 9.864863e+08
4.144015e+10 1.363646e+10 4.025337e+08
1.334486e+10 -3.398228e+10 1.452781e+09
-1.083675e+10 -3.516344e+10 -8.512280e+08
2.381053e+10 3.536254e+10 -5.021172e+08
4.173428e+10 -1.377376e+10 -8.096693e+07
2.379294e+10 -2.874715e+10 4.740877e+08
6.921075e+08 3.749817e+10 2.306951e+08
3.508395e+10 -6.563160e+09 -5.976182e+08
-1.419414e+10 -3.398105e+10 -5.905281e+08
3.773612e+10 -3.275978e+09 1.258076e+08
-3.203723e+10 -1.791568e+10 -1.960730e+09
2.224829e+10 -2.987231e+10 -1.897784e+08
3.813747e+10 -2.326705e+10 -4.634022e+08
-2.076792e+10 3.039448e+10 7.691335e+08
3.094918e+10 2.081800e+10 4.299287e+08
4.296542e+10 -1.174384e+10 -6.569663e+08
2.798966e+10 -3.213557e+10 7.732399e+06
2.344381e+10 -2.817584e+10 1.338811e+08
3.421478e+10 -6.952952e+09 -2.965106e+08
-3.787083e+09 -3.662724e+10 8.374926e+08
-2.532362e+10 3.037174e+10 3.208464e+08
1.575664e+10 3.773038e+10 2.298606e+07
4.240466e+10 1.253238e+09 7.981340e+08
1.940782e+10 3.769979e+10 4.869795e+08
4.506549e+10 -1.067440e+09 1.498281e+09
-1.037893e+10 4.160266e+10 -7.755436e+08
-7.685941e+08 3.916214e+10 3.445727e+08
3.770339e+10 -2.069863e+10 5.210661e+08
8.363663e+09 -3.883088e+10 -3.126722e+08
3.470149e+10 -6.624824e+09 8.592591e+08
4.582066e+10 3.247089e+09 7.951501e+07
2.721284e+10 -2.516811e+10 -5.240778e+08
1.903348e+10 -3.238223e+10 1.431072e+09
-6.462376e+09 3.687165e+10 6.542799e+08
3.921775e+10 -1.803537e+10 1.448342e+09
3.955043e+10 -1.912489e+10 1.241000e+09
3.695881e+10 -1.878100e+10 7.515696e+06
5.510693e+08 -4.207033e+10 5.613100e+07
-2.004053e+10 3.678498e+10 -7.306768e+08
-2.000858e+10 3.800689e+10 4.955456e+08
3.495988e+10 -5.768348e+09 -9.216283e+07
3.602474e+10 8.632130e+09 -1.116875e+08
-1.814335e+10 3.199463e+10 2.552945e+08
2.750864e+10 2.746789e+10 7.966717e+08
-6.631121e+09 -3.705773e+10 -4.090965e+08
-3.613528e+08 -3.747092e+10 -3.204701e+08
-2.417965e+10 -3.510065e+10 -2.996411e+08
-2.059064e+10 -3.264378e+10 2.158449e+08
6.285091e+09 -3.877756e+10 -2.156888e+09
2.584042e+10 -2.864055e+10 -3.394758e+08
-7.318293e+09 -4.025468e+10 2.010057e+08
3.603678e+10 -5.753320e+09 4.831368e+08
4.958959e+09 3.644387e+10 1.240239e+09
-4.784215e+09 3.666969e+10 1.218890e+08
3.035843e+10 -2.265686e+10 2.419246e+09
5.546022e+09 3.576219e+10 4.268067e+08
-3.348278e+10 -1.628597e+10 5.334976e+08
4.028969e+10 -1.566202e+10 1.454921e+09
-1.287212e+10 -3.547272e+10 3.618092e+08
-3.818566e+10 -1.638148e+10 2.843625e+08
3.759144e+10 3.342644e+09 1.345101e+08
-4.089713e+10 -1.739957e+10 1.474723e+09
3.481362e+10 -5.569009e+09 3.173219e+08
1.717277e+10 -3.258319e+10 1.054398e+09
1.038890e+09 4.266721e+10 -2.816672e+08
2.659824e+10 -2.565161e+10 1.441060e+08
1.178632e+10 3.905015e+10 7.097917e+08
-4.474806e+09 4.291330e+10 -2.059628e+09
3.493704e+10 -1.093058e+10 -1.216160e+08
7.338369e+09 -4.104156e+10 -5.077288e+08
-1.486245e+10 3.474446e+10 -2.027708e+08
3.215677e+10 -2.618031e+10 2.614007e+08
2.469750e+10 2.951524e+10 1.134592e+09
3.530253e+10 -4.307760e+09 2.087484e+08
1.273505e+10 3.805275e+10 2.996105e+08
4.307625e+10 5.196518e+09 3.584169e+08
4.430545e+10 -2.645676e+09 9.957854e+08
-2.172000e+10 3.364169e+10 4.329427e+08
-3.762391e+10 -2.186341e+10 -3.621936e+07
1.584616e+10 -3.882295e+10 3.173726e+08
-1.279610e+10 -4.117304e+10 6.476047e+07
-1.455401e+10 3.753229e+10 -4.306216e+08
-3.259475e+10 -3.142371e+10 7.316190e+08
3.974909e+10 -1.507511e+10 3.255860e+08
3.663453e+10 -4.227272e+09 3.494860e+08
3.688921e+10 -2.446534e+10 -5.171786e+08
9.337582e+09 -3.905927e+10 2.097741e+07
2.096421e+10 3.156581e+10 -2.514246e+08
1.241130e+10 3.367614e+10 -1.518075e+08
2.337334e+10 3.553591e+10 5.755889e+07
3.448165e+10 -2.400414e+10 2.306123e+08
-2.398652e+10 -3.101297e+10 1.512019e+09
3.419703e+10 -1.650508e+10 -6.040366e+08
3.538567e+10 7.269132e+09 5.546048e+08
-9.732226e+09 3.425661e+10 1.099636e+09
3.575022e+10 -3.623899e+09 -2.693303e+08
-1.685786e+10 -3.292695e+10 -4.214257e+08
-2.074098e+10 -3.612071e+10 1.880690e+08
-3.035417e+10 -3.069735e+10 -4.430532e+08
-2.286250e+10 -3.651104e+10 -9.792009e+08
2.095546e+10 -3.333993e+10 -1.356772e+07
-5.064228e+09 -3.703326e+10 -6.505639e+08
-2.794166e+10 -3.063773e+10 -4.603826e+07
-3.988220e+10 -9.474544e+09 -6.378133e+08
-4.102302e+10 -1.878262e+09 -5.854402e+08
-4.104836e+10 7.001155e+09 8.489697e+08
3.681589e+10 -2.118504e+09 -5.810721e+08
-3.180535e+10 2.703934e+10 -4.815260e+08
-3.753185e+10 1.967528e+10 2.577135e+08
-3.361858e+10 2.345414e+10 -4.958844e+08
-4.117780e+10 2.128106e+09 -3.912267e+08
-4.072396e+10 -5.686858e+09 -5.663365e+08
2.601400e+10 3.319864e+10 1.828944e+08
-1.463299e+10 -3.300657e+10 1.153901e+09
-3.003748e+10 3.087839e+10 1.020902e+08
-3.887332e+10 1.059758e+10 8.199121e+08
-4.016595e+10 1.815731e+10 -1.551149e+08
3.546399e+10 -1.453681e+09 7.690753e+07
-4.176272e+10 1.436438e+10 -1.499630e+08
-2.534558e+10 3.300065e+10 3.684848e+08
2.057425e+10 3.172736e+10 3.907806e+08
3.781214e+10 2.244985e+09 5.163599e+08
-1.341414e+10 -3.431720e+10 -4.134758e+08
2.596524e+10 -3.238921e+10 5.044931e+07
3.600720e+10 -2.015233e+10 -3.093129e+08
-4.010760e+10 -6.886555e+09 7.092220e+08
-4.072129e+10 6.423666e+08 7.336747e+08
-4.105161e+10 1.273609e+10 4.033766e+08
3.624230e+10 -3.578266e+09 -4.907617e+08
-3.819713e+10 1.632582e+10 -3.690043e+07
-3.494550e+10 2.177933e+10 1.441116e+09
-3.982419e+10 9.345186e+09 -2.078592e+08
-3.678271e+10 2.002872e+10 7.900243e+07
-3.216607e+10 2.548809e+10 7.094212e+08
-4.187162e+10 4.833302e+09 6.737197e+08
-4.054802e+10 -3.104077e+09 7.002401e+08
-2.872098e+10 2.912502e+10 7.903327e+08
-3.849286e+10 -1.116139e+10 1.016842e+08
1.317830e+10 -4.054496e+10 1.313047e+08
3.948975e+10 -9.138646e+08 -1.934142e+09
2.582041e+10 -3.156295e+10 -1.434762e+09
-3.977549e+10 -1.300440e+10 2.371663e+08
3.742641e+10 6.795568e+08 5.984296e+08
-3.851146e+10 -1.512961e+10 1.679143e+08
3.142633e+10 -1.766520e+10 -5.824245e+08
9.811210e+09 4.023925e+10 -2.968213e+08
3.634673e+10 -1.888356e+10 -4.160767e+08
2.830963e+10 2.421869e+10 -6.806069e+07
3.397700e+10 1.498597e+10 4.149196e+07
1.669127e+10 3.338039e+10 6.260773e+08
3.599740e+10 -2.667610e+08 -3.233394e+08
1.292263e+09 -3.649992e+10 6.671090e+08
2.020555e+10 3.568590e+10 -1.854380e+08
2.169172e+10 3.662034e+10 8.069285e+08
-5.003683e+09 4.081966e+10 -3.688485e+08
2.208023e+10 -2.936250e+10 1.637694e+09
2.899507e+10 3.048285e+10 -1.197974e+09
2.689860e+10 -2.525742e+10 2.832683e+08
-2.024029e+10 3.112668e+10 -5.167402e+08
-9.496582e+09 3.657734e+10 3.551982e+08
-5.952683e+09 -4.497905e+10 9.833194e+08
3.619700e+10 -4.266354e+07 2.682651e+08
-1.597314e+10 -3.468187e+10 1.790418e+07
-1.815438e+10 -3.730031e+10 -1.643505e+09
3.152513e+10 2.758592e+10 7.757051e+08
2.858662e+10 2.879886e+10 -6.167611e+08
-4.123769e+10 -6.174766e+09 1.070272e+08
-4.171406e+10 1.599592e+09 1.299633e+08
-4.083432e+10 7.890540e+09 9.116106e+08
-3.268746e+10 2.627805e+10 6.188684e+08
-3.419986e+10 2.296539e+10 -3.848977e+08
-2.982260e+10 2.769800e+10 4.432002e+08
3.598577e+10 6.061141e+08 6.730731e+08
-4.158146e+10 4.388713e+09 1.209592e+09
-4.165921e+10 -2.299710e+09 1.159248e+08
-4.068799e+10 -1.199725e+10 -9.892713e+08
-3.522109e+10 -2.237618e+10 2.874521e+08
-3.911970e+10 -1.402552e+10 1.118763e+09
4.090380e+10 4.966938e+09 -3.940757e+08
4.137104e+10 -2.990441e+09 -1.079459e+08
-1.839651e+10 -3.359265e+10 -6.028690e+08
-1.606260e+10 3.909943e+10 -6.958738e+08
8.064169e+09 3.744886e+10 -3.094106e+08
3.726455e+10 1.205607e+09 4.921706e+08
3.034732e+10 -2.193062e+10 -3.017391e+08
-1.679955e+10 4.000451e+10 -4.601339e+08
-3.328188e+09 -4.118597e+10 -3.909357e+08
3.035149e+10 -3.039826e+10 -5.457005e+08
-2.095778e+10 3.633336e+10 -7.487410e+07
-1.227727e+10 3.482756e+10 -4.108401e+08
3.289397e+10 2.590493e+10 -6.728274e+08
3.466130e+10 2.302722e+10 -1.644823e+09
3.836642e+10 1.683842e+10 -9.330812e+08
3.835024e+10 1.756867e+10 1.927744e+09
3.765029e+10 1.167434e+09 -1.088522e+09
2.267635e+10 3.025425e+10 -4.663179e+08
4.017240e+10 9.506974e+09 1.185646e+09
1.500507e+10 -3.864225e+10 8.335556e+08
-1.198970e+10 -3.970967e+10 2.447152e+08
-2.623153e+10 -2.667733e+10 7.527708e+08
-2.305978e+10 2.929027e+10 4.446739e+08
3.331723e+10 -1.255386e+10 9.184255e+08
-1.586050e+10 3.722403e+10 4.670836e+06
-2.241201e+10 3.431387e+10 4.266336e+08
1.307381e+10 -3.367289e+10 1.281345e+06
3.514796e+10 3.706634e+09 -1.058051e+09
-1.059933e+10 -3.380207e+10 -5.054780e+08
-2.105511e+10 -3.158622e+10 6.663382e+08
3.004396e+10 -2.821765e+10 -1.353441e+08
-1.017078e+10 3.527077e+10 1.080461e+08
9.875835e+09 3.421436e+10 8.093359e+07
-7.759336e+09 -4.056573e+10 9.957001e+08
-2.980179e+10 -1.964006e+10 5.025901e+08
4.552971e+10 -4.025018e+08 1.089807e+09
-1.200481e+10 4.111715e+10 2.515347e+08
-1.333993e+10 4.041422e+10 2.931039e+08
3.561228e+10 1.695990e+09 -2.080829e+07
-2.036227e+10 -2.976889e+10 -7.785786e+08
-3.089423e+10 -2.198554e+10 4.003930e+07
-3.003093e+10 -2.326838e+10 5.707071e+07
3.586651e+10 8.582084e+09 -5.593769e+08
5.052723e+09 -3.560773e+10 -3.017046e+08
-1.570807e+10 3.305986e+10 6.924010e+08
2.211401e+10 3.554836e+10 4.090515e+07
1.546358e+10 3.277351e+10 -8.446747e+08
2.009742e+08 -3.616897e+10 3.262985e+08
3.732810e+10 4.134308e+09 8.599637e+08
3.663060e+10 4.090110e+09 -1.730212e+08
7.932338e+09 3.616374e+10 9.467129e+08
-1.187693e+10 -3.922600e+10 1.242478e+09
1.510288e+10 -3.857156e+10 -1.143496e+09
1.385384e+10 3.852900e+10 -2.988940e+08
-9.648968e+09 3.860701e+10 -2.502231e+08
-2.400414e+10 3.241164e+10 -1.199120e+09
-8.275465e+08 3.550280e+10 -4.548468e+08
-2.815740e+10 3.107645e+10 2.033175e+08
-4.051244e+10 1.106420e+10 1.078685e+09
-4.096797e+10 1.484477e+10 -1.685525e+08
3.546324e+10 4.111833e+09 -8.547464e+08
-3.945139e+10 1.863032e+10 -1.497205e+08
2.240459e+10 3.164957e+10 2.688792e+08
7.942159e+08 3.823125e+10 4.174971e+08
2.352472e+10 -3.420938e+10 -4.152933e+08
-2.905585e+10 -3.401360e+10 1.995081e+09
3.983189e+10 -3.313200e+09 7.996229e+08
-4.004804e+10 -1.205152e+10 1.677885e+09
1.656619e+10 -3.315587e+10 4.822803e+08
-2.126321e+10 -3.065652e+10 2.511183e+08
-2.832033e+10 -2.453724e+10 -1.135567e+09
3.514085e+10 3.929456e+09 -6.031552e+08
-2.742473e+10 -2.429157e+10 1.952641e+08
3.437765e+10 1.452390e+10 9.956512e+07
3.040792e+10 2.191514e+10 -3.173304e+08
3.527263e+10 1.119058e+10 -2.207170e+08
3.267024e+10 1.804585e+10 -1.061085e+08
2.821016e+10 2.383130e+10 -4.313932e+06
-1.180690e+10 -3.482049e+10 1.966567e+07
3.532156e+10 -1.004960e+10 5.553086e+08
-4.235083e+10 -4.870205e+09 1.255542e+08
-4.312136e+10 3.312641e+09 1.225613e+08
3.467129e+10 6.119360e+09 -2.070584e+08
-3.443645e+10 2.525265e+10 1.850614e+08
-3.392774e+10 2.289995e+10 6.494106e+08
-3.206031e+10 2.725209e+10 -2.693955e+08
-4.182500e+10 7.211493e+09 9.289392e+07
-4.257648e+10 -8.618019e+08 7.683594e+07
-4.170398e+10 -8.783491e+09 1.013636e+08
3.681565e+10 1.007667e+10 -7.724595e+08
3.329983e+10 1.648523e+10 -3.064487e+08
2.911090e+10 2.228669e+10 -9.223701e+08
3.034201e+10 2.018822e+10 1.757745e+09
3.556496e+10 5.138831e+09 -4.750777e+08
3.369032e+10 1.277135e+10 -1.353070e+08
3.572175e+10 -5.473498e+09 5.669397e+08
-1.409044e+10 -3.828916e+10 -6.704766e+08
-2.579207e+10 -3.347166e+10 1.819963e+09
3.293418e+10 2.824553e+10 2.382325e+08
2.517151e+10 2.594357e+10 -1.198312e+08
-3.194359e+10 -1.775375e+10 1.355154e+09
1.517580e+10 3.873465e+10 8.365004e+08
-3.870544e+09 3.839519e+10 -9.321099e+08
3.213386e+09 -4.119597e+10 -5.253089e+08
3.581320e+10 5.115931e+09 -7.146256e+08
2.204418e+10 -3.484483e+10 -8.849394e+08
2.756718e+10 3.009772e+10 -1.321831e+09
-2.987999e+10 -2.529306e+10 8.213541e+08
-2.381919e+10 -3.395048e+10 -5.009150e+08
-3.216826e+10 -1.965062e+10 4.731154e+07
-1.186334e+10 -4.084380e+10 6.135042e+08
2.900450e+10 -2.295137e+10 1.971104e+08
1.601408e+10 -3.792791e+10 1.999626e+08
4.030945e+10 -9.904645e+09 1.237555e+09
2.093110e+10 3.106755e+10 5.741021e+06
3.388827e+10 8.022989e+09 5.373717e+08
3.833089e+10 -9.720157e+09 -5.762209e+07
1.814423e+10 -3.895828e+10 -6.677135e+08
4.040680e+10 5.939529e+09 8.440250e+07
-1.385891e+10 -3.880185e+10 -1.647802e+09
2.507687e+10 -3.268577e+10 -1.750835e+08
3.744334e+09 -3.707616e+10 4.966477e+07
-3.171882e+10 -1.982468e+10 7.155692e+07
1.271321e+10 -3.941872e+10 9.057338e+08
3.315723e+10 -2.131118e+10 -3.464886e+07
1.160999e+10 4.068578e+10 -6.863775e+08
3.448392e+10 5.489032e+09 -6.489768e+08
3.432541e+10 -1.389494e+10 -1.135967e+09
6.684837e+09 4.193719e+10 1.678487e+07
1.412874e+10 4.178280e+10 6.687576e+08
-3.197175e+10 -2.349813e+10 -1.666701e+09
3.772390e+10 -5.508898e+09 -1.744354e+08
1.726243e+10 -3.241450e+10 3.644042e+07
1.266677e+10 -3.567963e+10 -3.957022e+08
3.996676e+10 -1.975105e+10 5.745506e+08
-1.793973e+10 3.201529e+10 3.873395e+08
1.140310e+09 4.338717e+10 -3.456859e+08
3.515526e+10 7.856056e+09 2.223039e+08
-1.227095e+10 -3.409450e+10 -1.036055e+08
2.980180e+10 3.156484e+10 2.783317e+08
3.968851e+10 -7.799798e+09 3.600017e+08
6.305626e+09 -3.634083e+10 8.365028e+08
5.664990e+09 -3.670529e+10 -1.891086e+08
2.153125e+10 -3.748828e+10 -6.346791e+08
-3.235114e+10 1.814774e+10 4.041799e+08
-3.045669e+10 2.116105e+10 -3.241675e+08
-2.854727e+10 2.462554e+10 -2.256011e+08
-3.493287e+10 1.621197e+10 4.338950e+08
3.523426e+10 8.018980e+09 -1.879837e+08
-3.692956e+10 1.282186e+10 6.618635e+08
-3.787719e+10 5.210772e+09 4.565184e+08
-3.704553e+10 1.798898e+09 -3.298373e+08
-3.709809e+10 -1.750803e+09 -2.968246e+08
-3.677332e+10 -5.156530e+09 -3.141987e+08
-2.830199e+10 -3.098387e+10 -1.230531e+09
-3.600066e+10 -8.453888e+09 -4.678217e+08
3.004987e+10 -2.033518e+10 4.527469e+08
6.408863e+09 -4.175381e+10 2.235598e+08
-5.801685e+09 3.661925e+10 7.400029e+08
3.648956e+10 9.941145e+09 1.105531e+09
4.550264e+10 9.764134e+09 -3.333803e+08
-3.484157e+10 8.934233e+09 8.709402e+08
-2.791423e+10 2.947554e+10 1.230429e+09
2.588670e+10 2.699629e+10 -3.239239e+08
-2.431237e+10 -2.596608e+10 5.972036e+08
-3.845671e+09 -3.697257e+10 -1.256786e+09
-2.865299e+10 -2.767189e+10 1.216032e+09
7.386785e+09 -3.677071e+10 -6.639643e+08
1.027201e+10 -3.580824e+10 -9.827350e+08
-1.583256e+10 3.346892e+10 -1.292667e+09
3.436536e+10 9.407877e+09 1.519661e+09
1.995365e+10 3.881220e+10 1.635856e+08
1.903276e+10 3.139219e+10 5.714715e+08
-1.792178e+09 4.138925e+10 -3.489876e+08
-2.350773e+10 3.526144e+10 5.760844e+07
2.862712e+10 -2.871635e+10 -4.464607e+08
1.078062e+10 -3.495713e+10 -6.248539e+08
3.990562e+10 -7.757431e+09 -6.459175e+08
2.728389e+10 -3.257518e+10 9.129811e+08
8.325246e+09 -3.627654e+10 -1.197289e+09
2.965258e+10 -1.901484e+10 5.456062e+08
3.384953e+10 9.762382e+09 1.350830e+09
3.429022e+10 -1.088208e+10 -9.556428e+06
1.659662e+10 -3.249072e+10 -1.626788e+08
6.546074e+09 -3.664860e+10 -4.719421e+08
3.197444e+10 -2.670763e+10 1.002159e+08
2.117074e+10 3.857042e+10 9.667138e+08
-1.136397e+10 3.633679e+10 -1.060926e+09
4.041396e+10 -7.387101e+09 3.682610e+08
-2.367157e+10 3.150437e+10 2.210136e+08
-6.302043e+09 -3.762115e+10 1.041183e+08
-5.038104e+09 -3.609810e+10 5.563411e+08
3.529198e+10 1.058002e+10 -6.047151e+08
1.002729e+10 -3.642310e+10 7.298601e+08
-3.294862e+10 -2.653854e+10 9.937953e+06
-3.242346e+10 -1.505218e+10 -4.778362e+08
1.417750e+10 3.309056e+10 -6.433462e+08
-3.336714e+10 -1.344897e+10 2.734229e+08
-2.255719e+09 -4.199897e+10 8.865484e+08
1.388793e+10 3.924752e+10 1.053178e+09
-5.121861e+09 -4.171669e+10 -9.948456e+08
-3.509310e+10 -1.969742e+10 9.076280e+08
-9.496990e+08 3.692390e+10 -6.219319e+08
3.474370e+10 1.042823e+10 -4.104370e+08
5.113640e+09 -4.125636e+10 1.345219e+08
-1.361199e+09 -3.751292e+10 9.841211e+08
2.312093e+10 -2.788915e+10 -5.831091e+08
-1.167490e+10 3.440737e+10 -2.566540e+08
-3.229426e+10 -1.771543e+10 6.017957e+08
1.224532e+10 -3.454532e+10 1.437892e+09
3.562547e+10 4.730335e+09 2.173548e+08
3.806722e+10 -1.051306e+10 -4.806941e+08
2.530289e+10 -2.673991e+10 1.092289e+08
-2.026610e+10 3.529134e+10 -4.470426e+08
3.501582e+10 1.318699e+10 -4.732108e+08
-7.032715e+09 -3.441069e+10 8.175230e+08
1.622814e+10 3.793431e+10 -7.986416e+08
-2.107731e+10 -2.969154e+10 1.044992e+09
3.559879e+10 2.393057e+09 2.367583e+08
-3.339385e+10 -1.506200e+10 4.887330e+08
-3.263306e+10 1.774713e+10 -5.766638e+08
-2.831136e+10 -3.297750e+10 6.343531e+08
1.305088e+10 3.451858e+10 -8.770123e+08