# vtk DataFile Version 2.0
Electric current density generated by TTH
ASCII
DATASET UNSTRUCTURED_GRID
POINTS 3534 double
3.142462e-05 -7.696813e-21 -2.726224e-22
3.079935e-05 6.237522e-06 -2.726224e-22
-1.844270e-05 2.544354e-05 -2.726224e-22
-1.579522e-06 3.097621e-05 -8.614151e-07
-6.294793e-06 3.037098e-05 -8.614057e-07
-8.864716e-06 -2.971582e-05 -8.667500e-07
-2.989172e-05 7.792091e-07 1.034928e-06
-6.940969e-06 -3.016676e-05 9.082532e-07
-1.982348e-05 2.385986e-05 8.581949e-07
8.673779e-06 2.973652e-05 8.931983e-07
4.803798e-06 -2.932528e-05 -9.404166e-07
2.792301e-05 -8.819167e-06 4.245063e-07
2.792301e-05 8.819167e-06 4.245063e-07
-1.900300e-05 2.502784e-05 -2.726224e-22
2.900953e-05 -4.484445e-06 5.676098e-07
2.900953e-05 4.484445e-06 5.676098e-07
-2.271241e-06 -3.093028e-05 -8.637736e-07
2.849454e-05 1.081873e-05 1.100363e-06
2.849454e-05 -1.081873e-05 1.100363e-06
-5.762858e-06 -3.047694e-05 -8.609681e-07
-2.846460e-05 -8.551519e-06 -9.437365e-07
-2.866927e-05 -7.600386e-06 -9.021599e-07
3.167247e-07 -2.975480e-05 -9.647830e-07
-2.661534e-05 -1.320895e-05 -9.383216e-07
-1.955394e-05 2.459980e-05 -2.726224e-22
-1.166354e-05 2.721417e-05 -8.627274e-07
-2.264210e-05 1.909717e-05 -8.724566e-07
2.971431e-05 -8.900261e-06 -8.596381e-07
2.971431e-05 8.900261e-06 -8.596381e-07
-2.922228e-05 4.924778e-06 8.833549e-07
-2.954409e-05 -9.310848e-06 8.926007e-07
-1.218465e-05 -2.848326e-05 -8.899807e-07
-2.457295e-05 1.593260e-05 -4.329143e-07
-2.642201e-05 1.264945e-05 -4.508214e-07
-1.846123e-06 2.922788e-05 -4.328938e-07
-2.009525e-05 2.415964e-05 -2.726224e-22
-5.584331e-06 2.875679e-05 -4.510801e-07
-1.740594e-05 -2.566450e-05 -8.664877e-07
-2.935067e-05 2.128190e-06 6.765777e-07
-1.583728e-05 -2.664340e-05 8.785316e-07
2.760958e-05 9.929827e-06 5.448029e-07
2.760958e-05 -9.929827e-06 5.448029e-07
3.724234e-06 -3.077560e-05 -8.745288e-07
-1.415381e-05 2.561906e-05 -3.894894e-07
-2.823897e-05 7.695916e-06 -3.894893e-07
-2.607260e-05 -1.408716e-05 -8.837844e-07
-2.062664e-05 2.370756e-05 -2.726224e-22
-1.398763e-05 -2.605872e-05 -8.349472e-07
-1.467079e-06 -2.962143e-05 -9.007984e-07
-1.508102e-05 -2.715096e-05 -8.254936e-07
-1.620425e-05 -2.465343e-05 -7.639149e-07
-3.721885e-06 2.899380e-05 -2.698965e-07
-2.550255e-05 1.428676e-05 -2.698145e-07
-7.358990e-06 -3.016759e-05 -8.308980e-07
2.964784e-05 -4.250710e-06 -1.053053e-06
2.964784e-05 4.250710e-06 -1.053053e-06
-5.057241e-06 2.910257e-05 8.010127e-07
-2.114787e-05 2.324380e-05 -2.726224e-22
-2.638588e-05 1.327878e-05 8.011014e-07
-2.510429e-05 1.556649e-05 8.011014e-07
-2.794777e-05 -9.336276e-06 7.238128e-07
-2.457258e-06 2.943625e-05 8.009354e-07
-2.795091e-05 -1.341241e-05 -8.727598e-07
-2.829904e-05 -1.244475e-05 -9.356013e-07
-1.370975e-05 2.615574e-05 7.934987e-07
-2.865545e-05 7.137571e-06 7.934987e-07
1.035070e-05 -2.929817e-05 -8.120413e-07
1.662776e-06 -2.938159e-05 -6.777203e-07
-2.165868e-05 2.276859e-05 -2.726224e-22
-1.859048e-05 -2.265970e-05 4.852953e-07
2.686083e-05 1.154820e-05 -2.942035e-07
2.686083e-05 -1.154820e-05 -2.942035e-07
-2.918262e-05 3.848808e-06 6.863959e-07
1.948029e-06 2.958860e-05 8.970836e-07
-2.936886e-05 1.017464e-05 8.039049e-07
-2.743984e-05 1.459807e-05 8.039827e-07
-4.625994e-06 3.073532e-05 8.038021e-07
-2.727023e-05 -1.044285e-05 -7.967228e-08
1.778197e-05 -2.535305e-05 -8.993772e-07
-2.215881e-05 2.228215e-05 -2.726224e-22
1.778197e-05 2.535305e-05 -8.993772e-07
-3.057258e-05 -5.109426e-06 8.772882e-07
6.587487e-06 -3.028891e-05 8.769824e-07
1.438558e-05 2.579032e-05 -7.935948e-07
1.438558e-05 -2.579032e-05 -7.935948e-07
-2.963246e-05 -2.285879e-06 -9.431666e-07
-3.087857e-05 -3.354992e-06 -8.235885e-07
-4.300363e-06 -2.942236e-05 9.520793e-07
1.501086e-05 2.552877e-05 8.681149e-07
1.501086e-05 -2.552877e-05 8.681149e-07
-2.264802e-05 2.178472e-05 -2.726224e-22
3.109718e-06 2.944149e-05 8.602660e-07
2.549577e-05 -1.777969e-05 8.023834e-07
2.549577e-05 1.777969e-05 8.023834e-07
-8.024634e-06 3.001724e-05 8.133964e-07
-2.936603e-05 -5.099073e-06 9.913424e-07
-3.077280e-05 -3.972667e-06 8.516931e-07
2.032616e-05 2.350655e-05 8.091426e-07
2.032616e-05 -2.350655e-05 8.091426e-07
1.282119e-05 -2.675979e-05 -9.114741e-07
1.282119e-05 2.675979e-05 -9.114741e-07
-2.312606e-05 2.127656e-05 -2.726224e-22
-1.504071e-05 -2.536176e-05 -7.469035e-07
-8.067202e-06 -2.848069e-05 -8.568954e-07
-1.160759e-05 2.879654e-05 8.346283e-07
1.285221e-05 2.821775e-05 8.692372e-07
1.285221e-05 -2.821775e-05 8.692372e-07
1.637996e-05 -2.441982e-05 6.452436e-07
1.637996e-05 2.441982e-05 6.452436e-07
1.094606e-05 2.901174e-05 8.682477e-07
-2.161966e-05 2.222815e-05 8.682069e-07
2.245153e-05 1.881764e-05 -4.524951e-07
3.065329e-05 6.919738e-06 -2.726224e-22
-2.359271e-05 2.075792e-05 -2.726224e-22
2.245153e-05 -1.881764e-05 -4.524951e-07
-2.671935e-05 -1.303062e-05 9.474799e-07
-3.096743e-05 2.154944e-06 8.395873e-07
2.923004e-05 -5.242290e-06 -9.276395e-07
2.923004e-05 5.242290e-06 -9.276395e-07
-2.950643e-05 -3.377088e-06 9.293884e-07
-2.111422e-05 2.080681e-05 -8.902402e-07
7.955156e-07 -3.106530e-05 -8.095261e-07
9.735349e-06 -2.817440e-05 9.931276e-07
-2.480010e-05 -1.874736e-05 -7.968317e-07
-2.404772e-05 2.022904e-05 -2.726224e-22
2.765063e-05 -1.404968e-05 -8.623269e-07
2.765063e-05 1.404968e-05 -8.623269e-07
-1.810630e-05 -2.523911e-05 8.219981e-07
2.581975e-05 1.379567e-05 4.035347e-07
2.581975e-05 -1.379567e-05 4.035347e-07
-1.777850e-05 2.416283e-05 1.068171e-06
-2.975083e-05 -5.566863e-06 -1.112180e-06
-1.864304e-05 2.323244e-05 9.820999e-07
2.014852e-05 -2.170962e-05 -8.711650e-07
2.014852e-05 2.170962e-05 -8.711650e-07
-2.449089e-05 1.969018e-05 -2.726224e-22
2.401671e-05 1.708657e-05 -7.337964e-07
2.401671e-05 -1.708657e-05 -7.337964e-07
2.930176e-06 3.096134e-05 7.859779e-07
2.592553e-05 1.488433e-05 -1.031945e-06
2.592553e-05 -1.488433e-05 -1.031945e-06
-1.943567e-05 -2.423229e-05 8.205465e-07
1.899836e-05 2.319720e-05 1.063814e-06
1.899836e-05 -2.319720e-05 1.063814e-06
-2.455037e-05 -1.638370e-05 7.776260e-07
-2.915733e-05 2.250273e-06 -3.151385e-07
-2.492198e-05 1.914163e-05 -2.726224e-22
8.586799e-06 2.836295e-05 -8.832903e-07
-2.932132e-05 1.030005e-05 -8.073156e-07
2.494724e-05 -1.852346e-05 -8.125825e-07
2.494724e-05 1.852346e-05 -8.125825e-07
-2.122612e-05 -2.266909e-05 8.280457e-07
-2.859543e-05 -1.220395e-05 7.948386e-07
-3.077827e-05 3.946367e-06 8.499469e-07
-9.992568e-06 -2.791058e-05 8.917409e-07
2.155128e-05 -2.046100e-05 -9.410729e-07
2.155128e-05 2.046100e-05 -9.410729e-07
-2.534079e-05 1.858364e-05 -2.726224e-22
-2.961208e-05 -1.676582e-06 9.020749e-07
7.136380e-06 -2.896503e-05 -1.004082e-06
2.978659e-05 -8.651341e-06 8.605441e-07
2.978659e-05 8.651341e-06 8.605441e-07
1.747712e-05 -2.413816e-05 9.890688e-07
1.747712e-05 2.413816e-05 9.890688e-07
2.999781e-05 -2.375788e-06 -1.091144e-06
2.999781e-05 2.375788e-06 -1.091144e-06
-2.342853e-05 -1.743462e-05 1.085569e-07
-3.399384e-06 -3.085452e-05 8.405376e-07
-2.574710e-05 1.801648e-05 -2.726224e-22
3.012302e-05 2.409661e-06 1.109231e-06
3.012302e-05 -2.409661e-06 1.109231e-06
-1.131716e-05 -2.895842e-05 7.943182e-07
1.116418e-05 -2.900371e-05 8.069592e-07
-2.887824e-05 -4.534719e-06 -2.715006e-07
2.313419e-05 -1.843467e-05 8.396512e-07
2.313419e-05 1.843467e-05 8.396512e-07
-4.664435e-06 -2.887563e-05 -3.344764e-07
5.924759e-06 -2.865242e-05 3.607457e-07
5.035299e-06 2.923821e-05 9.085982e-07
-2.614073e-05 1.744045e-05 -2.726224e-22
6.156944e-06 -3.043804e-05 -8.288207e-07
7.197455e-06 2.832032e-05 -2.207670e-07
5.975376e-06 -2.891256e-05 -7.861196e-07
4.293129e-06 -3.074249e-05 8.409010e-07
-1.097101e-05 -2.793237e-05 1.071345e-06
-7.657690e-06 2.818683e-05 -1.490813e-07
9.551529e-06 2.828406e-05 1.014356e-06
-2.670580e-05 -1.221989e-05 -5.916892e-07
-9.936981e-06 -2.837365e-05 -1.085048e-06
1.163740e-05 -2.684518e-05 -3.621728e-07
-2.652147e-05 1.685582e-05 -2.726224e-22
1.161785e-05 2.684921e-05 -3.501214e-07
-1.257932e-05 -2.635450e-05 9.695586e-08
-2.919132e-05 6.517099e-07 1.468552e-08
2.922055e-05 -6.875222e-06 1.073789e-06
2.922055e-05 6.875222e-06 1.073789e-06
-9.395854e-07 -2.918412e-05 4.075113e-08
1.518343e-05 -2.497390e-05 -2.513978e-07
1.518343e-05 2.497390e-05 -2.513978e-07
4.607992e-06 -3.074392e-05 -7.981751e-07
1.051832e-05 2.724714e-05 1.363415e-07
-2.688913e-05 1.626289e-05 -2.726224e-22
-2.804399e-05 -8.453525e-06 4.428798e-07
-2.009957e-05 2.126015e-05 -3.568604e-07
-2.966910e-05 -8.079534e-07 9.166114e-07
-2.904891e-05 3.997121e-06 -5.108020e-07
-9.886171e-06 2.945978e-05 8.105933e-07
2.690924e-05 1.559509e-05 -7.839892e-07
2.690924e-05 -1.559509e-05 -7.839892e-07
1.375561e-06 3.105212e-05 -8.027757e-07
-2.411888e-05 1.960635e-05 -8.027347e-07
-1.780701e-05 2.547755e-05 -8.017125e-07
-2.724355e-05 1.566193e-05 -2.726224e-22
-9.172911e-06 2.969826e-05 -8.027340e-07
-2.919337e-05 -5.913862e-07 4.403033e-08
-2.004009e-05 2.212874e-05 1.014861e-06
-5.374437e-06 -3.065256e-05 7.649056e-07
-2.533342e-05 -1.484745e-05 -5.835626e-07
8.613694e-06 -2.839519e-05 9.116245e-07
-1.540841e-05 -2.602677e-05 1.111125e-06
1.671708e-05 -2.405309e-05 -4.461933e-07
1.671708e-05 2.405309e-05 -4.461933e-07
-7.091105e-06 -2.921283e-05 -1.084533e-06
3.049211e-05 7.598543e-06 -2.726224e-22
-2.758453e-05 1.505326e-05 -2.726224e-22
2.781815e-06 -3.094240e-05 8.172697e-07
-2.715187e-05 1.284748e-05 1.078928e-06
-5.859593e-06 2.946048e-05 1.078814e-06
-2.879896e-05 8.258013e-06 1.055940e-06
-2.513649e-05 1.644423e-05 1.078817e-06
-1.770751e-06 2.998546e-05 1.078848e-06
-6.260187e-06 -2.898580e-05 -8.981526e-07
-3.108765e-05 -8.970166e-07 7.850732e-07
-2.913808e-05 -1.090657e-05 7.730358e-07
-1.491474e-05 2.606862e-05 1.077824e-06
-2.791192e-05 1.443717e-05 -2.726224e-22
-2.999726e-06 -3.090206e-05 -8.352133e-07
4.693014e-06 -2.882424e-05 1.084711e-07
1.027556e-07 2.986747e-05 -1.020715e-06
3.029808e-05 -7.176159e-06 7.474460e-07
3.029808e-05 7.176159e-06 7.474460e-07
-7.625714e-06 2.887954e-05 -1.021462e-06
-1.615883e-05 2.510575e-05 -1.015762e-06
[...]
POINT_DATA 3534
VECTORS 10.000GHz_fone_imag double
6.220333e-05 1.370975e-05 1.764696e-02
-3.129480e-04 3.136255e-04 1.753265e-02
2.381188e-04 -3.877490e-04 1.789283e-02
-9.323514e-04 1.469131e-02 1.108511e-02
-2.979808e-03 1.436068e-02 1.113821e-02
-4.118793e-03 -1.434198e-02 1.117181e-02
1.934424e-02 -1.374147e-04 -8.620780e-03
3.441151e-03 1.506683e-02 1.037755e-02
9.416415e-03 -1.130534e-02 1.123955e-02
-4.506622e-03 -1.462930e-02 1.063429e-02
3.170361e-03 -1.786250e-02 -1.253874e-02
-8.300908e-03 2.724867e-03 -2.110292e-02
-8.304673e-03 -2.721475e-03 -2.110503e-02
2.382032e-04 -1.137497e-04 1.798767e-02
-1.142112e-02 1.526588e-03 -1.972255e-02
-1.142016e-02 -1.524940e-03 -1.972401e-02
-7.480513e-04 -1.479535e-02 1.120533e-02
-1.864927e-02 -7.020109e-03 2.166809e-03
-1.863618e-02 7.023385e-03 2.164560e-03
-2.841403e-03 -1.464542e-02 1.135576e-02
-1.763206e-02 -5.230245e-03 -1.216959e-02
-1.703134e-02 -4.678707e-03 -1.331252e-02
2.337442e-05 -1.853291e-02 -1.146766e-02
-1.610688e-02 -8.036456e-03 -1.237054e-02
1.913560e-04 2.884335e-04 1.777140e-02
-6.607859e-03 1.524158e-02 -1.439143e-02
-1.264595e-02 1.100956e-02 -1.424897e-02
1.416328e-02 -4.238579e-03 1.122670e-02
1.415980e-02 4.238222e-03 1.122550e-02
1.730909e-02 -2.595401e-03 -1.363687e-02
1.440040e-02 4.686805e-03 1.057215e-02
-6.285957e-03 -1.377051e-02 1.079596e-02
-7.194913e-03 4.591100e-03 -2.137551e-02
-8.007322e-03 3.421712e-03 -2.115536e-02
-6.275753e-04 8.498105e-03 -2.137221e-02
-2.908826e-04 3.035837e-04 1.775736e-02
-1.998587e-03 8.457191e-03 -2.111841e-02
-8.325137e-03 -1.232474e-02 1.122176e-02
1.378437e-02 -1.715788e-03 -1.762516e-02
7.867312e-03 1.317548e-02 1.071098e-02
-1.047596e-02 -3.786166e-03 -2.005102e-02
-1.047651e-02 3.794415e-03 -2.004030e-02
1.895389e-03 -1.479763e-02 1.089376e-02
-3.699978e-03 6.469836e-03 -2.170219e-02
-7.280674e-03 2.080109e-03 -2.168314e-02
-1.531969e-02 -8.326683e-03 -1.350188e-02
7.573441e-05 -2.723564e-04 1.785689e-02
-7.639434e-03 -1.395130e-02 -1.542093e-02
-7.576816e-04 -1.740916e-02 -1.383453e-02
-6.768506e-03 -1.231482e-02 1.172979e-02
-7.982596e-03 -1.242265e-02 -1.654500e-02
-8.956204e-04 5.982995e-03 -2.240574e-02
-5.329323e-03 2.834735e-03 -2.239503e-02
-3.141476e-03 -1.368262e-02 1.182233e-02
1.974468e-02 -2.887731e-03 -7.244980e-03
1.974799e-02 2.897359e-03 -7.237462e-03
2.791306e-03 -1.524839e-02 -1.604274e-02
6.799702e-05 -1.238572e-04 1.762719e-02
1.391411e-02 -6.834273e-03 -1.605790e-02
1.332631e-02 -8.107607e-03 -1.604578e-02
1.325529e-02 5.121592e-03 -1.750748e-02
1.444087e-03 -1.554464e-02 -1.604752e-02
-1.362525e-02 -6.415452e-03 1.082617e-02
-1.462616e-02 -6.403016e-03 9.690747e-03
7.241460e-03 -1.382119e-02 -1.628997e-02
1.529546e-02 -3.546319e-03 -1.651675e-02
4.593417e-03 -1.305232e-02 1.193348e-02
8.511870e-04 -1.407075e-02 -1.819284e-02
-1.320024e-05 2.774508e-04 1.762183e-02
5.729633e-03 7.330909e-03 -2.113801e-02
5.406176e-03 2.139315e-03 -2.237411e-02
5.395599e-03 -2.061073e-03 -2.243295e-02
1.350150e-02 -1.802499e-03 -1.836175e-02
-7.133563e-04 -1.751125e-02 -1.375549e-02
1.300089e-02 -4.573536e-03 1.222658e-02
1.218354e-02 -6.415706e-03 1.219609e-02
2.101035e-03 -1.360937e-02 1.219012e-02
-1.507361e-03 -2.491797e-04 -2.332412e-02
8.799240e-03 -1.250028e-02 1.037095e-02
-3.552111e-04 -4.956940e-05 1.758546e-02
8.795625e-03 1.249877e-02 1.037115e-02
1.496198e-02 2.269207e-03 1.061968e-02
-3.152166e-03 1.464292e-02 1.095219e-02
7.015091e-03 1.324352e-02 -1.648052e-02
7.013520e-03 -1.324853e-02 -1.648748e-02
-1.803822e-02 -1.159189e-03 -1.194843e-02
-1.428672e-02 -1.587462e-03 1.180389e-02
2.391523e-03 1.765397e-02 -1.230841e-02
-8.500059e-03 -1.435753e-02 -1.448817e-02
-8.497754e-03 1.435771e-02 -1.448700e-02
2.641082e-04 -4.516450e-04 1.751539e-02
-1.997275e-03 -1.659377e-02 -1.487703e-02
-1.126342e-02 7.544732e-03 1.245062e-02
-1.128661e-02 -7.565609e-03 1.243118e-02
3.757407e-03 -1.384337e-02 1.177715e-02
1.869828e-02 3.568231e-03 -1.021785e-02
1.479882e-02 2.222865e-03 1.109436e-02
-8.930509e-03 -1.015610e-02 1.211615e-02
-8.877088e-03 1.013251e-02 1.203669e-02
7.370168e-03 -1.492571e-02 -1.384469e-02
7.379445e-03 1.480892e-02 -1.386276e-02
3.636265e-04 5.438821e-06 1.757167e-02
-7.380734e-03 -1.253780e-02 -1.724181e-02
-4.317871e-03 -1.580504e-02 -1.481847e-02
5.201897e-03 -1.323507e-02 1.174792e-02
-6.283427e-03 -1.336291e-02 1.066284e-02
-6.306331e-03 1.330870e-02 1.070687e-02
-6.876605e-03 1.071894e-02 -1.867368e-02
-6.876289e-03 -1.072075e-02 -1.867232e-02
-5.092293e-03 -1.357560e-02 1.091307e-02
9.998641e-03 -1.059506e-02 1.106988e-02
6.591947e-03 5.316924e-03 -2.131184e-02
-4.143598e-04 -2.241418e-04 1.769115e-02
-1.041565e-04 3.978025e-04 1.763323e-02
6.592629e-03 -5.317390e-03 -2.131409e-02
1.647936e-02 7.854852e-03 -1.250883e-02
1.420063e-02 -1.107710e-03 1.155553e-02
1.782175e-02 -2.930418e-03 -1.269144e-02
1.782351e-02 2.932356e-03 -1.268651e-02
1.750467e-02 2.131576e-03 -1.301390e-02
-1.225619e-02 1.214808e-02 -1.360738e-02
3.094055e-04 -1.371618e-02 1.203172e-02
-6.399013e-03 1.810147e-02 -1.047633e-02
-1.073011e-02 -8.181442e-03 1.222122e-02
-3.259080e-05 -1.738252e-04 1.772866e-02
1.293183e-02 -6.884468e-03 1.121494e-02
1.364119e-02 6.323460e-03 1.086546e-02
8.201912e-03 1.136826e-02 1.137623e-02
-7.283750e-03 -4.174687e-03 -2.139952e-02
-7.434244e-03 4.043468e-03 -2.128540e-02
1.171883e-02 -1.620756e-02 -6.688937e-03
-1.990861e-02 -3.842940e-03 -1.603300e-03
1.192609e-02 -1.452225e-02 -1.116883e-02
1.159839e-02 -1.269170e-02 -1.427956e-02
1.163235e-02 1.272060e-02 -1.440797e-02
3.804323e-04 -5.196849e-04 1.775323e-02
1.187385e-02 8.372014e-03 -1.710189e-02
1.189572e-02 -8.383555e-03 -1.707527e-02
-1.253366e-03 -1.287165e-02 1.295414e-02
1.720664e-02 9.389064e-03 -8.384396e-03
1.696852e-02 -9.771686e-03 -8.712410e-03
8.593111e-03 1.076662e-02 1.154577e-02
-1.281249e-02 -1.574520e-02 -6.442850e-03
-1.282793e-02 1.570629e-02 -6.418338e-03
1.256935e-02 8.712571e-03 -1.654257e-02
-6.076249e-03 6.568643e-04 -2.248375e-02
1.314940e-04 2.882202e-05 1.772714e-02
5.115102e-03 1.628753e-02 -1.393053e-02
-1.325035e-02 4.855068e-03 1.189175e-02
1.112611e-02 -8.374635e-03 1.166749e-02
1.113187e-02 8.371687e-03 1.167112e-02
9.511302e-03 1.034482e-02 1.207017e-02
1.249638e-02 5.193484e-03 1.211446e-02
1.453121e-02 -2.321027e-03 1.125486e-02
5.502238e-03 1.632947e-02 -1.366959e-02
1.333117e-02 -1.268569e-02 -1.214047e-02
1.333639e-02 1.268564e-02 -1.214480e-02
1.002805e-04 4.167758e-07 1.783433e-02
1.696013e-02 1.419657e-03 -1.413414e-02
4.597025e-03 -1.827770e-02 -1.042504e-02
-1.401329e-02 4.207563e-03 1.115079e-02
-1.401669e-02 -4.209759e-03 1.114938e-02
-1.149550e-02 1.497176e-02 -1.114058e-02
-1.149566e-02 -1.497888e-02 -1.113410e-02
2.030731e-02 -1.517429e-03 -4.605780e-03
2.032839e-02 1.559013e-03 -4.710078e-03
1.568542e-03 1.881368e-03 -2.315336e-02
1.687723e-03 1.400167e-02 1.148963e-02
-1.067117e-04 -2.848817e-05 1.769287e-02
-2.034182e-02 -1.699323e-03 -2.605651e-03
-2.041841e-02 1.683748e-03 -2.484597e-03
4.938859e-03 1.252091e-02 1.214432e-02
-4.798817e-03 1.253729e-02 1.271998e-02
-4.633339e-03 -9.568911e-04 -2.276784e-02
-1.306073e-02 1.042733e-02 -1.499322e-02
-1.305803e-02 -1.042548e-02 -1.499735e-02
-1.343355e-03 -7.005105e-03 -2.222145e-02
-1.021477e-03 7.186066e-03 -2.188127e-02
-2.738734e-03 -1.716127e-02 -1.400931e-02
1.612592e-04 -1.473910e-05 1.755127e-02
2.800978e-03 -1.384059e-02 1.182776e-02
1.422687e-03 3.262236e-03 -2.333565e-02
2.789868e-03 -1.502802e-02 -1.627654e-02
-2.041749e-03 1.443265e-02 1.126542e-02
7.267096e-03 1.869611e-02 -6.340213e-03
-8.610637e-04 2.681103e-03 -2.303546e-02
-6.400208e-03 -1.849033e-02 -9.058295e-03
-9.969983e-03 -5.008265e-03 -1.963342e-02
-6.341036e-03 -1.914387e-02 -5.360933e-03
2.440497e-03 -5.948514e-03 -2.213728e-02
-8.805503e-05 2.196823e-04 1.776152e-02
2.644303e-03 6.122477e-03 -2.201514e-02
7.337281e-04 1.867013e-03 -2.323839e-02
3.697752e-04 -4.903004e-04 -2.326944e-02
-1.969244e-02 4.427399e-03 -6.306798e-03
-1.969352e-02 -4.426737e-03 -6.307463e-03
9.200607e-05 1.075208e-03 -2.320350e-02
3.051927e-03 -4.719084e-03 -2.242341e-02
3.055708e-03 4.726726e-03 -2.241532e-02
2.094877e-03 -1.333095e-02 1.240876e-02
-1.031008e-03 -2.323399e-03 -2.352735e-02
-3.571972e-04 1.052920e-04 1.750964e-02
8.427622e-03 1.782546e-03 -2.151236e-02
-5.505214e-03 5.838097e-03 -2.167365e-02
1.821370e-02 -5.856998e-05 -1.260605e-02
-1.013672e-02 1.537177e-03 -2.072675e-02
4.015515e-03 -1.286882e-02 1.235675e-02
1.180459e-02 6.638192e-03 1.225938e-02
1.186568e-02 -6.618178e-03 1.250458e-02
8.772190e-04 1.374953e-02 1.203059e-02
-1.073166e-02 8.881427e-03 1.207945e-02
-8.133617e-03 1.132293e-02 1.210642e-02
-2.195097e-05 -3.016548e-04 1.761885e-02
-3.846448e-03 1.339607e-02 1.179996e-02
-1.090042e-04 3.114222e-04 -2.340259e-02
1.286285e-02 -1.407378e-02 -9.982404e-03
1.968074e-03 1.257928e-02 1.313938e-02
-9.746054e-03 -5.789350e-03 -1.988299e-02
-5.149049e-03 1.664741e-02 -1.310489e-02
1.064948e-02 1.755529e-02 -1.534908e-03
4.864982e-03 -7.165784e-03 -2.153018e-02
4.865259e-03 7.163265e-03 -2.152821e-02
-4.566248e-03 -1.978921e-02 -5.001949e-03
-1.804397e-04 6.833237e-05 1.763627e-02
2.395244e-04 4.963458e-04 1.745588e-02
-8.197486e-04 1.353182e-02 1.218118e-02
1.822506e-02 -8.491279e-03 -5.779987e-03
4.044559e-03 -1.971939e-02 -5.790390e-03
1.930564e-02 -5.426894e-03 -7.683989e-03
1.697114e-02 -1.092066e-02 -5.806787e-03
1.377042e-03 -2.014806e-02 -5.802677e-03
-3.977150e-03 -1.690333e-02 -1.379728e-02
1.347089e-02 4.518650e-04 1.248340e-02
1.177508e-02 4.447885e-03 1.322185e-02
1.016217e-02 -1.790363e-02 -5.943298e-03
-2.073122e-04 -5.459395e-05 1.758376e-02
-1.578265e-03 -1.418293e-02 1.172101e-02
-4.784151e-04 2.613109e-03 -2.318940e-02
-3.113147e-05 1.924177e-02 -9.266958e-03
-1.211396e-02 2.922994e-03 1.345551e-02
-1.211562e-02 -2.923012e-03 1.345760e-02
-5.210822e-03 1.851813e-02 -9.277593e-03
-1.052389e-02 1.601818e-02 -9.669671e-03
-1.540253e-02 1.146303e-02 -9.588634e-03
-1.781668e-02 7.064169e-03 -9.545375e-03
-1.814052e-02 6.477775e-03 -9.040003e-03
4.813741e-05 -7.199851e-05 1.783987e-02
5.105815e-03 -1.120445e-02 1.385996e-02
5.171855e-03 1.139538e-02 1.388205e-02
-2.818502e-03 -1.988071e-02 -6.759568e-03
5.056892e-03 -1.558488e-02 -1.528880e-02
1.057245e-02 7.847950e-03 1.253715e-02
1.059280e-02 8.922840e-03 1.204285e-02
-8.677592e-03 -1.830116e-02 -4.724577e-03
-7.633592e-03 -1.806941e-02 -8.876134e-03
-7.667135e-03 1.811545e-02 -9.038356e-03
1.916156e-02 -1.524846e-03 -9.672875e-03
9.106066e-06 3.393495e-05 1.758991e-02
1.202791e-02 1.761229e-03 1.342192e-02
1.202876e-02 -1.763034e-03 1.341895e-02
8.263123e-03 -8.729098e-03 -1.980302e-02
2.230704e-03 1.248267e-02 1.307620e-02
-1.276321e-03 2.048883e-02 -3.162996e-03
1.186343e-02 7.323014e-03 1.234548e-02
-1.950204e-03 -2.048413e-03 -2.320118e-02
-2.486536e-03 1.262012e-02 1.306219e-02
5.763077e-03 3.016310e-04 -2.244376e-02
5.795494e-03 -2.961199e-04 -2.245941e-02
6.282938e-05 4.271314e-05 1.788322e-02
7.589257e-03 -1.032978e-02 1.309821e-02
1.749605e-03 2.869498e-03 -2.314039e-02
-1.282998e-02 4.648085e-04 1.273257e-02
-1.118690e-02 1.735427e-02 -5.735198e-03
-1.118788e-02 -1.735603e-02 -5.734435e-03
5.844431e-03 -1.686861e-02 -1.311703e-02
1.016728e-02 -9.518867e-03 1.196963e-02
1.016354e-02 9.518285e-03 1.196878e-02
-1.313752e-02 5.977934e-03 1.207061e-02
-1.318237e-02 -6.015461e-03 1.210159e-02
-4.896129e-04 1.253433e-05 1.772998e-02
-1.294745e-02 7.808114e-03 1.097848e-02
-1.306964e-02 -7.887601e-03 1.108863e-02
-3.280265e-03 3.341078e-03 -2.275021e-02
-1.037834e-02 -1.823140e-04 -2.060094e-02
-1.009334e-02 -3.533439e-05 -2.078893e-02
1.674216e-03 -2.792785e-03 -2.315416e-02
1.682864e-03 2.788408e-03 -2.314232e-02
-8.353137e-03 9.064977e-03 1.375835e-02
-8.587875e-03 9.195909e-03 1.380655e-02
-8.576687e-03 -9.321594e-03 1.381401e-02
4.996488e-05 -1.933586e-05 1.768626e-02
1.154940e-02 -1.611048e-03 1.383928e-02
-1.513913e-04 -3.350577e-03 -2.303383e-02
-5.086094e-03 5.316207e-03 -2.207605e-02
-5.095631e-03 -5.314362e-03 -2.205417e-02
-8.659013e-04 1.946327e-02 -8.945541e-03
-3.980436e-03 1.933144e-02 -8.678451e-03
-9.615544e-03 1.690816e-02 -9.172005e-03
-1.610524e-02 1.091507e-02 -8.980845e-03
-1.757432e-02 8.416468e-03 -8.738285e-03
-1.853205e-02 4.973477e-03 -9.179114e-03
-1.190781e-04 1.661567e-04 1.765478e-02
6.832700e-03 1.074226e-02 1.308132e-02
-3.844056e-04 -2.054458e-02 -5.213325e-03
-6.676008e-03 1.140350e-02 1.322005e-02
-6.676434e-03 -1.140349e-02 1.322368e-02
-4.879117e-03 -1.247191e-02 1.255648e-02
4.033198e-03 1.200390e-02 1.311964e-02
6.976147e-03 6.358544e-03 -2.098343e-02
-1.522411e-02 -5.524856e-03 -1.574246e-02
-3.848678e-03 -1.066475e-02 -1.969849e-02
-4.166328e-03 1.068444e-02 -1.954722e-02
-2.629682e-04 2.947730e-05 1.781594e-02
1.337794e-03 1.266762e-02 1.300645e-02
-1.269380e-02 3.507612e-03 1.289810e-02
-1.104436e-02 7.078204e-03 1.295984e-02
-1.178194e-02 5.837138e-03 1.298438e-02
-6.251476e-03 1.148847e-02 1.303427e-02
-9.118145e-04 1.305636e-02 1.296313e-02
-2.344382e-03 1.294118e-02 1.299499e-02
-9.144578e-04 -1.325010e-02 1.282425e-02
5.254879e-03 -1.967001e-02 -8.561973e-04
-8.038982e-05 -1.193266e-02 1.365559e-02
3.731473e-04 -2.991422e-04 1.797183e-02
1.223104e-02 2.382675e-03 1.325421e-02
1.223037e-02 -2.382419e-03 1.325460e-02
1.583046e-06 2.424061e-03 -2.306913e-02
8.128646e-03 8.943451e-03 1.372880e-02
8.280651e-03 -9.002637e-03 1.367139e-02
3.153751e-03 -2.016268e-02 2.369905e-05
1.808344e-02 -9.472231e-03 2.753918e-05
1.934921e-02 -6.662367e-03 1.037297e-04
2.786570e-03 -1.198102e-02 1.368801e-02
-4.949969e-03 -4.331466e-03 -2.242270e-02
1.474458e-04 -8.959099e-05 1.769364e-02
2.177291e-04 1.938844e-04 1.757357e-02
1.667492e-02 -7.796108e-03 -1.166517e-02
8.821347e-03 8.693290e-03 1.374478e-02
-2.035068e-02 -1.625693e-04 -6.416787e-03
2.036401e-02 4.401538e-04 -1.884255e-03
2.032038e-02 -1.637877e-05 -2.391988e-03
-5.426740e-03 -1.087471e-02 1.354321e-02
4.986236e-03 -1.112906e-03 -2.284862e-02
4.988766e-03 1.112486e-03 -2.284788e-02
3.135514e-03 1.223884e-02 1.339061e-02
-2.026182e-02 9.260595e-04 -2.179396e-04
-3.020229e-04 2.629419e-04 1.765129e-02
3.255614e-03 2.009712e-02 -4.342880e-03
4.296145e-03 -1.816877e-02 -1.130510e-02
1.514542e-02 -1.024308e-02 -1.179949e-02
8.898254e-04 -1.822441e-02 -1.186565e-02
1.073160e-02 1.870649e-03 -2.019820e-02
-1.609783e-02 -1.194429e-02 -7.132288e-03
4.627678e-03 1.925866e-02 -9.224074e-03
1.213585e-02 -3.349855e-03 1.343457e-02
1.213753e-02 3.349410e-03 1.342004e-02
5.297939e-03 -3.462044e-03 -2.249071e-02
1.217596e-04 -5.029749e-04 1.764250e-02
5.374667e-03 3.509754e-03 -2.245907e-02
-4.984366e-03 -3.688991e-03 -2.274474e-02
9.663418e-03 1.267846e-03 -2.092480e-02
9.680630e-03 -1.249858e-03 -2.091964e-02
-8.666454e-03 -8.509166e-03 1.366142e-02
-1.368839e-02 -5.151774e-05 1.260915e-02
1.109024e-02 -5.576035e-03 1.344572e-02
1.091665e-02 5.664473e-03 1.339922e-02
1.381545e-02 1.460702e-02 -7.130140e-03
3.386405e-03 1.199049e-02 1.309802e-02
3.161893e-04 4.560238e-05 1.795691e-02
-1.954381e-03 -3.499301e-03 -2.298578e-02
-1.971719e-03 -1.098999e-03 -2.343659e-02
-2.246864e-03 1.361320e-03 -2.330129e-02
3.743654e-03 -1.982624e-02 -6.102173e-03
9.917033e-03 -1.610828e-02 -1.021950e-02
1.526252e-02 -1.132045e-02 -1.034855e-02
-2.162711e-06 -1.909230e-02 -1.003068e-02
-4.646717e-03 -2.011258e-02 -4.214251e-03
1.262864e-02 1.483924e-02 -9.383258e-03
1.266598e-02 -1.486648e-02 -9.371425e-03
1.554841e-04 1.290979e-04 1.787939e-02
1.430194e-02 1.178700e-02 -1.229338e-02
1.793799e-02 -6.738083e-03 -9.763327e-03
-5.000869e-04 -2.268184e-03 -2.316827e-02
-2.170357e-03 5.792322e-03 -2.236854e-02
1.812387e-03 -1.254607e-02 1.305650e-02
1.116213e-02 -6.041159e-03 1.305131e-02
1.243852e-02 -4.953268e-03 1.257394e-02
-4.045266e-03 1.238958e-02 1.330476e-02
-5.793283e-03 5.185503e-03 -2.191475e-02
-5.715510e-03 5.106110e-03 -2.206673e-02
-6.116230e-05 -1.618895e-04 1.764571e-02
-1.909833e-02 -2.628504e-03 -9.877655e-03
-1.909082e-02 2.619350e-03 -9.888860e-03
6.445619e-03 -7.084647e-03 -2.075784e-02
-5.408033e-03 -5.938887e-03 -2.163112e-02
-5.486305e-03 6.029569e-03 -2.169002e-02
-3.749065e-03 -1.096656e-02 -2.000644e-02
-6.927050e-03 -1.012784e-02 1.376367e-02
-6.923660e-03 1.012660e-02 1.376287e-02
-7.151024e-03 -9.759207e-03 1.379796e-02
4.994795e-03 1.103508e-02 1.355529e-02
8.381456e-05 -1.151041e-05 1.750488e-02
-1.130393e-02 -6.060118e-03 1.328389e-02
-1.118893e-02 5.823636e-03 1.328363e-02
1.992435e-02 -4.156213e-03 -1.515498e-03
-1.038787e-02 3.412185e-03 -2.017107e-02
-1.643539e-02 -1.116685e-02 2.591318e-03
-9.567359e-03 -6.857878e-03 1.399738e-02
-4.821765e-03 -1.866558e-02 -9.672454e-03
1.476966e-02 1.418223e-02 -1.109925e-03
8.800515e-03 -1.851050e-02 -3.449818e-03
-1.125928e-02 1.595688e-02 -9.005215e-03
-4.021613e-05 -6.965042e-06 1.749818e-02
6.575001e-03 1.937279e-02 -4.577656e-03
-6.945991e-03 -9.633297e-03 1.422214e-02
-1.259577e-02 -1.581569e-02 -6.543956e-03
1.103361e-02 1.635163e-02 -8.074218e-03
1.103290e-02 -1.635356e-02 -8.074792e-03
1.701399e-02 1.153927e-02 -4.603810e-03
-9.922907e-03 -9.457706e-03 -1.812422e-02
3.498597e-03 1.152433e-02 1.371226e-02
1.138027e-02 2.851194e-03 1.396875e-02
-1.628331e-02 -1.236012e-02 -2.664997e-03
4.257511e-05 -5.970727e-05 1.759962e-02
-3.791431e-03 -1.190266e-02 1.350256e-02
8.633154e-03 -9.994977e-03 1.304124e-02
-4.865908e-03 1.956464e-02 -2.437076e-03
-8.123794e-03 -1.104450e-02 1.253576e-02
-8.114820e-03 1.103741e-02 1.252775e-02
8.826320e-03 1.009049e-02 1.265458e-02
8.819625e-03 -1.005146e-02 1.270841e-02
1.167093e-02 4.102945e-03 1.350243e-02
1.167085e-02 -4.107006e-03 1.350379e-02
7.010043e-03 -1.904509e-02 -2.665263e-03
-2.507074e-05 -3.875842e-06 1.753599e-02
-8.348079e-03 -7.154407e-03 1.449926e-02
-9.696677e-03 1.751452e-02 1.765722e-03
-9.701812e-03 -1.751601e-02 1.769749e-03
-2.034477e-02 -3.132639e-03 -5.651068e-03
2.155156e-03 -1.935928e-02 -4.410678e-03
1.682472e-02 -9.801446e-03 -4.414329e-03
6.347564e-03 -4.760406e-03 -2.186104e-02
6.543438e-03 1.861281e-02 2.528046e-03
1.515514e-02 -1.327711e-02 1.115417e-03
1.515412e-02 1.327609e-02 1.115532e-03
-9.965462e-05 -1.539169e-05 1.742327e-02
3.268154e-04 -1.386089e-04 1.761587e-02
-5.417343e-03 -1.926002e-02 -7.010097e-03
1.495498e-03 1.969102e-02 2.101149e-03
1.057466e-02 -7.348560e-03 1.325915e-02
5.596323e-03 -1.132134e-02 1.336875e-02
1.197127e-03 7.965603e-03 -2.172447e-02
1.694691e-02 -1.072376e-02 -6.851876e-03
1.669092e-02 1.093194e-02 -6.713368e-03
-8.360957e-03 -3.201064e-03 -2.137722e-02
-8.360356e-03 3.233496e-03 -2.136774e-02
-1.679529e-02 -1.715510e-03 -1.491627e-02
3.437211e-04 6.613781e-05 1.758877e-02
-1.682646e-02 1.715298e-03 -1.492622e-02
1.546713e-02 -7.451424e-04 -1.611498e-02
-1.274240e-03 2.236486e-04 -2.346093e-02
-1.274716e-03 -2.274741e-04 -2.346264e-02
-4.406094e-04 1.974683e-02 -8.505295e-03
-4.262619e-03 1.064863e-02 -1.973437e-02
9.119291e-03 8.865709e-03 1.343239e-02
9.126709e-03 -8.865875e-03 1.343383e-02
3.728558e-03 -8.111893e-03 -2.102325e-02
3.717259e-03 8.075814e-03 -2.099499e-02
-1.849789e-04 4.194061e-04 1.774174e-02
9.304112e-03 1.724191e-02 -8.776092e-03
-1.388167e-02 -8.321080e-03 -1.559599e-02
-1.368507e-02 8.734018e-03 -1.542191e-02
-3.967589e-03 -2.026934e-02 -6.345102e-05
-1.355293e-02 1.515672e-02 1.759093e-03
7.270127e-03 8.002461e-03 1.461653e-02
-1.192363e-02 1.595249e-02 -8.225720e-03
-1.083541e-02 5.252296e-03 1.385949e-02
-1.083567e-02 -5.247682e-03 1.387477e-02
-1.098389e-02 -3.865587e-04 -2.020531e-02
-4.414921e-04 -1.594422e-04 1.751783e-02
1.809284e-03 5.109104e-03 -2.276478e-02
-4.992466e-03 -1.397895e-02 -1.697148e-02
8.044331e-03 1.799411e-02 2.308454e-03
1.902242e-02 1.143268e-03 4.372238e-03
1.893479e-02 -1.319072e-03 4.398050e-03
2.347977e-04 -1.140696e-02 1.434780e-02
6.255370e-03 -1.036336e-02 1.405619e-02
1.115793e-02 -2.863020e-03 1.420044e-02
-4.202602e-03 1.151529e-02 1.340945e-02
-5.164582e-03 1.192940e-02 1.275314e-02
-8.000036e-05 -2.021333e-04 1.773704e-02