# vtk DataFile Version 2.0
Electric current density generated by TTH
ASCII
DATASET UNSTRUCTURED_GRID
POINTS 8236 double
-5.000000e-06 -5.000000e-06 0.000000e+00
-1.500000e-05 1.500000e-05 2.000000e-07
1.100000e-05 1.500000e-05 0.000000e+00
-5.069241e-06 8.059984e-06 0.000000e+00
-5.525167e-06 8.166146e-06 0.000000e+00
-5.474995e-06 7.761021e-06 0.000000e+00
1.299438e-05 1.406173e-05 0.000000e+00
1.346422e-05 1.390757e-05 0.000000e+00
1.329140e-05 1.430678e-05 0.000000e+00
-5.182361e-06 8.495893e-06 0.000000e+00
-8.059984e-06 -5.069241e-06 0.000000e+00
-8.166146e-06 -5.525167e-06 0.000000e+00
-7.761021e-06 -5.474995e-06 0.000000e+00
1.050000e-05 1.500000e-05 0.000000e+00
1.454225e-05 1.278719e-05 0.000000e+00
1.425693e-05 -1.380181e-05 0.000000e+00
1.380513e-05 -1.393846e-05 0.000000e+00
-8.495893e-06 -5.182361e-06 0.000000e+00
1.036952e-05 2.453621e-06 0.000000e+00
1.068104e-05 2.219260e-06 0.000000e+00
1.279222e-05 -1.465637e-05 0.000000e+00
-1.380181e-05 -1.425693e-05 0.000000e+00
-1.393846e-05 -1.380513e-05 0.000000e+00
9.938282e-06 2.282317e-06 0.000000e+00
1.000000e-05 1.500000e-05 0.000000e+00
2.963137e-06 9.222288e-06 0.000000e+00
-1.465637e-05 -1.279222e-05 0.000000e+00
-1.425693e-05 1.380181e-05 0.000000e+00
-1.380513e-05 1.393846e-05 0.000000e+00
2.723574e-06 8.771569e-06 0.000000e+00
-2.955412e-06 -9.222154e-06 0.000000e+00
-1.279222e-05 1.465637e-05 0.000000e+00
1.380203e-05 1.425754e-05 0.000000e+00
1.393819e-05 1.380547e-05 0.000000e+00
-2.723655e-06 -8.771644e-06 0.000000e+00
9.500000e-06 1.500000e-05 0.000000e+00
1.411768e-05 1.339365e-05 0.000000e+00
1.386373e-05 1.310383e-05 0.000000e+00
1.423703e-05 1.302737e-05 0.000000e+00
1.364254e-05 1.348316e-05 0.000000e+00
9.222154e-06 -2.955412e-06 0.000000e+00
1.337053e-05 -1.411906e-05 0.000000e+00
1.348207e-05 -1.364348e-05 0.000000e+00
1.310182e-05 -1.386597e-05 0.000000e+00
8.771644e-06 -2.723655e-06 0.000000e+00
-9.222154e-06 2.955412e-06 0.000000e+00
9.000000e-06 1.500000e-05 0.000000e+00
-1.411906e-05 -1.337053e-05 0.000000e+00
-1.364348e-05 -1.348207e-05 0.000000e+00
-1.386597e-05 -1.310182e-05 0.000000e+00
-8.771644e-06 2.723655e-06 0.000000e+00
3.476834e-06 1.089083e-05 0.000000e+00
3.004568e-06 1.079398e-05 0.000000e+00
3.271136e-06 1.050363e-05 0.000000e+00
-1.337053e-05 1.411906e-05 0.000000e+00
-1.348207e-05 1.364348e-05 0.000000e+00
-1.310182e-05 1.386597e-05 0.000000e+00
8.500000e-06 1.500000e-05 0.000000e+00
3.156892e-06 1.135975e-05 0.000000e+00
1.330256e-05 1.134249e-05 0.000000e+00
1.295476e-05 1.118883e-05 0.000000e+00
1.321454e-05 1.092832e-05 0.000000e+00
1.453841e-05 -1.235105e-05 0.000000e+00
1.421800e-05 -1.264454e-05 0.000000e+00
1.380610e-05 -1.272662e-05 0.000000e+00
1.362858e-05 -1.317690e-05 0.000000e+00
1.275143e-05 1.079237e-05 0.000000e+00
-1.235105e-05 -1.453841e-05 0.000000e+00
8.000000e-06 1.500000e-05 0.000000e+00
-1.264454e-05 -1.421800e-05 0.000000e+00
-1.272662e-05 -1.380610e-05 0.000000e+00
-1.317690e-05 -1.362858e-05 0.000000e+00
3.176273e-06 9.694218e-06 0.000000e+00
5.120700e-06 1.126547e-05 0.000000e+00
5.510327e-06 1.129698e-05 0.000000e+00
5.217099e-06 1.169449e-05 0.000000e+00
-1.453841e-05 1.235105e-05 0.000000e+00
-1.421800e-05 1.264454e-05 0.000000e+00
-1.380610e-05 1.272662e-05 0.000000e+00
7.500000e-06 1.500000e-05 0.000000e+00
-1.362858e-05 1.317690e-05 0.000000e+00
-3.472577e-06 -1.089759e-05 0.000000e+00
-3.001612e-06 -1.079605e-05 0.000000e+00
-3.264296e-06 -1.050774e-05 0.000000e+00
5.669519e-06 1.170788e-05 0.000000e+00
1.230046e-05 1.458085e-05 0.000000e+00
-3.153502e-06 -1.135849e-05 0.000000e+00
1.279371e-05 1.376404e-05 0.000000e+00
1.317621e-05 1.362977e-05 0.000000e+00
1.413013e-05 1.271095e-05 0.000000e+00
7.000000e-06 1.500000e-05 0.000000e+00
1.453595e-05 1.236362e-05 0.000000e+00
-3.165496e-06 -9.698255e-06 0.000000e+00
1.089759e-05 -3.472577e-06 0.000000e+00
1.079605e-05 -3.001612e-06 0.000000e+00
1.050774e-05 -3.264296e-06 0.000000e+00
1.236479e-05 -1.453329e-05 0.000000e+00
1.135849e-05 -3.153502e-06 0.000000e+00
-1.453329e-05 -1.236479e-05 0.000000e+00
9.698255e-06 -3.165496e-06 0.000000e+00
-1.089759e-05 3.472577e-06 0.000000e+00
6.500000e-06 1.500000e-05 0.000000e+00
-1.079605e-05 3.001612e-06 0.000000e+00
-1.050774e-05 3.264296e-06 0.000000e+00
-1.236479e-05 1.453329e-05 0.000000e+00
-1.135849e-05 3.153502e-06 0.000000e+00
1.363317e-05 1.274736e-05 0.000000e+00
1.339015e-05 1.319807e-05 0.000000e+00
1.276975e-05 -1.369161e-05 0.000000e+00
1.285111e-05 -1.420785e-05 0.000000e+00
1.319472e-05 -1.339329e-05 0.000000e+00
-1.369161e-05 -1.276975e-05 0.000000e+00
-1.500000e-05 -1.500000e-05 2.000000e-07
6.000000e-06 1.500000e-05 0.000000e+00
-1.420785e-05 -1.285111e-05 0.000000e+00
-1.339329e-05 -1.319472e-05 0.000000e+00
-1.276975e-05 1.369161e-05 0.000000e+00
-1.285111e-05 1.420785e-05 0.000000e+00
-1.319472e-05 1.339329e-05 0.000000e+00
1.409501e-05 -1.228539e-05 0.000000e+00
1.450124e-05 -1.190514e-05 0.000000e+00
1.353519e-05 -1.225897e-05 0.000000e+00
1.331132e-05 -1.287377e-05 0.000000e+00
-1.228539e-05 -1.409501e-05 0.000000e+00
5.500000e-06 1.500000e-05 0.000000e+00
-1.190514e-05 -1.450124e-05 0.000000e+00
-1.225897e-05 -1.353519e-05 0.000000e+00
-1.287377e-05 -1.331132e-05 0.000000e+00
-1.409501e-05 1.228539e-05 0.000000e+00
-1.450124e-05 1.190514e-05 0.000000e+00
-1.353519e-05 1.225897e-05 0.000000e+00
-1.331132e-05 1.287377e-05 0.000000e+00
-9.698255e-06 3.165496e-06 0.000000e+00
1.180636e-05 1.453315e-05 0.000000e+00
1.250908e-05 1.411523e-05 0.000000e+00
5.000000e-06 1.500000e-05 0.000000e+00
1.246268e-05 1.359588e-05 0.000000e+00
1.291230e-05 1.335474e-05 0.000000e+00
-3.292716e-08 -6.578445e-06 0.000000e+00
-3.062614e-07 -6.333355e-06 0.000000e+00
-4.626961e-07 -6.791609e-06 0.000000e+00
1.396868e-05 1.223633e-05 0.000000e+00
1.452297e-05 1.187193e-05 0.000000e+00
1.231122e-05 -1.403531e-05 0.000000e+00
1.183194e-05 -1.448403e-05 0.000000e+00
-1.403531e-05 -1.231122e-05 0.000000e+00
4.500000e-06 1.500000e-05 0.000000e+00
-1.448403e-05 -1.183194e-05 0.000000e+00
-1.231122e-05 1.403531e-05 0.000000e+00
-1.183194e-05 1.448403e-05 0.000000e+00
1.332789e-05 1.236996e-05 0.000000e+00
1.311844e-05 1.286504e-05 0.000000e+00
1.234693e-05 -1.349096e-05 0.000000e+00
1.281272e-05 -1.315624e-05 0.000000e+00
-1.349096e-05 -1.234693e-05 0.000000e+00
-1.315624e-05 -1.281272e-05 0.000000e+00
-1.234693e-05 1.349096e-05 0.000000e+00
4.000000e-06 1.500000e-05 0.000000e+00
-1.281272e-05 1.315624e-05 0.000000e+00
1.397108e-05 -1.182603e-05 0.000000e+00
1.440296e-05 -1.146836e-05 0.000000e+00
4.079331e-06 1.086749e-05 0.000000e+00
-7.351794e-07 -6.377188e-06 0.000000e+00
-9.654855e-07 -6.767995e-06 0.000000e+00
1.317061e-05 -1.198288e-05 0.000000e+00
1.289063e-05 -1.253058e-05 0.000000e+00
-1.182603e-05 -1.397108e-05 0.000000e+00
-1.146836e-05 -1.440296e-05 0.000000e+00
3.500000e-06 1.500000e-05 0.000000e+00
1.448249e-05 -5.229451e-06 0.000000e+00
1.402195e-05 -5.279908e-06 0.000000e+00
1.421207e-05 -5.554178e-06 0.000000e+00
-1.198288e-05 -1.317061e-05 0.000000e+00
-1.253058e-05 -1.289063e-05 0.000000e+00
-1.397108e-05 1.182603e-05 0.000000e+00
-1.440296e-05 1.146836e-05 0.000000e+00
3.737733e-06 1.135320e-05 0.000000e+00
1.398538e-05 -7.447634e-06 0.000000e+00
1.375631e-05 -7.762791e-06 0.000000e+00
3.000000e-06 1.500000e-05 0.000000e+00
1.416220e-05 -7.770816e-06 0.000000e+00
-1.317061e-05 1.198288e-05 0.000000e+00
-1.289063e-05 1.253058e-05 0.000000e+00
1.356243e-05 -7.332067e-06 0.000000e+00
1.199172e-05 1.396275e-05 0.000000e+00
-4.058431e-06 -1.087546e-05 0.000000e+00
-5.229451e-06 -1.448249e-05 0.000000e+00
-5.279908e-06 -1.402195e-05 0.000000e+00
-5.554178e-06 -1.421207e-05 0.000000e+00
1.201029e-05 1.331782e-05 0.000000e+00
2.500000e-06 1.500000e-05 0.000000e+00
1.255898e-05 1.306066e-05 0.000000e+00
1.145539e-05 1.422168e-05 0.000000e+00
-3.724264e-06 -1.134516e-05 0.000000e+00
1.087546e-05 -4.058431e-06 0.000000e+00
1.443545e-05 1.139072e-05 0.000000e+00
-1.448249e-05 5.229451e-06 0.000000e+00
-1.402195e-05 5.279908e-06 0.000000e+00
-1.421207e-05 5.554178e-06 0.000000e+00
1.183564e-05 -1.387480e-05 0.000000e+00
1.134516e-05 -3.724264e-06 0.000000e+00
2.000000e-06 1.500000e-05 0.000000e+00
-1.087546e-05 4.058431e-06 0.000000e+00
-1.387480e-05 -1.183564e-05 0.000000e+00
-1.134516e-05 3.724264e-06 0.000000e+00
1.271442e-05 6.049088e-06 0.000000e+00
1.258890e-05 6.441997e-06 0.000000e+00
1.224291e-05 6.107032e-06 0.000000e+00
-1.183564e-05 1.387480e-05 0.000000e+00
1.197762e-05 5.771637e-06 0.000000e+00
1.210556e-05 5.311223e-06 0.000000e+00
1.243936e-05 5.666539e-06 0.000000e+00
1.500000e-06 1.500000e-05 0.000000e+00
5.595825e-06 8.167473e-06 0.000000e+00
5.109497e-06 8.443357e-06 0.000000e+00
5.149146e-06 8.058543e-06 0.000000e+00
1.274396e-05 1.247613e-05 0.000000e+00
1.303621e-05 1.206541e-05 0.000000e+00
5.419350e-06 8.590079e-06 0.000000e+00
1.190856e-05 -1.329318e-05 0.000000e+00
1.234296e-05 -1.290534e-05 0.000000e+00
-1.329318e-05 -1.190856e-05 0.000000e+00
-1.290534e-05 -1.234296e-05 0.000000e+00
1.500000e-05 -1.500000e-05 2.000000e-07
1.000000e-06 1.500000e-05 0.000000e+00
-1.190856e-05 1.329318e-05 0.000000e+00
-1.234296e-05 1.290534e-05 0.000000e+00
1.391127e-05 -1.131848e-05 0.000000e+00
2.889618e-06 -1.056978e-05 0.000000e+00
2.521001e-06 -1.078995e-05 0.000000e+00
-2.889619e-06 1.056980e-05 0.000000e+00
-2.521001e-06 1.078995e-05 0.000000e+00
-1.056978e-05 -2.889618e-06 0.000000e+00
-1.078995e-05 -2.521001e-06 0.000000e+00
-1.131848e-05 -1.391127e-05 0.000000e+00
5.000000e-07 1.500000e-05 0.000000e+00
1.057201e-05 2.890198e-06 0.000000e+00
1.079050e-05 2.521089e-06 0.000000e+00
1.414298e-05 6.118851e-06 0.000000e+00
1.445907e-05 5.714539e-06 0.000000e+00
1.146995e-05 5.778485e-06 0.000000e+00
1.116052e-05 5.402749e-06 0.000000e+00
1.167029e-05 5.359255e-06 0.000000e+00
1.103376e-05 5.772618e-06 0.000000e+00
6.681070e-06 -8.497805e-06 0.000000e+00
6.441245e-06 -9.003462e-06 0.000000e+00
3.937687e-17 1.500000e-05 0.000000e+00
[...]
POINT_DATA 8236
VECTORS 10.000GHz_fone_imag double
-1.451243e-01 -1.438784e-01 -3.945025e-01
6.518849e-04 -6.505990e-04 6.619708e-03
4.745677e-04 1.100321e-02 2.364269e-02
-1.776123e-02 3.704530e-02 -3.810477e-03
-1.817369e-02 3.317020e-02 -3.102559e-03
-2.111241e-02 3.707447e-02 -3.988247e-03
3.490662e-03 8.244357e-03 2.313233e-03
4.343580e-03 6.466019e-03 2.030355e-03
2.902340e-03 8.255660e-03 3.158337e-03
-1.559546e-02 3.268679e-02 -2.955113e-03
-3.703541e-02 -1.776049e-02 -3.815016e-03
-3.317067e-02 -1.816492e-02 -3.114910e-03
-3.705873e-02 -2.110689e-02 -3.999022e-03
4.303656e-04 1.206263e-02 2.544744e-02
1.082157e-02 1.892566e-03 4.853072e-03
6.329693e-03 -3.554670e-03 2.868611e-03
4.672480e-03 -5.395002e-03 2.226520e-03
-3.268170e-02 -1.559633e-02 -2.955515e-03
2.878372e-02 4.383743e-03 -1.284178e-03
2.788691e-02 3.659448e-03 -9.583506e-04
1.508775e-03 -1.134876e-02 6.196022e-03
-3.566362e-03 -6.299967e-03 2.902131e-03
-5.420912e-03 -4.655505e-03 2.202501e-03
3.092483e-02 4.539708e-03 -1.684138e-03
4.099389e-04 1.282907e-02 2.714383e-02
7.051050e-03 3.431347e-02 -2.516081e-03
-1.132037e-02 -1.529121e-03 6.174213e-03
-6.298117e-03 3.555155e-03 2.802592e-03
-4.724555e-03 5.477789e-03 2.236539e-03
7.066053e-03 3.823300e-02 -3.241820e-03
-6.998311e-03 -3.429203e-02 -2.511381e-03
-1.540410e-03 1.131312e-02 6.165258e-03
3.570821e-03 6.313381e-03 2.903693e-03
5.430347e-03 4.684436e-03 2.176433e-03
-7.106647e-03 -3.820295e-02 -3.227606e-03
4.110317e-04 1.366171e-02 2.881307e-02
7.261169e-03 3.592291e-03 2.555136e-03
7.405247e-03 4.121976e-03 2.108129e-03
8.789494e-03 2.994893e-03 3.027397e-03
5.842056e-03 5.161635e-03 1.806243e-03
3.429923e-02 -6.996130e-03 -2.516613e-03
3.576256e-03 -7.326769e-03 2.419248e-03
5.108311e-03 -5.882790e-03 1.786939e-03
4.047829e-03 -7.370813e-03 2.076201e-03
3.820964e-02 -7.081744e-03 -3.230758e-03
-3.429351e-02 6.999389e-03 -2.515745e-03
4.340277e-04 1.437834e-02 3.048470e-02
-7.363114e-03 -3.609486e-03 2.427446e-03
-5.866203e-03 -5.102426e-03 1.809801e-03
-7.355655e-03 -4.125140e-03 1.936242e-03
-3.820497e-02 7.108804e-03 -3.232552e-03
5.276778e-03 2.563904e-02 -9.239640e-04
4.740304e-03 2.662185e-02 -8.318219e-04
5.597316e-03 2.723647e-02 -1.194488e-03
-3.579006e-03 7.314429e-03 2.543967e-03
-5.153508e-03 5.847425e-03 1.806176e-03
-4.082010e-03 7.371127e-03 2.133516e-03
4.380489e-04 1.509247e-02 3.215137e-02
4.281322e-03 2.488379e-02 -1.088346e-04
1.029416e-02 4.594812e-03 1.414222e-03
1.002204e-02 5.241460e-03 1.166392e-03
1.093032e-02 4.710629e-03 1.358854e-03
1.214231e-02 -1.802240e-03 5.225570e-03
9.770737e-03 -2.852617e-03 3.036831e-03
8.184425e-03 -3.973935e-03 1.876795e-03
6.670185e-03 -4.815875e-03 1.717905e-03
1.054774e-02 5.625281e-03 8.625975e-04
-1.806527e-03 -1.213090e-02 5.178439e-03
4.422091e-04 1.608604e-02 3.383789e-02
-2.862614e-03 -9.815440e-03 3.039482e-03
-3.972825e-03 -8.226363e-03 1.956429e-03
-4.820198e-03 -6.637562e-03 1.688425e-03
6.702602e-03 3.106296e-02 -1.783169e-03
6.726967e-03 2.178112e-02 -8.233754e-05
6.980308e-03 2.089668e-02 1.243961e-05
6.023516e-03 2.090014e-02 -1.051819e-04
-1.213807e-02 1.888208e-03 5.168941e-03
-9.811663e-03 2.832698e-03 3.050334e-03
-8.236293e-03 3.959443e-03 1.958684e-03
4.364059e-04 1.703532e-02 3.551092e-02
-6.688557e-03 4.820092e-03 1.600201e-03
-5.296255e-03 -2.566089e-02 -8.612366e-04
-4.732061e-03 -2.662189e-02 -8.300716e-04
-5.556879e-03 -2.719946e-02 -1.229657e-03
6.351935e-03 2.009558e-02 -4.110277e-05
1.768217e-03 1.249665e-02 5.633836e-03
-4.290059e-03 -2.483191e-02 -6.802276e-05
4.122788e-03 7.937415e-03 1.884218e-03
4.828616e-03 6.630098e-03 1.640891e-03
9.339575e-03 3.134614e-03 2.540338e-03
3.700906e-04 1.773297e-02 3.709754e-02
1.202020e-02 1.956650e-03 5.027435e-03
-6.693060e-03 -3.110601e-02 -1.777821e-03
2.566358e-02 -5.299235e-03 -8.700765e-04
2.662544e-02 -4.734296e-03 -8.447133e-04
2.720238e-02 -5.558323e-03 -1.239208e-03
1.908346e-03 -1.203425e-02 5.128232e-03
2.483676e-02 -4.292150e-03 -8.415130e-05
-1.202862e-02 -1.902271e-03 5.117763e-03
3.111167e-02 -6.693073e-03 -1.795290e-03
-2.561817e-02 5.227352e-03 -9.301040e-04
3.355022e-04 1.848743e-02 3.850532e-02
-2.661842e-02 4.729725e-03 -8.406194e-04
-2.719939e-02 5.558318e-03 -1.230624e-03
-1.946452e-03 1.201166e-02 4.976701e-03
-2.483744e-02 4.283991e-03 -8.483211e-05
7.818339e-03 4.420388e-03 1.630337e-03
6.196616e-03 5.436127e-03 1.469434e-03
4.345454e-03 -7.866824e-03 1.639089e-03
2.971439e-03 -9.252077e-03 2.747552e-03
5.462542e-03 -6.241251e-03 1.443940e-03
-7.836282e-03 -4.279518e-03 1.594090e-03
6.956302e-04 6.286573e-04 6.633982e-03
4.341444e-04 1.905686e-02 3.995108e-02
-9.228929e-03 -2.953291e-03 2.812407e-03
-6.236584e-03 -5.458729e-03 1.452767e-03
-4.297183e-03 7.854100e-03 1.695117e-03
-2.960757e-03 9.230154e-03 2.750674e-03
-5.471012e-03 6.210941e-03 1.497117e-03
1.027847e-02 -3.096000e-03 2.480659e-03
1.320382e-02 -1.926189e-03 5.165042e-03
8.753436e-03 -4.418355e-03 1.419240e-03
6.897382e-03 -5.352887e-03 1.346109e-03
-3.075567e-03 -1.029562e-02 2.477665e-03
3.796260e-04 1.998486e-02 4.135799e-02
-1.978703e-03 -1.320876e-02 5.074041e-03
-4.422837e-03 -8.757615e-03 1.416489e-03
-5.342649e-03 -6.880675e-03 1.330396e-03
-1.036913e-02 3.049006e-03 2.599796e-03
-1.317300e-02 1.864856e-03 5.064334e-03
-8.756038e-03 4.406367e-03 1.433016e-03
-6.937381e-03 5.342810e-03 1.242349e-03
-3.110729e-02 6.692029e-03 -1.785816e-03
1.775252e-03 1.374726e-02 5.409927e-03
3.085060e-03 9.777252e-03 2.608098e-03
3.510093e-04 2.059248e-02 4.266260e-02
4.314644e-03 8.412657e-03 1.591504e-03
5.321722e-03 6.866228e-03 1.362328e-03
-4.822986e-05 -7.298597e-02 -1.528193e-02
-7.310654e-04 -8.050046e-02 -1.799888e-02
-1.422555e-03 -6.808408e-02 -1.133797e-02
1.007039e-02 3.316448e-03 2.095373e-03
1.344895e-02 1.880272e-03 5.227480e-03
3.163231e-03 -1.004882e-02 2.266828e-03
2.011984e-03 -1.333294e-02 4.843683e-03
-9.998780e-03 -3.240562e-03 2.257879e-03
2.650572e-04 2.117809e-02 4.382989e-02
-1.325651e-02 -1.970392e-03 4.918712e-03
-3.110226e-03 1.008790e-02 2.377007e-03
-1.959912e-03 1.332993e-02 4.852962e-03
8.133087e-03 4.938563e-03 1.275676e-03
6.668968e-03 5.820798e-03 1.215510e-03
4.535668e-03 -8.502294e-03 1.407864e-03
5.624314e-03 -6.849948e-03 1.182049e-03
-8.486165e-03 -4.526077e-03 1.426357e-03
-6.823420e-03 -5.674678e-03 1.131912e-03
-4.606612e-03 8.483635e-03 1.382347e-03
3.158800e-04 2.163399e-02 4.492627e-02
-5.634842e-03 6.801471e-03 1.215523e-03
1.101695e-02 -3.224182e-03 2.222541e-03
1.383228e-02 -2.136353e-03 4.734776e-03
6.397835e-03 2.475321e-02 -7.331943e-04
-1.817470e-03 -7.926330e-02 -1.665337e-02
-2.500361e-03 -6.846797e-02 -1.164211e-02
8.697505e-03 -5.101078e-03 1.219307e-03
7.126634e-03 -6.003371e-03 9.191970e-04
-3.187736e-03 -1.105908e-02 2.318606e-03
-2.138693e-03 -1.386989e-02 4.613332e-03
2.445596e-04 2.241105e-02 4.598436e-02
2.900371e-02 -1.295895e-03 9.434874e-03
2.501210e-02 -2.175170e-03 4.686676e-03
2.586969e-02 -1.890838e-03 6.192868e-03
-5.095150e-03 -8.699136e-03 1.217667e-03
-5.999128e-03 -7.126756e-03 9.215065e-04
-1.104387e-02 3.247224e-03 2.266615e-03
-1.386002e-02 2.119371e-03 4.650699e-03
5.005574e-03 2.420044e-02 -1.756823e-04
2.053935e-02 -2.726135e-03 3.629837e-03
1.891539e-02 -3.257601e-03 2.806633e-03
1.830850e-04 2.276473e-02 4.687554e-02
2.121411e-02 -2.491295e-03 4.813618e-03
-8.666201e-03 5.138587e-03 1.151710e-03
-7.184121e-03 6.006866e-03 8.774405e-04
1.895557e-02 -3.495074e-03 2.070343e-03
3.246362e-03 1.061240e-02 2.188878e-03
-6.379254e-03 -2.482456e-02 -7.505647e-04
-1.290953e-03 -2.901569e-02 9.446478e-03
-2.173260e-03 -2.501315e-02 4.685505e-03
-1.889172e-03 -2.587793e-02 6.183350e-03
4.775575e-03 8.953346e-03 1.232657e-03
1.269458e-04 2.301007e-02 4.754535e-02
5.677290e-03 7.307782e-03 1.047736e-03
2.549191e-03 1.298646e-02 3.561439e-03
-4.981514e-03 -2.426349e-02 -1.758318e-04
2.482466e-02 -6.385998e-03 -7.618799e-04
1.429297e-02 1.978004e-03 4.952021e-03
-2.901089e-02 1.235758e-03 9.483839e-03
-2.497181e-02 2.111896e-03 4.715543e-03
-2.587797e-02 1.887194e-03 6.167948e-03
3.407786e-03 -1.071789e-02 2.081742e-03
2.426514e-02 -4.984893e-03 -1.879348e-04
1.094736e-04 2.351388e-02 4.819521e-02
-2.481686e-02 6.346698e-03 -6.793626e-04
-1.068191e-02 -3.453563e-03 1.975792e-03
-2.428490e-02 5.014665e-03 -2.015042e-04
1.952802e-02 4.690894e-03 8.421410e-04
1.869812e-02 5.080220e-03 7.611975e-04
1.913619e-02 5.607848e-03 3.643842e-04
-3.507571e-03 1.070304e-02 2.098450e-03
1.976500e-02 5.924356e-03 1.386684e-04
2.058018e-02 5.353065e-03 1.475941e-04
2.001329e-02 4.987912e-03 5.121396e-04
1.451477e-04 2.375669e-02 4.864935e-02
1.836897e-02 3.283436e-02 -3.060600e-03
1.569581e-02 3.343467e-02 -3.296095e-03
1.786818e-02 3.642129e-02 -3.898794e-03
7.085003e-03 6.327274e-03 9.061945e-04
8.349727e-03 5.408839e-03 1.159242e-03
1.554579e-02 3.077836e-02 -2.823006e-03
4.770380e-03 -9.136855e-03 1.252629e-03
5.833055e-03 -7.606861e-03 9.380654e-04
-9.128354e-03 -4.786822e-03 1.263437e-03
-7.582065e-03 -5.812576e-03 9.320164e-04
-6.530776e-04 6.521383e-04 6.619197e-03
1.032872e-04 2.383561e-02 4.905336e-02
-4.711403e-03 9.077335e-03 1.228147e-03
-5.856263e-03 7.590798e-03 9.553004e-04
1.198013e-02 -3.310309e-03 2.374703e-03
4.873950e-03 -2.748503e-02 -9.709148e-04
4.005509e-03 -2.713674e-02 -9.105200e-04
-4.875310e-03 2.748817e-02 -9.712621e-04
-4.007016e-03 2.714119e-02 -9.082095e-04
-2.748319e-02 -4.873813e-03 -9.810867e-04
-2.713620e-02 -4.006562e-03 -9.104632e-04
-3.294335e-03 -1.198980e-02 2.470945e-03
6.750815e-05 2.414711e-02 4.932142e-02
2.748255e-02 4.814987e-03 -1.016842e-03
2.713476e-02 4.041943e-03 -8.997353e-04
2.434649e-02 2.088975e-03 5.192774e-03
2.782038e-02 1.436175e-03 8.657043e-03
2.013175e-02 6.932635e-03 -1.843905e-05
2.143665e-02 7.167720e-03 -1.313161e-04
2.070653e-02 6.216001e-03 -8.460681e-05
2.085542e-02 7.780555e-03 -3.643827e-04
1.730782e-02 -2.454567e-02 -1.809762e-03
1.478144e-02 -2.385251e-02 -1.589098e-03
-7.835094e-06 2.402620e-02 4.942175e-02
1.464342e-02 -2.211312e-02 -1.249180e-03
-1.193540e-02 3.263654e-03 2.347240e-03
5.682471e-03 -4.348897e-02 -4.112922e-03
5.692708e-03 -3.812383e-02 -2.885897e-03
6.721637e-03 -4.180769e-02 -4.009965e-03
1.581616e-02 -2.610743e-02 -2.010126e-03
-5.632101e-03 4.341998e-02 -4.150692e-03
-5.602022e-03 3.815565e-02 -2.927684e-03
-6.767908e-03 4.188564e-02 -4.062514e-03
-2.453113e-02 -1.732214e-02 -1.804392e-03
-4.771790e-06 2.411587e-02 4.932009e-02
-2.386444e-02 -1.477890e-02 -1.606432e-03
-2.211430e-02 -1.464382e-02 -1.256347e-03
6.008041e-03 -2.542693e-02 -1.081693e-03
7.225331e-03 -2.518127e-02 -8.745995e-04
6.750531e-03 -2.667466e-02 -1.462392e-03
7.661320e-03 -2.712974e-02 -1.423113e-03
3.688112e-03 1.099168e-02 2.017809e-03
-6.008975e-03 2.543017e-02 -1.078268e-03
-7.225431e-03 2.518194e-02 -8.756205e-04
-6.752635e-03 2.667813e-02 -1.463433e-03
-6.764169e-05 2.376415e-02 4.907657e-02
-7.663952e-03 2.713178e-02 -1.422206e-03
4.933154e-03 9.766016e-03 1.275812e-03
-2.542493e-02 -6.011845e-03 -1.090193e-03
-2.517774e-02 -7.226945e-03 -8.882856e-04
-2.667263e-02 -6.753088e-03 -1.492563e-03
-2.712703e-02 -7.663345e-03 -1.440561e-03
2.490971e-02 6.201226e-03 -8.907425e-04
2.513970e-02 7.160280e-03 -7.668659e-04
2.637237e-02 6.581275e-03 -1.395504e-03
2.704669e-02 7.650050e-03 -1.385035e-03
-6.315658e-05 2.380095e-02 4.873688e-02
2.118949e-02 -4.250882e-03 6.697898e-04
2.087065e-02 -4.838728e-03 3.467975e-04
7.850770e-03 -6.318595e-03 8.698774e-04
-4.249244e-03 -2.115577e-02 6.683218e-04
-4.886788e-03 -2.094199e-02 3.106510e-04
4.091892e-03 -1.069034e-02 1.660196e-03
-2.112908e-02 4.231438e-03 7.021209e-04
-2.087671e-02 4.828578e-03 3.452034e-04
-6.314168e-03 -7.849732e-03 8.731114e-04
6.387197e-03 -1.939291e-02 1.575364e-04
-1.205722e-04 2.340596e-02 4.829327e-02
5.876722e-03 -2.014496e-02 6.589997e-05
5.506928e-03 -1.967920e-02 3.124055e-04
6.621249e-03 -2.025288e-02 -4.551134e-05
-1.062913e-02 -4.088469e-03 1.626284e-03
-6.398347e-03 1.938814e-02 8.278403e-05
-5.890097e-03 2.014114e-02 1.016012e-04
-5.526897e-03 1.969194e-02 2.780883e-04
-6.619039e-03 2.023136e-02 -6.177031e-05
-7.801042e-03 6.291573e-03 8.627768e-04
-1.938851e-02 -6.379378e-03 1.475973e-04
-2.445828e-04 2.323478e-02 4.760701e-02
-2.013790e-02 -5.882499e-03 5.262854e-05
-1.967514e-02 -5.505805e-03 2.956462e-04
-2.023825e-02 -6.663593e-03 -3.040548e-05
-4.105389e-03 1.066198e-02 1.605685e-03
2.645833e-02 8.527331e-03 -1.212177e-03
2.579659e-02 9.388246e-03 -1.312708e-03
2.762267e-02 9.766357e-03 -1.504243e-03
2.460944e-02 8.119108e-03 -9.921494e-04
6.106051e-03 7.680821e-03 8.149151e-04
-4.348617e-02 -5.684456e-03 -4.119509e-03
-2.101906e-04 2.282308e-02 4.682508e-02
-3.812177e-02 -5.695244e-03 -2.895822e-03
-4.180467e-02 -6.725552e-03 -4.018148e-03
-2.612127e-02 -1.570896e-02 -2.066399e-03
4.352296e-02 5.669792e-03 -4.192745e-03
3.823357e-02 5.664723e-03 -3.228572e-03
4.189690e-02 6.746957e-03 -3.939693e-03
5.176844e-03 -9.463028e-03 1.144764e-03
1.639322e-02 7.197553e-03 1.332612e-04
1.575011e-02 6.420051e-03 2.485142e-04
1.520983e-02 7.525682e-03 2.962066e-05
-2.215098e-04 2.221830e-02 4.597737e-02
1.668953e-02 6.056141e-03 4.522489e-04
-9.456327e-03 -5.173122e-03 1.126433e-03
6.140172e-03 -2.217280e-02 -9.733298e-05
5.299188e-03 -2.295660e-02 -2.493558e-04
4.892109e-03 -2.212826e-02 -1.345195e-04
6.155671e-03 -2.382297e-02 -4.153834e-04
-5.157469e-03 9.405586e-03 1.177419e-03
-2.216849e-02 -6.140855e-03 -9.364244e-05
-2.295320e-02 -5.298751e-03 -2.436071e-04
-2.212444e-02 -4.892738e-03 -1.274055e-04
1.442203e-01 1.446108e-01 -3.945864e-01
-2.678365e-04 2.191385e-02 4.504799e-02
-2.382158e-02 -6.156572e-03 -4.279229e-04
3.064120e-02 1.192015e-03 1.289525e-02
-6.132417e-03 2.216956e-02 -9.324020e-05
-5.281553e-03 2.295836e-02 -2.439372e-04
-4.886036e-03 2.210810e-02 -9.847361e-05
-6.155889e-03 2.382602e-02 -4.127878e-04
1.760032e-02 -4.435438e-03 1.336190e-03
1.716318e-02 -4.206080e-03 1.463723e-03
1.856046e-02 -3.979582e-03 1.744926e-03
-3.489062e-03 -1.895962e-02 2.086505e-03
-3.239132e-04 2.110749e-02 4.382518e-02
-4.409033e-03 -1.759402e-02 1.369101e-03
-4.209148e-03 -1.717314e-02 1.448947e-03
-3.960382e-03 -1.856904e-02 1.787527e-03
-1.895745e-02 3.488639e-03 2.071497e-03
-1.760091e-02 4.431830e-03 1.334677e-03
-1.714413e-02 4.197692e-03 1.446139e-03
-1.856173e-02 3.979827e-03 1.744283e-03
6.194224e-03 9.363387e-03 7.902656e-04
5.948101e-03 1.020251e-02 7.851500e-04
6.735730e-03 9.950286e-03 5.974240e-04
-2.354315e-04 2.059054e-02 4.264553e-02
6.126232e-03 1.080463e-02 6.693462e-04
7.073394e-03 8.795986e-03 5.944124e-04
7.692315e-03 9.484225e-03 4.427488e-04
1.554798e-02 1.748616e-02 -1.162735e-03
1.418534e-02 1.639255e-02 -9.712919e-04
1.397110e-02 1.809104e-02 -9.318591e-04
5.215684e-03 2.126980e-02 7.279827e-05
5.895104e-03 2.174629e-02 -1.419182e-04
-2.695908e-03 -2.066562e-02 3.758415e-03
-3.256518e-03 -1.891709e-02 2.815480e-03
-2.647796e-04 2.006317e-02 4.147431e-02
-2.385619e-03 -2.113617e-02 4.762922e-03
-6.827370e-03 -1.316183e-01 -6.188277e-02
8.152200e-03 8.195200e-03 3.272320e-04
7.632654e-03 7.669518e-03 5.782670e-04
6.477571e-03 8.347573e-03 7.342799e-04
8.691482e-03 8.517871e-03 1.701777e-04
9.122506e-03 7.588274e-03 4.257538e-04
9.937582e-03 8.185089e-03 4.323948e-04
-7.892639e-03 -2.369479e-02 -8.693930e-04
-7.099061e-03 -2.414863e-02 -6.311632e-04
-3.839179e-04 1.935640e-02 4.012864e-02
-8.388669e-03 -2.497151e-02 -1.041988e-03
-6.872519e-03 -2.282829e-02 -4.563471e-04
2.367355e-02 -7.870525e-03 -8.089500e-04
2.415194e-02 -7.106540e-03 -6.400382e-04
2.497939e-02 -8.409213e-03 -9.721203e-04
2.284437e-02 -6.850623e-03 -4.554031e-04
-2.366780e-02 7.868714e-03 -8.124034e-04
-2.415346e-02 7.093760e-03 -6.419394e-04
-2.498862e-02 8.409405e-03 -9.781414e-04
-2.283898e-02 6.849732e-03 -4.831723e-04
-4.309070e-04 1.862858e-02 3.863698e-02
8.014169e-03 2.354472e-02 -7.667768e-04
7.256912e-03 2.425385e-02 -7.073064e-04
8.234933e-03 2.497034e-02 -1.038951e-03
6.790477e-03 2.286759e-02 -4.022466e-04
1.320465e-01 -7.976300e-03 -6.052970e-02
4.666934e-02 1.689488e-02 -5.464232e-03
4.250637e-02 1.440403e-02 -4.816611e-03
3.893365e-02 1.546168e-02 -3.988921e-03
3.717163e-02 1.247148e-02 -3.380267e-03
-2.052871e-02 2.720648e-03 3.626694e-03
-4.366959e-04 1.783798e-02 3.707793e-02
-1.890878e-02 3.274291e-03 2.752500e-03
-2.118365e-02 2.503062e-03 4.779660e-03
-1.317522e-01 7.733326e-03 -6.200450e-02
8.671157e-03 1.320986e-01 -5.818149e-02
-1.730718e-02 2.454164e-02 -1.811558e-03
-1.478461e-02 2.385391e-02 -1.592771e-03
-1.464567e-02 2.211467e-02 -1.252227e-03
6.578263e-03 -1.140251e-02 5.576590e-04
5.769621e-03 -1.167452e-02 7.555192e-04
6.435124e-03 -1.075306e-02 6.514058e-04
-4.054926e-04 1.709855e-02 3.555745e-02
1.216440e-02 3.995554e-02 -4.138334e-03
1.427607e-02 4.001390e-02 -4.433735e-03
1.259861e-02 3.614432e-02 -3.527297e-03
1.471913e-02 4.499497e-02 -5.220573e-03
6.547084e-03 2.370183e-02 -5.641540e-04
7.778128e-03 2.613293e-02 -1.114698e-03
-1.582357e-02 2.610256e-02 -2.014415e-03
-1.140148e-02 -6.576389e-03 5.599812e-04
-1.167412e-02 -5.767589e-03 7.558270e-04
-1.075320e-02 -6.433516e-03 6.642179e-04
-4.753405e-04 1.620474e-02 3.394719e-02
1.302512e-02 7.664421e-03 1.768786e-04
1.371489e-02 6.915928e-03 2.751237e-04
1.285466e-02 6.826623e-03 3.506169e-04
-6.577454e-03 1.140166e-02 5.572615e-04
-5.769090e-03 1.167454e-02 7.560226e-04
-6.433338e-03 1.075240e-02 6.514976e-04
1.779590e-02 -1.613154e-02 -1.237534e-03
1.765396e-02 -1.460881e-02 -9.616318e-04
1.953374e-02 -1.622345e-02 -1.228822e-03
1.659984e-02 -1.504682e-02 -1.138356e-03
-4.641962e-04 1.517599e-02 3.219067e-02
1.276278e-02 1.612268e-02 -6.621593e-04
-7.723919e-03 -2.603504e-02 -1.092367e-03
-7.302086e-02 9.104237e-05 -1.531673e-02
-8.019354e-02 8.984813e-04 -1.770797e-02
-6.793816e-02 1.347036e-03 -1.107452e-02
2.604040e-02 -7.730933e-03 -1.102937e-03
8.012414e-02 -3.240452e-03 -1.782989e-02
7.034959e-02 -4.291470e-03 -1.297468e-02
-2.604748e-02 7.724664e-03 -1.106012e-03
1.716386e-02 4.327331e-02 -4.918738e-03
1.537276e-01 -1.436382e-01 -3.911961e-01
-4.143984e-04 1.444313e-02 3.050426e-02
1.734003e-02 5.048682e-02 -6.326140e-03
2.062794e-02 4.859588e-02 -6.387318e-03
2.153691e-02 5.709504e-02 -9.328726e-03
9.277140e-03 -6.497226e-03 7.484184e-04
1.014398e-02 -6.231840e-03 7.212975e-04
9.833469e-03 -7.181808e-03 5.004116e-04
1.108946e-02 -6.568121e-03 5.112490e-04
8.741779e-03 -7.461095e-03 4.553572e-04
9.086796e-03 -8.294968e-03 3.657436e-04
-6.489317e-03 -9.277990e-03 6.965627e-04
-3.890080e-04 1.370346e-02 2.886485e-02
-6.260893e-03 -1.015775e-02 6.835964e-04
-7.132401e-03 -9.811978e-03 4.898368e-04
-6.558454e-03 -1.111213e-02 4.823587e-04
-7.444122e-03 -8.759708e-03 4.610197e-04
-8.285936e-03 -9.082359e-03 3.575999e-04
-9.260972e-03 6.470185e-03 7.058514e-04
-1.015188e-02 6.226047e-03 7.161681e-04
-9.794580e-03 7.157919e-03 5.279776e-04
-1.108647e-02 6.546829e-03 4.661988e-04
-8.763836e-03 7.474968e-03 4.886355e-04
-4.488402e-04 1.287453e-02 2.717766e-02
-9.064625e-03 8.278718e-03 3.605107e-04
7.634017e-04 2.897755e-02 4.648207e-03
6.649910e-04 3.164992e-02 8.486122e-03
4.280534e-04 3.472772e-02 1.309769e-02
-1.770721e-02 1.611635e-02 -1.249225e-03
-1.772483e-02 1.467262e-02 -9.761171e-04
-1.954874e-02 1.623278e-02 -1.205782e-03
3.352736e-02 2.032994e-02 -3.431291e-03
3.808593e-02 2.077521e-02 -4.415382e-03
3.444661e-02 1.813223e-02 -3.617957e-03
-4.679740e-04 1.194376e-02 2.542390e-02
3.888591e-02 1.833691e-02 -4.212404e-03
7.937184e-03 -9.107734e-03 3.450066e-04
6.953358e-03 -9.177042e-03 5.335702e-04
7.759611e-03 -8.094658e-03 4.749705e-04
6.673860e-03 -8.474408e-03 6.540397e-04
-9.106033e-03 -7.935160e-03 3.496167e-04
-9.172371e-03 -6.953457e-03 5.383308e-04
-8.103296e-03 -7.764367e-03 5.085198e-04
-8.468645e-03 -6.683160e-03 6.682210e-04
-7.931681e-03 9.095134e-03 3.359615e-04
-4.655397e-04 1.110098e-02 2.362039e-02
-6.958648e-03 9.183930e-03 5.891527e-04
-7.800340e-03 8.106284e-03 4.196344e-04
-6.670134e-03 8.475226e-03 6.415587e-04
1.159270e-02 5.338092e-03 9.900096e-04