# vtk DataFile Version 2.0
Electric current density generated by TTH
ASCII
DATASET UNSTRUCTURED_GRID
POINTS 8159 double
2.718942e-05 2.760727e-05 -1.537270e-22
3.355600e-05 -1.726672e-05 -4.974192e-07
5.687037e-06 3.728238e-05 4.778148e-07
-1.490656e-06 3.768416e-05 4.778140e-07
3.145801e-05 -2.128080e-05 -6.116829e-07
3.620533e-05 -1.193539e-05 6.276368e-07
3.562046e-05 -1.303319e-05 5.979815e-07
3.081167e-05 2.150682e-05 3.107367e-07
3.452680e-05 -1.585119e-05 6.142326e-07
6.951450e-06 3.717207e-05 -5.490313e-07
3.620609e-05 1.194055e-05 6.276277e-07
2.690734e-05 2.788227e-05 -1.537270e-22
3.561992e-05 1.303299e-05 5.977969e-07
3.371192e-05 1.745840e-05 6.078686e-07
3.331796e-05 1.826359e-05 6.150097e-07
-1.543538e-05 3.464955e-05 5.986538e-07
-1.447629e-05 3.502057e-05 5.855485e-07
3.720265e-05 8.744232e-06 6.202730e-07
2.788626e-05 -2.571029e-05 -5.979027e-07
2.714349e-05 -2.645234e-05 -5.880134e-07
3.376742e-05 -1.740088e-05 6.133015e-07
2.763267e-05 -2.637692e-05 6.224847e-07
2.662248e-05 2.815439e-05 -1.537270e-22
3.440871e-05 -1.606337e-05 -6.101715e-07
3.788170e-05 -2.478501e-06 -6.074502e-07
3.788170e-05 2.478501e-06 -6.074502e-07
-1.493939e-05 3.515146e-05 -6.232878e-07
3.799062e-05 4.474573e-06 -6.134671e-07
3.799062e-05 -4.474573e-06 -6.134671e-07
3.844163e-05 8.433364e-07 -5.337138e-07
3.844163e-05 -8.433364e-07 -5.337138e-07
4.655898e-06 3.797244e-05 -6.126799e-07
-3.889490e-07 3.825484e-05 -6.126799e-07
2.633486e-05 2.842360e-05 -1.537270e-22
2.168491e-05 3.113125e-05 -6.008800e-07
2.257628e-05 3.049691e-05 -6.022914e-07
2.229264e-05 3.099201e-05 6.251192e-07
-8.278579e-06 3.726750e-05 -6.251947e-07
-1.164888e-05 3.635479e-05 -6.252345e-07
2.507921e-05 2.878180e-05 6.252442e-07
2.044009e-05 3.209506e-05 -6.237839e-07
3.212724e-05 -2.057422e-05 6.269272e-07
3.502376e-05 -1.445520e-05 5.835553e-07
3.502376e-05 1.445520e-05 5.835553e-07
2.604452e-05 2.868987e-05 -1.537270e-22
3.521187e-05 -1.447740e-05 -6.257473e-07
3.494697e-05 -1.547514e-05 -6.197134e-07
3.574404e-05 -1.313930e-05 -6.264811e-07
3.572476e-05 1.312085e-05 -6.245135e-07
3.519548e-05 1.449385e-05 -6.249914e-07
3.711744e-05 -6.743225e-06 -4.872676e-07
3.147952e-05 -2.155060e-05 6.269702e-07
1.169678e-05 3.599061e-05 5.632088e-07
1.286406e-05 3.567855e-05 5.969718e-07
1.089366e-05 3.651074e-05 6.273400e-07
2.575149e-05 2.895318e-05 -1.537270e-22
3.247405e-07 -3.785560e-05 5.695981e-07
1.673774e-06 -3.789800e-05 5.995504e-07
-6.725310e-07 -3.807023e-05 6.260636e-07
-8.015892e-06 -3.697183e-05 5.567360e-07
-6.947845e-06 -3.730324e-05 6.025008e-07
-5.712102e-06 -3.750707e-05 6.009532e-07
-9.292450e-06 -3.677921e-05 5.995504e-07
-4.785444e-06 -3.778214e-05 6.265694e-07
-3.193911e-05 -2.026379e-05 5.536503e-07
-3.266395e-05 -1.930396e-05 6.016167e-07
2.545580e-05 2.921350e-05 -1.537270e-22
-3.324202e-05 -1.830137e-05 6.031409e-07
-3.378466e-05 -1.727910e-05 6.031357e-07
-3.429590e-05 -1.624076e-05 6.031357e-07
-3.477523e-05 -1.518731e-05 6.031357e-07
-3.145300e-05 -2.122529e-05 6.025008e-07
-3.073109e-05 -2.224855e-05 6.009113e-07
-3.028910e-05 -2.307830e-05 6.262814e-07
-3.710355e-05 -7.515259e-06 5.695981e-07
-3.740913e-05 -6.335106e-06 6.016167e-07
-3.759009e-05 -5.192037e-06 6.031409e-07
2.515748e-05 2.947079e-05 -1.537270e-22
-3.773092e-05 -4.043266e-06 6.031357e-07
-3.783668e-05 -2.890737e-06 6.031357e-07
-3.790724e-05 -1.735518e-06 6.031357e-07
-3.794253e-05 -5.786856e-07 6.031357e-07
-3.794253e-05 5.786856e-07 6.031357e-07
-3.790724e-05 1.735518e-06 6.031357e-07
-3.783694e-05 2.881554e-06 6.030085e-07
-3.710606e-05 -8.540096e-06 6.260615e-07
-2.772892e-05 -2.577323e-05 5.695981e-07
-2.868660e-05 -2.482215e-05 5.995504e-07
2.485656e-05 2.972504e-05 -1.537270e-22
-2.719968e-05 -2.664530e-05 6.260636e-07
-3.717803e-05 7.137647e-06 5.695981e-07
-3.748531e-05 5.823390e-06 5.995504e-07
-3.719494e-05 8.099967e-06 6.253182e-07
-2.854472e-05 2.481788e-05 5.536503e-07
-2.783201e-05 2.578674e-05 6.016167e-07
-2.703638e-05 2.662717e-05 6.031409e-07
-2.621176e-05 2.743928e-05 6.031357e-07
-2.932725e-05 2.407731e-05 6.025008e-07
-3.010179e-05 2.309309e-05 6.009532e-07
2.455306e-05 2.997621e-05 -1.537270e-22
-3.078967e-05 2.241399e-05 6.265694e-07
-3.629599e-05 1.075888e-05 5.695981e-07
-3.601256e-05 1.194455e-05 6.016167e-07
-3.563644e-05 1.303903e-05 6.031409e-07
-3.522221e-05 1.411973e-05 6.031357e-07
-3.677872e-05 9.854855e-06 6.260615e-07
-1.746264e-05 -3.358882e-05 5.695981e-07
-1.629096e-05 -3.425879e-05 5.995504e-07
-1.844413e-05 -3.331080e-05 6.260636e-07
-2.257553e-05 -3.038911e-05 5.695981e-07
2.424703e-05 3.022429e-05 -1.537270e-22
-2.369029e-05 -2.962820e-05 5.995504e-07
-2.189242e-05 -3.115308e-05 6.260615e-07
1.177309e-05 -3.627353e-05 -6.274427e-07
1.179886e-05 3.626282e-05 -6.274943e-07
1.327670e-05 3.574999e-05 -6.274564e-07
1.325132e-05 -3.574631e-05 -6.276318e-07
3.139273e-05 2.154780e-05 -6.260784e-07
-2.037963e-05 3.226189e-05 -6.264224e-07
3.712075e-05 -5.587115e-06 2.355827e-07
3.764025e-05 -6.291197e-06 6.262459e-07
2.393850e-05 3.046924e-05 -1.537270e-22
3.712075e-05 5.587115e-06 2.355827e-07
3.761579e-05 6.311608e-06 6.272858e-07
3.755979e-05 7.030412e-06 6.209336e-07
3.046866e-05 2.297055e-05 -6.265598e-07
-2.327074e-05 2.946515e-05 -2.531238e-07
-7.706727e-06 3.737701e-05 6.261867e-07
-8.584685e-06 3.688974e-05 5.777802e-07
3.436701e-05 -1.676954e-05 6.161488e-07
3.324400e-05 -1.874539e-05 -6.260786e-07
1.474070e-05 -3.519868e-05 -6.263591e-07
2.362748e-05 3.071104e-05 -1.537270e-22
1.468479e-05 3.521335e-05 -6.268205e-07
-4.565140e-06 3.774080e-05 6.188431e-07
2.478173e-05 -2.882850e-05 -6.188610e-07
-3.611701e-05 -1.238818e-05 6.245761e-07
-1.220442e-05 -3.617951e-05 6.245761e-07
-3.184165e-05 2.107165e-05 6.245761e-07
-2.542692e-05 -2.847945e-05 6.249505e-07
-2.058362e-05 -3.215929e-05 6.245761e-07
-3.344837e-05 1.841498e-05 6.245761e-07
-3.455730e-05 1.622963e-05 6.249503e-07
2.331403e-05 3.094967e-05 -1.537270e-22
3.753764e-06 -3.799364e-05 6.249505e-07
-1.372267e-05 -3.564360e-05 6.233377e-07
-3.680506e-05 -1.016330e-05 6.245761e-07
-3.102181e-06 -3.805630e-05 6.245761e-07
8.469376e-06 -3.723137e-05 6.245761e-07
6.183850e-06 -3.767845e-05 6.245761e-07
1.451721e-05 3.456845e-05 8.621801e-09
3.249843e-05 2.006411e-05 -6.234310e-07
3.199049e-05 2.086396e-05 -6.234628e-07
3.326888e-05 1.875942e-05 -6.234047e-07
2.299817e-05 3.118510e-05 -1.537270e-22
3.711370e-05 6.674699e-06 -4.739431e-07
-1.979426e-05 -3.206522e-05 4.496990e-07
-3.543360e-05 -1.280506e-05 4.433917e-07
-3.615485e-05 -1.062123e-05 4.496082e-07
-3.175974e-05 2.028060e-05 4.496082e-07
-3.378954e-05 1.668086e-05 4.496082e-07
-3.270976e-05 1.870978e-05 4.496082e-07
-2.563967e-05 -2.761518e-05 4.496990e-07
-1.145732e-05 -3.589205e-05 4.433914e-07
-1.405754e-05 -3.495562e-05 4.433914e-07
2.267992e-05 3.141731e-05 -1.537270e-22
-2.449071e-06 -3.760310e-05 4.496990e-07
4.435380e-06 -3.742073e-05 4.496082e-07
6.708447e-06 -3.708073e-05 4.496082e-07
8.956695e-06 -3.659627e-05 4.433911e-07
3.098313e-05 -2.236649e-05 -6.208373e-07
-1.964311e-05 3.277046e-05 6.216992e-07
-2.038055e-05 3.199586e-05 5.997204e-07
-2.129062e-05 3.154295e-05 6.242898e-07
-2.468049e-05 2.916458e-05 6.218002e-07
-1.001179e-05 -3.686872e-05 6.220850e-07
2.235934e-05 3.164627e-05 -1.537270e-22
-1.579386e-05 -3.478639e-05 6.220850e-07
-3.785422e-05 5.185408e-06 6.215612e-07
2.360223e-06 -3.813093e-05 6.220850e-07
-2.932748e-05 -2.448342e-05 6.220850e-07
-2.438212e-05 -2.941175e-05 6.220850e-07
3.750883e-05 -6.956594e-06 6.270189e-07
-3.515127e-05 1.496490e-05 6.220479e-07
-2.579075e-05 2.819040e-05 6.215054e-07
-3.802560e-05 3.729804e-06 6.215115e-07
-3.532761e-05 -1.454372e-05 6.220479e-07
2.203644e-05 3.187195e-05 -1.537270e-22
1.069670e-05 -3.667617e-05 6.220466e-07
2.211304e-06 3.760441e-05 4.362521e-07
2.213435e-05 -3.048036e-05 -4.362625e-07
1.163788e-05 -3.564199e-05 3.405774e-08
3.714923e-05 -9.048670e-06 6.170559e-07
3.675062e-05 -1.055155e-05 6.170559e-07
1.345366e-05 3.514164e-05 3.900982e-07
-1.546742e-05 3.415728e-05 -6.313813e-08
-1.686284e-05 3.348750e-05 2.753602e-08
2.767418e-05 -2.529976e-05 6.004177e-08
2.171127e-05 3.209435e-05 -1.537270e-22
3.606988e-05 -1.023430e-05 -3.017174e-08
1.042228e-05 3.672547e-05 -6.252154e-07
2.126968e-05 -3.180599e-05 -6.113831e-07
2.121995e-05 3.183846e-05 -6.115246e-07
2.873503e-05 -2.408439e-05 -2.499231e-08
-2.285603e-05 3.066480e-05 6.150594e-07
3.816616e-05 2.525900e-06 6.142270e-07
3.816616e-05 -2.525900e-06 6.142270e-07
1.451379e-05 -3.461012e-05 -2.127650e-07
3.781897e-05 5.252101e-06 -6.246354e-07
2.138385e-05 3.231342e-05 -1.537270e-22
3.781897e-05 -5.252101e-06 -6.246354e-07
3.343886e-05 -1.840988e-05 6.255520e-07
3.565772e-05 1.388577e-05 6.105623e-07
3.565773e-05 -1.388592e-05 6.105480e-07
3.407215e-05 -1.564862e-05 -3.387343e-08
3.813039e-05 3.360339e-06 6.075381e-07
3.813039e-05 -3.360339e-06 6.075381e-07
-2.345515e-05 3.013131e-05 6.243989e-07
3.508169e-05 -1.529676e-05 6.092016e-07
3.508242e-05 1.529610e-05 6.091024e-07
2.105422e-05 3.252916e-05 -1.537270e-22
1.582332e-05 3.399074e-05 2.068555e-08
-2.384185e-05 2.997584e-05 -6.010835e-07
5.054542e-06 3.773588e-05 6.258220e-07
-8.115039e-07 3.806424e-05 6.258220e-07
2.346939e-05 -3.023637e-05 -6.081023e-07
-2.721871e-06 3.818072e-05 6.076819e-07
7.782808e-07 3.826970e-05 6.076819e-07
3.497619e-06 3.811748e-05 6.076819e-07
1.569597e-06 3.805824e-05 6.269202e-07
3.749436e-05 7.929837e-06 -5.938561e-07
2.072242e-05 3.274153e-05 -1.537270e-22
2.887482e-05 -2.513950e-05 -6.056952e-07
-1.656425e-05 3.451595e-05 6.057816e-07
3.676816e-05 1.046701e-05 6.182078e-07
6.967335e-06 3.764577e-05 6.057015e-07
2.184344e-05 -3.120598e-05 -6.269548e-07
3.443537e-05 1.673750e-05 6.050196e-07
2.730982e-05 2.689648e-05 -5.914094e-07
2.648751e-05 2.724321e-05 -6.153706e-07
1.015874e-05 3.609056e-05 -9.763457e-09
2.968751e-05 2.368601e-05 -6.113678e-07
2.038847e-05 3.295052e-05 -1.537270e-22
3.187215e-05 2.076338e-05 6.222872e-07
3.171660e-05 2.146878e-05 6.016048e-07
[...]
POINT_DATA 8159
VECTORS 10.000GHz_fone_imag double
4.073244e+10 -3.925254e+10 1.759481e+08
-2.805540e+10 -5.388857e+10 -6.978947e+08
5.933290e+10 -9.314810e+09 -1.097781e+09
5.946024e+10 1.612307e+09 7.875635e+08
-3.310689e+10 -4.835660e+10 -5.944156e+08
-1.880127e+10 -5.622074e+10 -4.834264e+08
-2.003620e+10 -5.592070e+10 4.336185e+08
3.496895e+10 -4.954543e+10 -1.021040e+09
-2.520011e+10 -5.532216e+10 -1.916048e+09
5.970965e+10 -1.428787e+10 5.077905e+08
1.895408e+10 -5.613210e+10 5.448850e+08
4.100403e+10 -3.797861e+10 1.828089e+08
1.994475e+10 -5.528716e+10 6.891860e+08
2.764249e+10 -5.307518e+10 6.005734e+08
2.789816e+10 -5.089106e+10 2.451198e+07
5.496614e+10 2.494737e+10 -1.336502e+08
5.509844e+10 2.356100e+10 2.484229e+08
1.319423e+10 -5.818442e+10 3.857826e+08
-3.962165e+10 -4.444575e+10 -1.884443e+08
-4.149569e+10 -4.411007e+10 7.635626e+07
-2.695764e+10 -5.244974e+10 3.062949e+08
-4.084924e+10 -4.192526e+10 -2.493629e+08
4.001405e+10 -3.962907e+10 -7.275533e+08
-2.617648e+10 -5.618491e+10 -1.718052e+08
-4.048325e+09 -6.068518e+10 5.873523e+08
4.069060e+09 -6.074897e+10 -5.929242e+08
5.421852e+10 2.379786e+10 4.084534e+08
6.209995e+09 -5.834910e+10 -9.605316e+08
-6.213103e+09 -5.833853e+10 9.599190e+08
1.176890e+09 -5.806320e+10 9.695031e+08
-2.083079e+09 -5.782614e+10 -9.596210e+08
5.846099e+10 -8.094629e+09 -4.596840e+08
5.914859e+10 1.742728e+09 4.899977e+08
4.084782e+10 -3.824467e+10 -2.761095e+08
4.870764e+10 -3.491277e+10 1.083838e+09
4.899930e+10 -3.366273e+10 -1.033316e+09
5.002788e+10 -3.554181e+10 -2.517558e+08
5.956376e+10 1.421271e+10 3.554893e+08
5.757192e+10 1.769188e+10 -2.445530e+08
4.470102e+10 -3.764269e+10 -2.995985e+08
5.135171e+10 -3.295309e+10 -1.685339e+09
-3.180376e+10 -4.988428e+10 -5.025741e+08
-2.428640e+10 -5.536357e+10 3.680777e+08
2.311044e+10 -5.554002e+10 -5.997090e+08
4.388757e+10 -3.772845e+10 -1.117026e+09
-2.322213e+10 -5.422829e+10 5.843467e+08
-2.450579e+10 -5.659745e+10 -4.588718e+08
-2.047728e+10 -5.827639e+10 -2.363736e+08
2.216200e+10 -5.589263e+10 -6.353578e+08
2.426993e+10 -5.368245e+10 3.407572e+08
-1.125880e+10 -6.013625e+10 6.194966e+08
-3.307588e+10 -5.033251e+10 7.792473e+08
5.861101e+10 -1.916895e+10 -9.587977e+08
5.688342e+10 -2.122332e+10 2.255070e+08
5.755999e+10 -1.950000e+10 2.348917e+07
4.270725e+10 -3.819762e+10 -1.004689e+08
-6.154903e+10 -1.476687e+08 5.315523e+08
-6.018525e+10 -2.865914e+09 4.194192e+08
-5.950190e+10 1.576561e+08 8.090553e+07
-5.861662e+10 1.318016e+10 -1.782854e+08
-6.039724e+10 1.039611e+10 2.955320e+07
-5.866869e+10 8.636544e+09 -8.424826e+08
-6.015319e+10 1.441250e+10 1.257463e+08
-5.735448e+10 7.234838e+09 -2.756007e+08
-3.309360e+10 5.112962e+10 -9.177226e+08
-3.147655e+10 5.162242e+10 5.702435e+08
4.252584e+10 -3.762834e+10 -1.863421e+08
-2.873108e+10 5.309456e+10 -1.730954e+08
-2.751055e+10 5.441813e+10 -3.976980e+08
-2.486475e+10 5.426163e+10 -2.501304e+08
-2.468438e+10 5.550746e+10 4.701013e+08
-3.480552e+10 5.046108e+10 -4.019326e+07
-3.506874e+10 4.834753e+10 -6.862899e+08
-3.555952e+10 4.645563e+10 4.553853e+08
-1.274044e+10 6.023450e+10 -4.569947e+08
-1.177783e+10 5.974202e+10 -1.285684e+08
-7.713476e+09 5.976468e+10 -1.869795e+08
4.340235e+10 -3.616215e+10 2.049175e+08
-6.227200e+09 6.056230e+10 -3.991309e+08
-3.610303e+09 5.965644e+10 -2.792962e+08
-2.864371e+09 5.950363e+10 -4.326401e+08
-1.363082e+08 5.940987e+10 9.521694e+07
6.227425e+06 6.082619e+10 -2.309640e+08
4.157933e+09 5.920052e+10 -3.680631e+08
4.490989e+09 5.937137e+10 8.759963e+07
-1.219802e+10 5.772456e+10 -2.758766e+07
-4.067700e+10 4.471537e+10 -9.645082e+08
-3.923973e+10 4.574696e+10 4.761134e+07
4.276398e+10 -3.709738e+10 -4.523188e+07
-3.957651e+10 4.332918e+10 -1.148773e+08
1.058051e+10 5.900370e+10 1.057962e+09
9.330093e+09 5.979209e+10 1.622698e+08
1.302974e+10 5.742049e+10 -1.278840e+09
3.928789e+10 4.638877e+10 -8.011625e+08
4.027260e+10 4.489043e+10 1.162910e+08
4.189175e+10 4.191626e+10 -3.491764e+07
4.309249e+10 4.219047e+10 1.412201e+08
3.848962e+10 4.774398e+10 -5.768756e+07
3.599466e+10 4.723988e+10 -7.761037e+08
4.406975e+10 -3.424780e+10 -1.133137e+09
3.394841e+10 4.651312e+10 -3.059438e+08
1.662874e+10 5.649702e+10 -7.246266e+08
1.803561e+10 5.733783e+10 -2.189019e+08
2.061006e+10 5.635403e+10 2.721450e+07
2.236569e+10 5.625238e+10 -3.772557e+08
1.655718e+10 5.796656e+10 1.907810e+07
-5.360459e+10 2.819910e+10 5.611798e+08
-5.438895e+10 2.553751e+10 1.013440e+07
-5.210779e+10 2.845422e+10 4.255833e+08
-4.800734e+10 3.650812e+10 -1.006644e+09
4.427730e+10 -3.542422e+10 1.531764e+09
-4.712468e+10 3.768186e+10 -2.504143e+08
-4.759062e+10 3.497814e+10 -3.759077e+07
-5.707000e+10 -1.831407e+10 5.344932e+07
5.808476e+10 -1.762302e+10 5.699035e+08
5.537140e+10 -2.036839e+10 -3.773134e+07
-5.542769e+10 -2.034549e+10 -1.057764e+08
3.326696e+10 -4.864876e+10 -1.172786e+08
5.087262e+10 3.177775e+10 -1.247776e+09
-9.159674e+09 -6.165398e+10 1.538678e+09
-1.101263e+10 -5.829343e+10 4.781799e+08
4.362601e+10 -3.608457e+10 2.382031e+08
9.081907e+09 -6.151084e+10 -1.615536e+09
1.038994e+10 -5.862385e+10 -6.150553e+08
1.047582e+10 -5.834221e+10 8.761367e+08
3.676423e+10 -4.779049e+10 -3.583269e+07
4.983562e+10 3.952755e+10 8.550976e+08
5.671608e+10 1.120050e+10 1.158646e+09
5.993126e+10 1.451794e+10 8.362634e+08
-2.618181e+10 -5.232275e+10 -1.005897e+08
-2.963915e+10 -5.064480e+10 1.244706e+08
-5.423639e+10 -2.441361e+10 -1.061318e+09
4.495263e+10 -3.422384e+10 -1.675184e+08
5.555068e+10 -2.378407e+10 -5.937619e+08
5.812639e+10 7.493342e+09 -1.210429e+08
-4.487842e+10 -3.868118e+10 8.144017e+08
-1.844921e+10 5.667494e+10 -8.326219e+08
-5.549197e+10 1.927173e+10 -5.081319e+08
3.193251e+10 4.949196e+10 -3.731649e+08
-4.377792e+10 3.909066e+10 7.362711e+08
-4.981347e+10 3.150704e+10 -6.556354e+08
2.789741e+10 5.205759e+10 1.573934e+09
2.493754e+10 5.288281e+10 7.006576e+08
4.501691e+10 -3.493047e+10 -5.001631e+08
-5.833477e+10 -5.795393e+09 -7.028107e+08
-5.533793e+10 2.074026e+10 7.905595e+07
-1.576564e+10 5.708834e+10 -6.930470e+08
-6.086455e+10 5.679217e+09 -1.995492e+08
-5.796134e+10 -1.201107e+10 -1.007128e+09
-5.959201e+10 -9.830683e+09 -9.770088e+08
5.750525e+10 -2.273345e+10 4.829367e+08
3.042849e+10 -5.024480e+10 -1.395587e+09
3.234201e+10 -4.976948e+10 4.711801e+08
2.921284e+10 -5.029504e+10 7.366218e+07
4.547423e+10 -3.368988e+10 -3.916020e+08
1.123157e+10 -6.211165e+10 -1.714164e+09
-5.323347e+10 3.215763e+10 3.287946e+08
-2.157747e+10 5.706991e+10 -1.263785e+08
-1.800926e+10 5.858174e+10 1.336920e+08
3.293841e+10 5.118506e+10 -3.304847e+08
2.820653e+10 5.545999e+10 -4.490806e+08
3.261009e+10 5.341317e+10 -1.256486e+09
-4.546573e+10 4.215073e+10 9.866311e+07
-5.830845e+10 1.741442e+10 -5.912212e+07
-5.582620e+10 2.380206e+10 -1.231352e+09
4.782565e+10 -3.513502e+10 4.785000e+08
-6.062558e+10 3.427821e+09 3.545596e+08
-6.207479e+10 -8.033457e+09 3.892941e+08
-5.868863e+10 -1.131529e+10 4.431935e+08
-5.904990e+10 -1.551383e+10 -8.537894e+07
-3.339709e+10 -4.864091e+10 -3.582704e+08
4.982817e+10 2.980523e+10 1.101374e+08
5.009873e+10 3.258971e+10 -5.849478e+08
4.855423e+10 3.245869e+10 3.881262e+08
4.679342e+10 3.834507e+10 4.529053e+08
-5.561994e+10 1.498650e+10 4.428706e+08
4.671225e+10 -3.249794e+10 5.503178e+08
-5.339607e+10 2.443736e+10 -2.831860e+08
7.489438e+09 5.783240e+10 1.571931e+08
-5.837685e+10 -3.682785e+09 -1.706772e+08
-3.772634e+10 4.501758e+10 1.390988e+08
-4.463228e+10 3.745108e+10 -1.501603e+08
-1.153172e+10 -5.969771e+10 -9.780671e+07
2.326041e+10 5.369663e+10 -2.562982e+08
4.471095e+10 4.146510e+10 -3.931391e+07
6.221198e+09 5.858970e+10 2.173438e+08
-2.320728e+10 5.566033e+10 -2.003433e+08
4.604592e+10 -3.188712e+10 8.626904e+08
-5.671075e+10 -1.610261e+10 -2.234806e+08
6.228568e+10 -2.434437e+09 -1.902101e+09
-4.981504e+10 -3.422400e+10 -2.005391e+09
-5.947810e+10 -1.913941e+10 -1.821500e+08
-1.447608e+10 -5.734979e+10 -8.600300e+08
-1.555072e+10 -5.532068e+10 3.293022e+08
5.789123e+10 -2.185953e+10 4.300367e+08
5.915410e+10 2.740773e+10 1.048686e+09
5.594407e+10 2.847367e+10 -4.805756e+08
-4.011102e+10 -4.618451e+10 9.896059e+07
4.758583e+10 -3.143078e+10 -7.944094e+07
-1.811001e+10 -6.051012e+10 5.321637e+08
5.802319e+10 -1.751803e+10 9.412792e+08
-4.877785e+10 -3.166816e+10 -2.404153e+08
4.882424e+10 -3.273853e+10 3.185434e+08
-3.970945e+10 -4.765518e+10 2.186805e+08
4.649876e+10 3.428422e+10 -3.071908e+06
4.471131e+09 -5.766328e+10 5.489240e+08
-4.391162e+09 -5.773544e+10 -5.804883e+08
-5.747475e+10 -2.470267e+10 4.695299e+08
8.731840e+09 -5.847242e+10 -8.682454e+08
4.835984e+10 -3.115851e+10 3.907229e+08
-8.769002e+09 -5.845344e+10 8.640745e+08
-2.800839e+10 -5.290100e+10 1.541907e+09
2.041203e+10 -5.484380e+10 4.712864e+08
-2.174510e+10 -5.472347e+10 5.797354e+07
-2.560881e+10 -5.569047e+10 -1.155121e+09
5.337380e+09 -5.857530e+10 1.142290e+08
-5.334249e+09 -5.859104e+10 -1.159587e+08
4.618135e+10 3.646725e+10 -9.811079e+07
-2.360921e+10 -5.473404e+10 1.834549e+09
2.163026e+10 -5.321930e+10 1.461912e+08
4.795376e+10 -3.222875e+10 -7.575628e+08
5.585595e+10 -2.539179e+10 3.391695e+08
4.549456e+10 3.590098e+10 1.142647e+07
5.958650e+10 -8.405606e+09 9.090330e+07
6.017296e+10 1.603765e+09 -7.018909e+07
-4.533063e+10 -3.490112e+10 1.529177e+08
5.717921e+10 3.305325e+09 6.428165e+08
5.903640e+10 -1.405173e+09 7.982655e+07
5.964083e+10 -4.955373e+09 7.375088e+08
5.856805e+10 -2.808711e+09 1.164627e+09
1.239194e+10 -5.631711e+10 3.588468e+08
4.827013e+10 -3.006070e+10 -4.759589e+08
-3.805955e+10 -4.267796e+10 8.551550e+08
5.308916e+10 2.530763e+10 -1.688075e+09
1.585357e+10 -5.556641e+10 2.050322e+08
5.899443e+10 -1.090321e+10 -6.694682e+08
-4.806523e+10 -3.375109e+10 -4.649002e+08
2.682743e+10 -5.211438e+10 5.133474e+08
4.305339e+10 -4.353323e+10 1.375494e+08
4.292122e+10 -4.058712e+10 4.930340e+08
5.669837e+10 -1.775587e+10 1.828517e+09
3.717509e+10 -4.677985e+10 8.133411e+08
4.774763e+10 -2.915470e+10 -8.029468e+08
3.330433e+10 -5.021130e+10 4.382750e+08
3.423689e+10 -4.820526e+10 -4.917238e+08
2.601668e+10 -5.259454e+10 1.386158e+09
-2.747230e+10 -5.392796e+10 -1.569819e+09
5.860749e+10 -2.104389e+10 5.300759e+08
5.643801e+10 -2.709532e+10 -1.825491e+09
4.937635e+10 3.716256e+10 7.538307e+08
5.134729e+10 -3.486409e+10 3.329118e+08
1.773885e+10 -5.572250e+10 -2.444115e+07
2.532925e+10 -5.251103e+10 -1.990586e+08
4.812984e+10 -2.891762e+10 -5.280786e+08
-1.756589e+10 -5.599795e+10 1.936878e+08
-4.573901e+10 -3.844143e+10 7.640926e+08
5.907316e+10 6.937662e+09 -5.499684e+08
3.532203e+10 -4.660497e+10 4.269322e+08
3.665325e+10 -4.664648e+10 5.123597e+07
-1.230507e+10 -5.795639e+10 -1.318595e+07
1.286126e+10 -5.474527e+10 -5.373126e+08
1.368643e+10 -5.587995e+10 1.573161e+09
-1.195916e+10 -5.813939e+10 3.206732e+08
5.435024e+10 -2.134517e+10 8.982774e+08
4.840036e+10 -2.771780e+10 -1.831904e+08
-5.652676e+10 -2.382400e+10 -9.396817e+08
5.720474e+10 -7.712017e+09 6.489645e+07
5.771747e+10 1.096606e+09 -1.423516e+08
4.539146e+10 3.706021e+10 -8.463781e+08
5.235384e+10 2.779764e+10 1.030105e+09
-2.195657e+10 -5.966982e+10 4.037986e+08
2.215254e+10 -6.146878e+10 -2.485727e+08
-5.591519e+10 -2.922604e+10 1.155811e+08
-3.650109e+10 -4.621597e+10 -9.741673e+08
3.978197e+10 -4.244224e+10 -4.899588e+06
4.837083e+10 -2.798348e+10 -5.012876e+07
3.896139e+10 -4.408905e+10 2.320160e+09
-2.367868e+10 -5.634151e+10 -6.556278e+08
2.371175e+10 -5.724054e+10 8.897460e+08
-5.617991e+10 -1.556641e+10 -2.043165e+08
1.681284e+08 -6.299461e+10 -2.410126e+08
-6.603973e+08 -6.248203e+10 -6.526672e+08
-5.580469e+10 -2.564053e+10 3.701614e+08
6.075001e+10 4.023421e+09 -3.497920e+08
-4.445626e+10 -4.310878e+10 3.353828e+08
-3.274049e+10 -5.237339e+10 -8.921657e+08
4.871005e+10 -2.880552e+10 -3.919924e+08
5.743378e+10 2.299254e+10 -4.722359e+08
5.811560e+10 1.521584e+10 1.058288e+09
-5.340789e+10 -2.536423e+10 1.547781e+09
-4.614511e+10 -3.518044e+10 1.218460e+09
5.754231e+10 -5.627044e+09 9.329430e+08
6.052585e+10 1.373226e+10 -5.576428e+08
4.903301e+10 -3.594301e+10 -3.792291e+08
-4.802408e+09 -6.096493e+10 5.821199e+08
4.809913e+09 -6.098195e+10 -5.838797e+08
-4.979303e+10 -3.854574e+10 -2.727700e+08
4.954821e+10 -2.583944e+10 -2.208567e+08
-3.094093e+10 -5.428275e+10 2.069807e+08
-3.102446e+10 5.431355e+10 1.356394e+07
2.012026e+10 5.733463e+10 8.776597e+07
-9.549825e+09 6.186670e+10 1.726953e+07
4.396113e+10 4.580511e+10 -1.862527e+08
-4.971293e+09 6.138961e+10 -6.918333e+06
-2.673288e+10 5.485732e+10 1.343127e+08
-4.537426e+08 6.113570e+10 -1.844868e+08
1.930984e+09 6.138524e+10 3.678876e+08
-6.067748e+10 9.132294e+09 -1.412177e+08
5.070881e+10 -2.590709e+10 8.717357e+08
-3.607685e+10 4.981290e+10 -5.030610e+08
3.738753e+10 4.889709e+10 -2.717244e+08
-2.715515e+10 -5.584636e+10 1.112888e+08
5.788569e+10 7.814566e+09 7.714413e+07
-4.385172e+10 -3.778225e+10 6.195555e+08
-5.954306e+10 -1.300330e+10 -6.922512e+08
-6.283556e+10 -9.457065e+09 -5.755980e+08
-6.057750e+10 -5.732772e+09 6.313640e+08
-1.924515e+10 5.798306e+10 -5.030776e+08
3.505477e+10 4.987213e+10 8.053539e+08
4.888269e+10 -2.762899e+10 4.248987e+08
-5.721356e+10 1.986116e+10 -9.008688e+08
2.554121e+10 5.491330e+10 -7.038945e+08
3.103338e+10 5.683535e+10 -3.651167e+08
-4.539874e+10 4.011165e+10 -5.714239e+08
-5.119922e+10 3.325391e+10 5.623968e+08
-6.516328e+10 6.227694e+09 1.242198e+09
-5.721756e+10 2.079555e+10 -5.307949e+07
-1.560032e+10 5.857375e+10 3.686025e+08
-4.853054e+10 3.610125e+10 -7.531566e+08
-5.460532e+10 2.799867e+10 3.287247e+08
4.919552e+10 -2.443185e+10 -2.183499e+08
-6.113163e+10 -7.552647e+08 3.442406e+08
-3.220120e+10 5.256036e+10 3.260273e+08
1.796557e+10 5.942115e+10 -1.387618e+09
-6.050962e+10 1.304126e+10 -6.673972e+08
-4.152936e+10 4.520282e+10 -3.453043e+08
4.113857e+10 4.571011e+10 6.828229e+08
1.147119e+10 5.970024e+10 8.565910e+08
-1.043990e+10 6.047254e+10 1.144390e+09
-7.439455e+09 -6.096011e+10 4.040086e+07
7.414087e+09 -6.090469e+10 -6.252736e+07
5.047613e+10 -2.363271e+10 1.664026e+08
-6.457420e+10 -9.862074e+08 3.788405e+08
-1.221667e+10 6.320892e+10 -6.417870e+08
1.111236e+10 6.171643e+10 1.631731e+06
1.819399e+10 5.934865e+10 1.687528e+07
-6.025988e+10 1.346465e+10 -6.603615e+08
-4.300145e+10 4.721669e+10 7.855017e+08
-3.321146e+10 5.259534e+10 -4.927302e+08
4.080424e+10 4.680184e+10 -4.018974e+08
-5.062698e+10 3.846612e+10 2.505973e+08
-5.653379e+10 2.871184e+10 8.224490e+07
4.941956e+10 -2.558469e+10 3.576701e+08
5.830129e+10 3.922628e+09 4.692292e+08
5.859739e+10 -9.911450e+09 1.743521e+08
5.611770e+10 -1.464310e+10 -1.374074e+09
5.212788e+10 -2.556000e+10 -8.350082e+08
5.450590e+10 -3.052964e+10 3.327512e+08
-5.482076e+10 -3.039512e+10 -8.800254e+08
5.008203e+10 -3.351904e+10 -3.634535e+08
5.574123e+10 -3.096473e+10 8.353221e+08
5.239396e+10 -2.416137e+10 -5.677169e+08
4.438984e+10 3.989195e+10 -6.357175e+07
5.096857e+10 -2.257801e+10 1.737113e+08
5.549359e+10 -1.750428e+10 -6.144829e+08
-5.114251e+10 -2.958295e+10 -5.898898e+08
-4.922276e+10 -2.991955e+10 -3.745509e+08
5.204613e+10 -3.116022e+10 1.094372e+09
-5.714016e+10 -1.429313e+10 5.274888e+08
-5.811338e+10 -1.210605e+10 8.415249e+08
-6.007642e+10 -1.045215e+10 1.308035e+08
-5.950403e+10 -1.148099e+10 -6.831976e+07
-5.853313e+10 -7.863742e+09 -4.363746e+07
-5.858300e+10 -5.560286e+09 7.929252e+08
5.122177e+10 -2.469889e+10 -2.055986e+07
-5.903423e+10 4.050436e+09 -5.619243e+08
-5.969336e+10 2.078136e+09 -1.079872e+09
-5.932487e+10 7.085064e+09 1.191562e+09
-5.842466e+10 8.632217e+09 -1.426779e+09
-1.892185e+10 5.602689e+10 -2.331504e+08
-2.141058e+10 5.453177e+10 -1.094125e+09
-3.878635e+10 4.473759e+10 -1.490885e+09
-3.819579e+10 4.391729e+10 -2.747940e+07
-5.621493e+10 2.316064e+10 6.457035e+08
-5.478471e+10 1.998550e+10 -6.190237e+08
5.098304e+10 -2.375219e+10 2.215460e+08
-5.691024e+10 2.522236e+10 1.728129e+09
-5.291424e+10 2.516932e+10 1.225182e+08
-5.136249e+10 3.020107e+10 9.271030e+07
-4.961242e+10 3.231156e+10 7.696079e+08
-5.664982e+10 1.680539e+10 3.787543e+07
-5.598549e+10 1.963782e+10 9.466860e+08
4.247292e+10 4.017432e+10 -5.132573e+08
4.154423e+10 4.185874e+10 7.476517e+08
2.683414e+10 5.282847e+10 1.104052e+08
2.475677e+10 5.333736e+10 -8.491104e+08
5.285425e+10 -2.095806e+10 -1.899157e+08
-3.573546e+10 4.675639e+10 1.159435e+09
-3.521768e+10 4.775104e+10 -7.882880e+08
-4.288280e+10 4.469092e+10 -6.236410e+07
-4.044226e+10 4.224378e+10 1.076235e+09
3.172694e+10 4.992110e+10 2.605915e+08
3.517421e+10 5.065860e+10 6.393443e+08
-4.524604e+10 3.776615e+10 -3.533619e+08
-4.702019e+10 3.686774e+10 1.426451e+09
-5.233487e+10 2.844322e+10 3.001197e+08
-5.231418e+10 2.727936e+10 -4.476578e+08
5.212049e+10 -2.241807e+10 8.181468e+08
-1.726721e+10 5.613158e+10 -9.079769e+07
-1.509587e+10 5.713909e+10 7.003435e+08
2.858625e+10 5.243156e+10 -5.361572e+08
2.960759e+10 5.005226e+10 6.217265e+08
-4.285637e+10 4.099038e+10 3.650133e+07
-4.390661e+10 3.879121e+10 -7.885502e+08
-2.478141e+10 5.420120e+10 -6.593200e+08
-2.592928e+10 5.391124e+10 -2.301081e+08
-4.993389e+10 3.580782e+10 -1.094575e+08
-4.811054e+10 3.527508e+10 9.144099e+08
5.142203e+10 -2.267413e+10 1.061324e+08
3.495560e+10 4.850004e+10 1.131837e+09
3.667315e+10 4.842352e+10 -1.028588e+09
7.871203e+09 5.837655e+10 3.431100e+08
9.632044e+09 5.865430e+10 -1.330888e+09
1.662389e+10 5.789559e+10 3.165068e+07
1.723638e+10 5.735742e+10 7.984886e+08
5.600147e+09 5.872572e+10 -1.143649e+09
3.868237e+09 5.901418e+10 -5.370774e+08
-1.334199e+10 6.009362e+10 -1.111081e+08
-1.171295e+10 5.898642e+10 4.853189e+08
5.358176e+10 -2.107595e+10 1.785107e+08
2.312889e+10 5.385007e+10 -4.468596e+08
2.208492e+10 5.454553e+10 3.131157e+08
1.336843e+10 6.018377e+10 2.092859e+08
1.160731e+10 5.794904e+10 -2.824633e+08
-6.121408e+10 9.445840e+08 1.600110e+08
-6.017541e+10 -6.181853e+08 -4.843789e+08
-6.072438e+10 1.665616e+10 -1.582845e+09
-5.681037e+10 1.382184e+10 -9.627221e+08
-5.896062e+10 -3.157242e+09 1.635606e+09
-5.834719e+10 -2.695559e+09 -9.375441e+07
5.291916e+10 -1.962326e+10 1.456215e+09
-4.720039e+10 -3.935618e+10 -1.797065e+08
6.152814e+10 6.220616e+09 -4.980869e+08
6.990136e+09 5.735328e+10 -2.856527e+08
3.929789e+10 -4.834489e+10 2.076005e+09
5.259865e+10 -2.820559e+10 -4.197464e+08
6.114835e+10 -1.469690e+10 -7.408113e+08
-3.185632e+10 5.059381e+10 -2.011206e+09
-3.424824e+10 4.896436e+10 1.965865e+08
-9.416938e+09 5.942845e+10 -9.862834e+08
-1.072615e+10 5.658284e+10 4.597416e+08
5.228934e+10 -1.972341e+10 4.566124e+08
3.928477e+10 4.496172e+10 -1.990731e+09
3.720242e+10 4.681277e+10 1.959869e+08
1.882637e+10 5.589371e+10 7.057451e+08
2.002627e+10 5.474692e+10 -6.129239e+08
-3.563919e+09 6.056089e+10 5.997693e+08
-5.630024e+08 5.865745e+10 -9.442305e+08
3.381654e+08 5.904461e+10 -4.538325e+07
2.401098e+09 5.912288e+10 -9.390222e+08
4.107908e+10 4.238679e+10 -1.104617e+09
3.907937e+10 4.249614e+10 3.638143e+08
5.117441e+10 -1.916632e+10 -3.213999e+08
-2.687708e+10 5.260484e+10 9.381280e+07
-2.466563e+10 5.287871e+10 -7.282411e+08
-3.006020e+10 5.199848e+10 -9.755365e+08
-2.952890e+10 4.934628e+10 6.351964e+08
-5.815216e+10 1.187713e+10 -1.639348e+09
-5.897540e+10 9.803944e+09 2.175634e+08
-6.293067e+09 5.875933e+10 9.518116e+07
-4.495363e+09 5.793518e+10 -6.285079e+08
3.277220e+09 -6.309020e+10 2.546630e+08
-3.263354e+09 -6.311296e+10 -8.221669e+08
5.261793e+10 -1.817344e+10 3.076647e+08
-5.155068e+10 -2.670541e+10 2.776950e+08
-5.510845e+10 -2.498665e+10 -2.742197e+09
3.202181e+09 6.234476e+10 9.415208e+08
-2.006794e+08 6.303267e+10 -4.832547e+08
-3.913110e+09 6.092973e+10 -9.997463e+08
-2.534233e+10 5.521753e+10 -1.126661e+09
-9.334644e+09 6.175044e+10 7.322272e+08
4.333679e+10 4.627418e+10 -1.428446e+07
2.061041e+10 5.956938e+10 -1.687464e+09
-3.084627e+10 5.434632e+10 6.697724e+08
5.447946e+10 -1.960160e+10 5.276563e+08
-5.233564e+10 -2.748693e+10 5.401474e+08
-3.610013e+10 4.968893e+10 -2.804780e+08
-6.064442e+10 8.992485e+09 5.651447e+08
3.728001e+10 4.874233e+10 6.901609e+08
-5.625327e+10 2.558525e+10 -9.284763e+08
-3.907692e+10 5.013792e+10 -2.303978e+08
4.848818e+10 4.210442e+10 3.968408e+08