# vtk DataFile Version 2.0
Electric current density generated by TTH
ASCII
DATASET UNSTRUCTURED_GRID
POINTS 4790 double
3.456332e-05 -8.465571e-21 -2.216672e-22
3.418530e-05 5.097850e-06 -2.216672e-22
-1.988658e-06 3.450606e-05 -2.216672e-22
3.633199e-06 3.256351e-05 -1.486720e-07
4.963042e-06 3.238750e-05 -1.486500e-07
3.246721e-05 1.034446e-05 -8.032164e-07
3.246721e-05 -1.034446e-05 -8.032164e-07
-3.275970e-05 -3.753455e-06 5.923232e-07
-1.747064e-05 -2.773851e-05 2.255676e-07
-6.865619e-06 -3.205492e-05 2.259656e-07
-3.248384e-05 5.415931e-06 5.402850e-07
2.142659e-05 2.646330e-05 -8.158450e-07
2.142659e-05 -2.646330e-05 -8.158450e-07
-2.555923e-06 3.446868e-05 -2.216672e-22
-1.834513e-05 2.862856e-05 8.372041e-07
-2.589963e-05 2.203061e-05 8.372041e-07
-5.924187e-06 3.348197e-05 8.372041e-07
1.226233e-05 -3.041364e-05 2.638741e-07
1.226233e-05 3.041364e-05 2.638741e-07
-2.006261e-06 3.404095e-05 7.899022e-07
-1.494350e-05 3.065132e-05 7.899022e-07
1.357510e-06 3.407299e-05 7.899022e-07
-2.364746e-05 -2.279261e-05 3.942456e-07
1.775333e-05 -2.907202e-05 -8.089406e-07
-3.122497e-06 3.442198e-05 -2.216672e-22
1.775333e-05 2.907202e-05 -8.089406e-07
2.140150e-05 -2.485489e-05 -2.847718e-07
2.140150e-05 2.485489e-05 -2.847718e-07
1.122009e-06 -3.409518e-05 7.821322e-07
8.095567e-06 3.302654e-05 8.362803e-07
8.095567e-06 -3.302654e-05 8.362803e-07
3.292552e-05 1.999476e-06 6.060796e-07
3.292552e-05 -1.999476e-06 6.060796e-07
2.834512e-06 -3.401025e-05 7.734939e-07
-1.749069e-05 -2.816071e-05 -7.490886e-07
-3.688227e-06 3.436597e-05 -2.216672e-22
-7.146062e-06 -3.237104e-05 -7.490891e-07
-2.412789e-05 2.395630e-05 8.376788e-07
-1.305907e-05 3.139300e-05 8.376788e-07
3.353421e-05 -5.922408e-06 8.143369e-07
3.353421e-05 5.922408e-06 8.143369e-07
-2.911936e-05 -1.770499e-05 8.010991e-07
-3.190239e-05 -1.213514e-05 7.708724e-07
-3.031894e-05 -1.274033e-05 4.734657e-07
-2.985239e-05 -1.352105e-05 1.817128e-07
-3.222299e-05 -6.976715e-06 -5.871904e-07
-4.252958e-06 3.430066e-05 -2.216672e-22
7.248901e-06 -3.338273e-05 7.527653e-07
-1.122544e-05 -3.217943e-05 8.001529e-07
-2.290479e-05 -2.345082e-05 2.208906e-07
5.719877e-07 -3.397804e-05 -8.448249e-07
2.572035e-05 2.165667e-05 9.043607e-07
2.572035e-05 -2.165667e-05 9.043607e-07
-2.218270e-05 -2.440206e-05 -5.966137e-07
3.187891e-05 1.198554e-05 8.121879e-07
3.187891e-05 -1.198554e-05 8.121879e-07
-1.838069e-05 -2.720619e-05 3.721217e-07
-4.816539e-06 3.422607e-05 -2.216672e-22
-5.842632e-06 -3.230941e-05 3.723998e-07
-2.660451e-05 -2.134896e-05 7.835113e-07
-1.806075e-05 -2.891355e-05 7.949775e-07
-1.889143e-05 2.690832e-05 4.580021e-07
-2.592026e-05 2.022582e-05 4.580021e-07
-7.090041e-06 3.210413e-05 4.580021e-07
-7.263674e-06 -3.330804e-05 7.949570e-07
1.302441e-05 3.029899e-05 -5.988769e-07
1.302441e-05 -3.029899e-05 -5.988769e-07
1.329981e-06 -3.298225e-05 -6.305258e-07
-5.378817e-06 3.414222e-05 -2.216672e-22
-1.674699e-05 -2.966966e-05 8.060646e-07
-8.732134e-06 -3.293175e-05 8.060644e-07
-3.178599e-05 -8.017047e-06 -2.240115e-07
1.132625e-05 -3.094551e-05 -5.672876e-07
1.132625e-05 3.094551e-05 -5.672876e-07
3.417072e-05 -7.965092e-07 7.395186e-07
3.417072e-05 7.965092e-07 7.395186e-07
2.438600e-06 -3.286269e-05 5.671820e-07
-2.975967e-05 -1.615545e-05 -8.817953e-07
1.618144e-05 -2.995906e-05 -8.159909e-07
-5.939640e-06 3.404913e-05 -2.216672e-22
1.618144e-05 2.995906e-05 -8.159909e-07
-3.173298e-05 -1.024043e-05 8.488440e-07
2.822169e-05 -1.909161e-05 -8.045376e-07
2.822169e-05 1.909161e-05 -8.045376e-07
-2.458081e-05 -2.368651e-05 7.686750e-07
-3.302962e-05 -8.278453e-06 8.152560e-07
3.170285e-05 9.931827e-06 -7.930048e-07
3.170285e-05 -9.931827e-06 -7.930048e-07
2.782754e-05 -1.747396e-05 -4.244287e-07
2.782754e-05 1.747396e-05 -4.244287e-07
-6.498856e-06 3.394684e-05 -2.216672e-22
3.403995e-05 3.087842e-06 7.397237e-07
3.403995e-05 -3.087842e-06 7.397237e-07
-2.782838e-05 -1.986807e-05 7.301978e-07
9.769519e-06 3.267528e-05 7.873788e-07
9.769519e-06 -3.267528e-05 7.873788e-07
5.663912e-06 -3.363692e-05 7.839855e-07
-3.195881e-05 1.195290e-05 7.778438e-07
2.360926e-05 -2.308204e-05 -6.394488e-07
2.360926e-05 2.308204e-05 -6.394488e-07
1.685093e-05 2.846144e-05 6.926458e-07
-7.056313e-06 3.383536e-05 -2.216672e-22
1.685093e-05 -2.846144e-05 6.926458e-07
-3.152062e-05 9.652487e-06 -5.822512e-07
2.921217e-05 1.767463e-05 -7.642928e-07
2.921217e-05 -1.767463e-05 -7.642928e-07
-3.227885e-05 6.531137e-06 -5.412644e-07
-3.293346e-05 7.414859e-08 -5.420443e-07
2.803100e-05 -1.949833e-05 7.626293e-07
2.803100e-05 1.949833e-05 7.626293e-07
3.248292e-05 -6.865064e-06 -7.806706e-07
3.248292e-05 6.865064e-06 -7.806706e-07
3.409683e-05 5.659420e-06 -2.216672e-22
-7.611862e-06 3.371472e-05 -2.216672e-22
3.270628e-05 4.253751e-06 6.011224e-07
3.270628e-05 -4.253751e-06 6.011224e-07
-2.766235e-05 -1.993173e-05 -7.926047e-07
3.418043e-05 -8.196215e-07 -7.321807e-07
3.418043e-05 8.196215e-07 -7.321807e-07
-2.443509e-05 -2.203605e-05 -4.998377e-07
-3.304948e-05 -3.439566e-06 -7.961785e-07
-3.301749e-05 2.209578e-06 7.054330e-07
-3.191636e-05 8.644841e-06 6.846464e-07
-2.859755e-05 -1.859817e-05 -7.823742e-07
-8.165351e-06 3.358497e-05 -2.216672e-22
-1.288775e-05 -3.157276e-05 7.889008e-07
-2.912356e-05 -1.761737e-05 -8.217335e-07
-1.213727e-05 -3.067816e-05 6.123178e-07
-2.757549e-05 -1.817040e-05 -6.453554e-07
-9.377599e-06 3.164216e-05 -6.237180e-07
-3.282412e-05 3.246233e-06 -6.039352e-07
-2.081183e-05 2.560900e-05 -6.203055e-07
-2.738898e-05 1.841221e-05 -6.237180e-07
-3.256137e-05 -1.026830e-05 -7.648741e-07
-2.905787e-05 -1.511398e-05 -2.068152e-08
-8.716632e-06 3.344612e-05 -2.216672e-22
-2.951590e-05 -1.474103e-05 6.127077e-07
3.158367e-05 1.297099e-05 -7.639995e-07
3.158367e-05 -1.297099e-05 -7.639995e-07
2.581523e-07 -3.411266e-05 7.821328e-07
-3.406370e-05 -2.252617e-06 -7.673688e-07
-3.248617e-05 -5.249132e-06 5.053710e-07
-2.863402e-05 -1.592188e-05 1.322912e-07
-3.112449e-05 1.120170e-05 -6.952282e-07
-3.207673e-05 8.080536e-06 -6.952282e-07
1.494353e-05 3.072097e-05 7.514548e-07
-9.265554e-06 3.329823e-05 -2.216672e-22
1.494353e-05 -3.072097e-05 7.514548e-07
2.650506e-05 1.970027e-05 -6.460680e-07
2.650506e-05 -1.970027e-05 -6.460680e-07
3.336298e-05 -2.120545e-06 -8.758368e-07
3.336298e-05 2.120545e-06 -8.758368e-07
2.539402e-05 -2.114302e-05 -6.643025e-07
2.539402e-05 2.114302e-05 -6.643025e-07
3.025471e-05 -1.574904e-05 7.851851e-07
3.025471e-05 1.574904e-05 7.851851e-07
3.238225e-05 -5.764099e-06 4.803406e-07
-9.811970e-06 3.314134e-05 -2.216672e-22
3.238225e-05 5.764099e-06 4.803406e-07
-3.267344e-05 2.784016e-06 2.613835e-07
2.957941e-05 1.705021e-05 7.651451e-07
2.957941e-05 -1.705021e-05 7.651451e-07
-2.774001e-05 -1.861467e-05 8.693798e-07
-1.495169e-05 -2.943583e-05 6.370584e-07
-9.854026e-06 -3.151068e-05 6.371151e-07
9.918322e-06 -3.147082e-05 -6.176033e-07
9.918322e-06 3.147082e-05 -6.176033e-07
-3.109640e-05 -1.083662e-05 5.379636e-07
-1.035573e-05 3.297547e-05 -2.216672e-22
-1.408005e-06 3.284402e-05 -4.519456e-07
-1.393094e-05 2.977652e-05 -4.519456e-07
-2.892565e-05 1.562110e-05 -4.519456e-07
-1.679700e-05 2.825904e-05 -4.519456e-07
-2.431104e-05 2.212884e-05 -4.519456e-07
-4.637231e-06 3.254548e-05 -4.519456e-07
1.834924e-06 3.282294e-05 -4.519461e-07
6.766801e-06 3.217016e-05 -4.518519e-07
-3.061652e-05 1.195149e-05 4.384003e-07
3.158461e-05 1.020841e-05 7.764712e-07
-1.089669e-05 3.280069e-05 -2.216672e-22
3.158461e-05 -1.020841e-05 7.764712e-07
1.982774e-05 2.780240e-05 7.608328e-07
1.982774e-05 -2.780240e-05 7.608328e-07
-3.146558e-05 -1.006833e-05 -6.582287e-07
3.280552e-05 -9.712546e-06 7.150310e-07
3.280552e-05 9.712546e-06 7.150310e-07
-2.495436e-05 -2.135668e-05 3.980823e-07
-2.581228e-05 -2.246223e-05 7.117202e-07
-1.671645e-05 -2.880942e-05 -8.344811e-07
-1.684583e-05 -2.963557e-05 -7.960538e-07
-1.143470e-05 3.261703e-05 -2.216672e-22
-8.153258e-06 -3.229468e-05 -8.344811e-07
-8.637581e-06 -3.297637e-05 -7.960539e-07
2.762797e-05 -1.826463e-05 -7.271662e-07
2.762797e-05 1.826463e-05 -7.271662e-07
-3.098846e-05 -1.435849e-05 7.576256e-07
3.413138e-05 2.578824e-06 -7.026672e-07
3.413138e-05 -2.578824e-06 -7.026672e-07
-3.200289e-05 -8.631971e-06 -7.464742e-07
3.195015e-05 -8.642117e-06 7.109784e-07
3.195015e-05 8.642117e-06 7.109784e-07
-1.196962e-05 3.242454e-05 -2.216672e-22
1.964040e-05 -2.672468e-05 -7.591290e-07
1.964040e-05 2.672468e-05 -7.591290e-07
-3.351042e-05 -6.702996e-06 7.435539e-07
2.871455e-05 1.664474e-05 7.744177e-07
2.871455e-05 -1.664474e-05 7.744177e-07
8.933229e-06 -3.162254e-05 4.266176e-07
8.933229e-06 3.162254e-05 4.266176e-07
7.656324e-06 3.322134e-05 -7.942356e-07
1.015945e-06 3.406964e-05 -7.982296e-07
-1.524224e-05 3.048693e-05 -7.981838e-07
-1.250130e-05 3.222329e-05 -2.216672e-22
-1.216065e-05 3.184210e-05 -7.980109e-07
-2.564737e-05 2.246095e-05 -7.941987e-07
-3.108967e-05 1.397259e-05 -7.980109e-07
-5.455560e-06 3.365291e-05 -7.941987e-07
7.664810e-06 -3.322048e-05 -7.936514e-07
4.592151e-06 3.378263e-05 -7.936181e-07
-2.121746e-06 3.402723e-05 -7.936144e-07
-1.798603e-05 2.896303e-05 -7.936144e-07
-2.967793e-05 1.678020e-05 -7.936144e-07
-2.349090e-05 2.470895e-05 -7.936144e-07
3.399914e-05 6.219458e-06 -2.216672e-22
-1.302960e-05 3.201332e-05 -2.216672e-22
-3.146916e-05 9.230644e-06 2.717064e-07
3.231500e-05 1.125145e-05 7.113886e-07
3.231500e-05 -1.125145e-05 7.113886e-07
5.969662e-06 3.361542e-05 7.653147e-07
-3.954982e-07 3.418306e-05 7.357214e-07
-1.656055e-05 2.990971e-05 7.335679e-07
-3.057255e-05 1.529565e-05 7.357214e-07
-3.784150e-06 3.397827e-05 7.335679e-07
2.974431e-06 3.405570e-05 7.357191e-07
1.926778e-05 2.814990e-05 -7.827809e-07
-1.355437e-05 3.179468e-05 -2.216672e-22
1.926778e-05 -2.814990e-05 -7.827809e-07
-3.387138e-05 -4.364656e-06 7.588686e-07
2.795416e-05 -1.781019e-05 7.458759e-07
2.795416e-05 1.781019e-05 7.458759e-07
3.202895e-05 8.556488e-06 -7.502806e-07
3.202895e-05 -8.556488e-06 -7.502806e-07
-9.872380e-06 -3.217778e-05 -9.050251e-07
[...]
POINT_DATA 4790
VECTORS 10.000GHz_fone_imag double
-1.570672e-05 -1.472644e-05 1.850267e-02
1.195537e-04 2.495298e-05 1.843684e-02
7.955393e-05 -4.202763e-05 1.848359e-02
2.901727e-04 3.944228e-03 -2.244244e-02
7.085380e-04 4.050583e-03 -2.236184e-02
1.663387e-02 5.058328e-03 8.495227e-03
1.663452e-02 -5.058746e-03 8.496032e-03
1.406608e-02 1.588966e-03 -1.751103e-02
2.983820e-03 4.534216e-03 -2.245933e-02
1.037998e-03 5.349422e-03 -2.249231e-02
1.286021e-02 -2.133859e-03 -1.829806e-02
1.135951e-02 1.394729e-02 7.703107e-03
1.135910e-02 -1.394743e-02 7.702994e-03
4.002083e-05 2.387194e-04 1.853660e-02
1.012053e-02 -1.586882e-02 6.784466e-03
1.426990e-02 -1.212442e-02 6.765627e-03
3.262575e-03 -1.849115e-02 6.745012e-03
-2.602680e-03 6.001514e-03 -2.189740e-02
-2.601211e-03 -6.002021e-03 -2.189380e-02
8.184422e-04 -1.757282e-02 8.795905e-03
7.613636e-03 -1.583509e-02 8.688507e-03
-8.105041e-04 -1.761257e-02 8.716726e-03
6.533435e-03 6.558115e-03 -2.039162e-02
9.428212e-03 -1.552789e-02 8.086497e-03
1.525014e-04 4.456191e-05 1.863279e-02
9.428831e-03 1.552848e-02 8.086410e-03
4.586881e-03 -5.460803e-03 -2.182680e-02
4.586071e-03 5.458995e-03 -2.182354e-02
-8.277313e-04 1.705184e-02 8.791574e-03
-4.515152e-03 -1.813231e-02 6.917699e-03
-4.262509e-03 1.786930e-02 7.019980e-03
-1.481610e-02 -8.762604e-04 -1.664057e-02
-1.467074e-02 8.457503e-04 -1.662356e-02
-1.370776e-03 1.681455e-02 9.324044e-03
-9.640886e-03 -1.526355e-02 -1.235371e-02
-1.291866e-04 2.306129e-04 1.852752e-02
-3.796362e-03 -1.767397e-02 -1.232154e-02
1.317076e-02 -1.314008e-02 6.976969e-03
7.065648e-03 -1.714107e-02 6.885520e-03
-1.745023e-02 3.227055e-03 7.992953e-03
-1.745048e-02 -3.224688e-03 7.993077e-03
1.522509e-02 9.073188e-03 8.646517e-03
1.583586e-02 5.872996e-03 9.701790e-03
1.086921e-02 4.804140e-03 -1.909825e-02
4.241198e-03 1.937943e-03 -2.230608e-02
-1.398986e-02 -2.815955e-03 -1.724022e-02
-1.291392e-04 -1.052775e-04 1.852690e-02
-3.482989e-03 1.607525e-02 1.022927e-02
5.830953e-03 1.666823e-02 8.611264e-03
3.909183e-03 3.968316e-03 -2.199786e-02
4.595093e-04 -1.877579e-02 6.616368e-03
-1.579927e-02 -1.322033e-02 -1.436634e-03
-1.590713e-02 1.323274e-02 -1.049129e-03
-9.392482e-03 -1.036278e-02 -1.666627e-02
-1.631030e-02 -6.186782e-03 8.247490e-03
-1.630932e-02 6.186364e-03 8.247478e-03
4.958035e-03 7.305564e-03 -2.070128e-02
4.174669e-05 2.509797e-04 1.872479e-02
1.538111e-03 8.671436e-03 -2.069446e-02
1.349476e-02 1.107509e-02 8.845178e-03
9.001530e-03 1.439296e-02 9.243197e-03
6.567907e-03 -8.900654e-03 -1.922324e-02
8.904849e-03 -6.633144e-03 -1.927011e-02
2.647578e-03 -1.080061e-02 -1.926262e-02
3.645665e-03 1.657822e-02 9.268773e-03
5.624966e-03 1.317157e-02 -1.690494e-02
5.623973e-03 -1.317135e-02 -1.690534e-02
4.548057e-04 -1.543072e-02 -1.645476e-02
-2.347906e-04 -7.713727e-05 1.859777e-02
8.732692e-03 1.538601e-02 8.385001e-03
4.398222e-03 1.713610e-02 8.472000e-03
-5.000032e-03 -1.248158e-03 -2.215851e-02
4.794050e-03 -1.342472e-02 -1.779417e-02
4.806574e-03 1.341233e-02 -1.779596e-02
-1.611419e-02 6.029650e-04 1.037848e-02
-1.593057e-02 -4.939748e-04 1.050643e-02
-1.162901e-03 1.423232e-02 -1.731008e-02
-1.723638e-02 -9.286143e-03 4.402884e-03
8.590162e-03 -1.563192e-02 7.975445e-03
-5.331090e-05 -4.187831e-04 1.866985e-02
8.590486e-03 1.562990e-02 7.976059e-03
1.899444e-02 5.725117e-03 -7.705186e-03
1.448375e-02 -9.977023e-03 8.284675e-03
1.448440e-02 9.982290e-03 8.287127e-03
1.209267e-02 1.193368e-02 9.523346e-03
1.748700e-02 4.387582e-03 8.115774e-03
1.809025e-02 5.571380e-03 -1.086756e-02
1.809078e-02 -5.571028e-03 -1.086705e-02
8.538467e-03 -5.514735e-03 -1.994228e-02
8.540233e-03 5.512240e-03 -1.994375e-02
2.248908e-04 -6.422415e-05 1.850540e-02
-1.612597e-02 -1.501182e-03 1.087271e-02
-1.615771e-02 1.546149e-03 1.086715e-02
1.293805e-02 9.086405e-03 1.058985e-02
-4.693007e-03 -1.645122e-02 9.272599e-03
-4.877675e-03 1.656530e-02 9.112275e-03
-2.837942e-03 1.699166e-02 9.002575e-03
1.566199e-02 -5.810963e-03 9.536735e-03
1.090927e-02 -1.089810e-02 -1.600298e-02
1.091697e-02 1.088461e-02 -1.599760e-02
-8.213447e-03 -1.412593e-02 -1.451454e-02
-5.891046e-05 -1.776546e-04 1.852820e-02
-8.215260e-03 1.412594e-02 -1.451577e-02
-1.304000e-02 4.157553e-03 -1.719742e-02
1.443716e-02 8.775204e-03 9.405927e-03
1.443478e-02 -8.777045e-03 9.403175e-03
-1.281747e-02 2.318185e-03 -1.805778e-02
-1.348504e-02 8.115033e-05 -1.792138e-02
-1.364253e-02 9.476909e-03 9.902498e-03
-1.364657e-02 -9.467425e-03 9.894798e-03
1.819583e-02 -3.629784e-03 -1.128551e-02
1.819596e-02 3.628905e-03 -1.128497e-02
-4.804403e-04 1.547523e-04 1.842134e-02
-4.844341e-05 4.925561e-05 1.856054e-02
-1.444245e-02 -1.781492e-03 -1.680094e-02
-1.443713e-02 1.783746e-03 -1.679305e-02
-1.417721e-02 -1.028478e-02 8.907898e-03
1.598898e-02 -4.856269e-04 1.078508e-02
1.587082e-02 3.903072e-04 1.067625e-02
-8.865800e-03 -8.034914e-03 -1.873852e-02
-1.863288e-02 -1.806240e-03 -1.059207e-02
1.652452e-02 -7.272139e-04 -1.438865e-02
1.570994e-02 -3.875996e-03 -1.484757e-02
-1.420840e-02 -9.296704e-03 9.383324e-03
-1.192388e-04 7.836094e-05 1.858513e-02
6.914922e-03 1.594147e-02 8.617360e-03
-1.541816e-02 -9.128688e-03 7.853731e-03
5.482055e-03 1.352211e-02 -1.649623e-02
-1.297402e-02 -8.727213e-03 -1.570284e-02
-4.348271e-03 1.443098e-02 -1.629259e-02
-1.469518e-02 1.528557e-03 -1.686501e-02
-9.509546e-03 1.173475e-02 -1.621369e-02
-1.255506e-02 8.355694e-03 -1.630799e-02
-1.570375e-02 -4.957185e-03 9.872071e-03
-3.502679e-04 -1.115037e-05 -2.287930e-02
1.353067e-04 -4.660705e-04 1.854074e-02
1.269965e-02 6.718099e-03 -1.650040e-02
1.536681e-02 6.311879e-03 9.944704e-03
1.537226e-02 -6.313359e-03 9.939971e-03
3.446029e-05 1.679970e-02 9.357591e-03
-1.650304e-02 -9.228665e-04 9.584005e-03
1.248739e-02 2.037142e-03 -1.878040e-02
3.205000e-03 1.616841e-03 -2.263564e-02
-1.547876e-02 5.358605e-03 -1.443791e-02
-1.604602e-02 3.812271e-03 -1.447479e-02
-6.853050e-03 -1.502387e-02 1.026362e-02
2.399940e-04 -8.219623e-05 1.833741e-02
-6.852511e-03 1.502380e-02 1.026304e-02
1.249141e-02 9.081354e-03 -1.573568e-02
1.247540e-02 -9.012917e-03 -1.564974e-02
2.026457e-02 -1.523255e-03 -5.760349e-03
2.025284e-02 1.122495e-03 -5.917629e-03
1.218082e-02 -1.026629e-02 -1.523092e-02
1.192512e-02 9.907366e-03 -1.562338e-02
-1.535677e-02 7.567478e-03 8.991999e-03
-1.535685e-02 -7.567387e-03 8.991700e-03
-1.192760e-02 2.065097e-03 -1.905918e-02
1.234708e-04 -3.767835e-05 1.849978e-02
-1.192912e-02 -2.065034e-03 -1.906220e-02
6.284464e-03 -6.565743e-04 -2.165903e-02
-1.437555e-02 -8.445366e-03 1.002381e-02
-1.437626e-02 8.441520e-03 1.001760e-02
1.675187e-02 1.125138e-02 -6.537396e-03
6.840210e-03 1.361797e-02 -1.615381e-02
4.654248e-03 1.457137e-02 -1.599754e-02
4.391900e-03 -1.413489e-02 -1.621931e-02
4.334268e-03 1.406400e-02 -1.635872e-02
1.236760e-02 4.056440e-03 -1.816342e-02
-2.697989e-04 1.239129e-05 1.836656e-02
-2.358345e-04 1.127452e-02 -1.922861e-02
-4.578088e-03 1.002702e-02 -1.980126e-02
-9.951190e-03 5.225643e-03 -1.936463e-02
-5.506154e-03 9.563737e-03 -1.922303e-02
-7.977191e-03 7.476596e-03 -1.934326e-02
-1.347574e-03 1.086360e-02 -1.927538e-02
8.799568e-04 1.079449e-02 -1.944957e-02
2.060841e-03 1.071580e-02 -1.940110e-02
9.782816e-03 -4.165386e-03 -1.966076e-02
-1.747277e-02 -5.608701e-03 -1.170624e-02
-1.052032e-04 -4.138220e-04 1.847709e-02
-1.747188e-02 5.608951e-03 -1.170547e-02
-9.653547e-03 -1.344926e-02 1.011944e-02
-9.653649e-03 1.344894e-02 1.011977e-02
-1.536088e-02 -4.880902e-03 -1.516702e-02
-1.457772e-02 4.347192e-03 1.116418e-02
-1.457858e-02 -4.347360e-03 1.116353e-02
7.255790e-03 6.569983e-03 -2.020609e-02
1.180247e-02 9.994983e-03 1.122432e-02
-9.849640e-03 -1.678082e-02 -8.945426e-03
-8.499939e-03 -1.510719e-02 8.838254e-03
1.289418e-04 -6.644438e-04 1.848348e-02
-4.648095e-03 -1.898403e-02 -8.848345e-03
-4.483776e-03 -1.673591e-02 8.743578e-03
1.441763e-02 -9.588579e-03 -1.334273e-02
1.442181e-02 9.587479e-03 -1.334753e-02
1.499924e-02 6.897191e-03 1.000832e-02
1.504544e-02 1.093060e-03 1.161578e-02
1.507754e-02 -1.143217e-03 1.157749e-02
-1.675260e-02 -4.778689e-03 -1.286751e-02
-1.633929e-02 4.573231e-03 -1.347715e-02
-1.634104e-02 -4.572055e-03 -1.348182e-02
4.525401e-04 -4.804550e-04 1.849140e-02
1.067040e-02 -1.422474e-02 -1.224768e-02
1.066979e-02 1.422457e-02 -1.224724e-02
1.597337e-02 3.152532e-03 1.036406e-02
-1.606652e-02 -9.290483e-03 -1.175646e-02
-1.606642e-02 9.290279e-03 -1.175671e-02
-2.714851e-03 9.809162e-03 -1.981919e-02
-2.618429e-03 -9.890265e-03 -1.998371e-02
3.898510e-03 1.708813e-02 8.938930e-03
5.701924e-04 1.747703e-02 8.873100e-03
-7.759099e-03 1.563496e-02 8.905535e-03
1.728382e-04 -2.492675e-04 1.846103e-02
-6.256799e-03 1.633041e-02 9.015483e-03
-1.319965e-02 1.157311e-02 8.944948e-03
-1.613149e-02 7.244911e-03 8.841401e-03
-2.816554e-03 1.731483e-02 8.890216e-03
3.913372e-03 -1.690937e-02 9.054219e-03
2.266821e-03 1.719701e-02 8.800591e-03
-7.552690e-04 1.730892e-02 8.919346e-03
-9.244596e-03 1.482807e-02 8.873592e-03
-1.509468e-02 8.596004e-03 9.242777e-03
-1.186988e-02 1.269961e-02 9.021861e-03
-1.271060e-04 -2.793538e-04 1.839132e-02
-1.409724e-04 3.065323e-05 1.861350e-02
6.297453e-03 -1.598994e-03 -2.160168e-02
-1.445088e-02 -4.924680e-03 1.152932e-02
-1.444971e-02 4.924660e-03 1.152886e-02
-3.046937e-03 -1.671407e-02 9.921602e-03
2.322997e-04 -1.598630e-02 1.091105e-02
7.739098e-03 -1.401659e-02 1.100283e-02
1.437217e-02 -7.032362e-03 1.076789e-02
1.727513e-03 -1.587937e-02 1.104364e-02
-1.233647e-03 -1.603919e-02 1.069564e-02
9.893507e-03 1.399996e-02 9.124498e-03
1.443083e-04 -1.827648e-04 1.854155e-02
9.893151e-03 -1.399977e-02 9.124590e-03
1.600215e-02 2.000077e-03 1.026538e-02
-1.498913e-02 9.647486e-03 -1.266882e-02
-1.498634e-02 -9.646981e-03 -1.266773e-02
1.732846e-02 4.584369e-03 -1.235662e-02
1.732686e-02 -4.587142e-03 -1.235209e-02
-6.287340e-03 -1.952449e-02 -7.338215e-04
-9.455481e-03 -1.825026e-02 -9.968963e-04
-9.940365e-03 1.258710e-02 1.093284e-02
-9.941091e-03 -1.258747e-02 1.093278e-02
1.451440e-04 6.422031e-05 1.849344e-02
-1.152705e-02 1.079517e-02 1.094003e-02
-1.155565e-02 -1.076972e-02 1.099069e-02
4.004841e-03 -8.542147e-04 -2.225953e-02
1.904555e-03 -5.011029e-03 -2.211076e-02
4.689188e-03 -2.656930e-03 -2.213119e-02
3.656987e-03 -3.846659e-03 -2.210191e-02
1.009513e-02 -1.200313e-02 1.096047e-02
1.316691e-02 -8.490481e-03 1.088323e-02
4.692319e-03 -1.496190e-02 1.090265e-02
-1.570023e-02 2.287791e-03 1.079347e-02
1.072495e-05 -2.613753e-04 1.871646e-02
-1.569903e-02 -2.283582e-03 1.079386e-02
5.264006e-03 7.675733e-04 -2.230133e-02
1.572925e-02 1.169069e-04 1.079154e-02
-1.454104e-02 -7.777713e-03 -1.447709e-02
-1.454188e-02 7.777876e-03 -1.447717e-02
-1.008908e-02 -1.344543e-02 1.004059e-02
-9.313530e-03 -1.195967e-02 1.185378e-02
-1.105875e-02 -1.211165e-02 1.021204e-02
-1.000977e-02 -1.139865e-02 1.177238e-02
-6.170974e-04 -1.630107e-02 1.050224e-02
3.054136e-04 1.178493e-04 1.851486e-02
-1.000485e-03 -1.522394e-02 1.152978e-02
-2.109850e-03 -1.662978e-02 1.011506e-02
-1.726299e-03 -1.488763e-02 1.188125e-02
1.774297e-02 6.872394e-03 -1.033797e-02
1.774311e-02 -6.872008e-03 -1.033810e-02
-5.998853e-03 1.531285e-02 1.013128e-02
-6.005326e-03 -1.531106e-02 1.013171e-02
-3.633930e-03 -5.603899e-03 -2.162286e-02
-3.634005e-03 5.603851e-03 -2.162349e-02
1.646779e-02 5.984863e-03 -1.320261e-02
-2.763522e-06 1.764574e-04 1.851201e-02
1.646843e-02 -5.984962e-03 -1.320195e-02
-8.500826e-03 1.201691e-03 -2.114386e-02
-8.510035e-03 -1.199671e-03 -2.116629e-02
1.757040e-02 7.289223e-03 5.445256e-03
1.757396e-02 -7.289986e-03 5.441435e-03
-1.477154e-02 -3.383985e-03 1.171491e-02
-1.455247e-02 -5.197754e-03 1.136476e-02
1.545920e-02 -5.321095e-03 1.021995e-02
1.545911e-02 5.321456e-03 1.021924e-02
-1.294494e-02 -6.815272e-03 1.205349e-02
-1.618819e-04 1.990401e-04 1.871242e-02
-1.294428e-02 6.815795e-03 1.205400e-02
-1.148156e-02 -1.058243e-02 1.111956e-02
-5.441869e-03 -1.538274e-02 1.044328e-02
-5.502211e-03 -1.396773e-02 1.196623e-02
-6.657560e-03 -1.471674e-02 1.049855e-02
-5.979411e-03 -1.382900e-02 1.181601e-02
1.468919e-02 -2.015586e-03 1.212744e-02
-1.643725e-02 2.015532e-03 1.023522e-02
-1.570017e-02 5.188542e-03 1.021179e-02
-1.647474e-02 4.968595e-04 1.005574e-02
-3.215398e-05 7.383040e-05 1.845470e-02
-1.194553e-02 1.216339e-02 9.317894e-03
-1.052457e-02 1.127077e-02 1.115770e-02
-1.195173e-02 -1.216323e-02 9.321291e-03
-1.052684e-02 -1.127190e-02 1.115801e-02
2.306641e-03 -1.484629e-02 1.186832e-02
2.243930e-03 -1.561370e-02 1.137224e-02
1.150435e-02 -1.021328e-02 1.156388e-02
8.106947e-03 -1.354703e-02 1.141709e-02
1.114222e-02 1.104664e-02 1.127114e-02
-9.707508e-03 1.247719e-02 1.098281e-02
-8.600251e-05 1.071478e-04 1.865253e-02
-1.351504e-02 9.684137e-03 1.011938e-02
-1.576614e-02 3.096056e-03 1.060932e-02
-4.230312e-03 1.611843e-02 1.008674e-02
-1.480793e-02 -6.964768e-03 1.037068e-02
-1.388973e-03 -3.374034e-03 -2.251082e-02
-1.388858e-03 3.372727e-03 -2.251209e-02
1.211276e-02 1.490002e-02 -8.832784e-03
1.762171e-03 1.905012e-02 -8.691699e-03
1.208649e-02 1.277029e-02 -1.265334e-02
1.208690e-02 -1.277203e-02 -1.265415e-02
-1.512337e-04 2.716180e-04 1.880125e-02
-3.354162e-03 -1.482107e-02 1.169805e-02
1.417466e-02 4.408083e-03 -1.653001e-02
9.001060e-03 1.366574e-02 1.019157e-02
3.126083e-03 1.607950e-02 1.018447e-02
7.523975e-03 1.352583e-02 -1.596409e-02
7.525838e-03 -1.353034e-02 -1.595426e-02
1.518296e-02 -6.156949e-03 -1.402421e-02
-1.153527e-02 -1.701312e-02 -2.595802e-03
-3.594260e-03 -2.023939e-02 -2.599284e-03
1.452186e-02 -7.383652e-03 1.061728e-02
4.703687e-04 -1.516228e-04 1.845700e-02
-1.554561e-04 -1.093188e-04 1.862934e-02
1.452234e-02 7.383566e-03 1.061699e-02
8.727497e-03 1.169972e-02 1.187463e-02
8.727006e-03 -1.169920e-02 1.187436e-02
1.273046e-02 -1.009087e-02 1.035094e-02
1.215848e-02 -1.070502e-02 1.029393e-02
1.265663e-02 1.022955e-02 1.039730e-02
1.209946e-02 1.071103e-02 1.017390e-02
-1.013529e-02 1.009258e-02 -1.721923e-02
-1.013291e-02 -1.009580e-02 -1.722108e-02
1.447389e-02 2.137753e-03 1.191739e-02
5.048359e-05 -2.998660e-04 1.872297e-02
5.502976e-03 1.375620e-02 1.175385e-02
5.501739e-03 -1.375460e-02 1.175012e-02
6.559464e-03 -1.476699e-02 1.028255e-02
6.559657e-03 1.476689e-02 1.028362e-02
-1.338448e-02 -8.519242e-03 1.107634e-02
-1.338360e-02 8.521941e-03 1.107725e-02
-1.466041e-02 -3.070230e-03 1.136954e-02
-1.465993e-02 3.070880e-03 1.137008e-02
2.303832e-03 -2.588996e-03 -2.254664e-02
2.303685e-03 2.588491e-03 -2.254602e-02
5.662539e-05 4.859769e-05 1.852890e-02
-1.832409e-02 -6.479061e-03 -8.181512e-03
-1.588545e-02 -1.302500e-02 -3.293302e-03
5.200015e-03 1.528071e-02 1.048580e-02
5.175701e-03 -1.523311e-02 1.048724e-02
-4.698456e-03 -1.431452e-02 1.143384e-02
-4.652585e-03 1.426209e-02 1.149230e-02
-1.108135e-02 -1.394390e-02 -1.252399e-02
-1.112023e-02 -1.356742e-02 -1.298326e-02
-1.300798e-03 -1.776352e-02 -1.237382e-02
-1.847168e-03 -1.759093e-02 -1.306447e-02
1.540869e-05 -2.916922e-04 1.851207e-02
1.562058e-02 1.784538e-03 1.083903e-02
1.563668e-02 -1.805661e-03 1.084347e-02
1.417789e-02 4.083083e-03 1.210046e-02
-1.535913e-02 -2.941128e-03 1.096294e-02
-7.556623e-03 1.412298e-02 1.072064e-02
-7.556676e-03 -1.412329e-02 1.072071e-02
5.227958e-03 1.471090e-02 -1.513973e-02
-4.067384e-03 6.808037e-03 -2.090816e-02
-9.769453e-03 1.465541e-02 -1.245553e-02
-4.067349e-03 -6.807314e-03 -2.090586e-02
8.921539e-05 3.922623e-07 1.859203e-02
-9.769548e-03 -1.465488e-02 -1.245524e-02
-2.118044e-03 1.505478e-02 1.146313e-02
-9.830521e-03 -1.357746e-02 -1.429667e-02
-9.831065e-03 1.357780e-02 -1.429687e-02
1.478441e-02 1.357645e-02 -6.862050e-03
1.103839e-03 -1.507473e-02 1.183654e-02
1.504771e-02 1.360031e-02 -5.062366e-03
-1.845764e-02 -2.653741e-03 -1.136147e-02
1.552332e-02 -6.978858e-03 -1.396253e-02
1.552434e-02 6.979143e-03 -1.396252e-02
-6.303020e-05 -9.541833e-05 1.854073e-02
1.093233e-02 -1.136856e-02 1.092580e-02
1.016225e-02 -1.006067e-02 1.232355e-02
1.093130e-02 1.136850e-02 1.092454e-02
1.015659e-02 1.006095e-02 1.231955e-02
1.550069e-02 2.093196e-03 1.105485e-02
1.550561e-02 -2.096890e-03 1.105733e-02
2.156372e-03 -1.513301e-02 1.173700e-02
9.014431e-03 8.507826e-03 -1.853956e-02
8.953059e-03 -8.539527e-03 -1.856857e-02
-1.823190e-03 -1.436217e-02 1.246244e-02
3.675941e-04 -4.493901e-04 1.850914e-02
-6.668888e-03 -1.691411e-02 -1.197472e-02
-7.144718e-03 -1.683035e-02 -1.203223e-02
1.510348e-02 4.954864e-03 1.074225e-02
4.318700e-03 1.526610e-02 1.069090e-02
7.594453e-03 1.393204e-02 1.070880e-02
1.989533e-03 -1.453595e-03 -2.255721e-02
1.993156e-03 1.427629e-03 -2.256296e-02
-4.354956e-03 -1.575136e-02 -1.397731e-02
-4.033127e-03 1.617820e-02 -1.396960e-02
-1.459802e-02 5.424341e-03 -1.596204e-02
2.172003e-04 6.398482e-05 1.832794e-02
-1.459743e-02 -5.423792e-03 -1.596332e-02
1.169805e-02 -1.337570e-02 -1.248945e-02
1.169790e-02 1.337415e-02 -1.248984e-02
-1.512670e-02 -1.323157e-02 -7.245384e-03
8.748195e-03 -1.294090e-02 -1.568408e-02
8.748445e-03 1.294031e-02 -1.568391e-02
3.307812e-03 1.412776e-04 -2.255403e-02
1.013651e-02 -1.208508e-02 1.101325e-02
1.013617e-02 1.208553e-02 1.101363e-02
8.317186e-03 -1.290673e-02 -1.530960e-02
5.166285e-05 1.297858e-04 1.855638e-02
1.174243e-02 -9.967225e-03 -1.524941e-02
2.723608e-03 -1.515928e-02 -1.526241e-02
-1.434445e-02 -4.222531e-03 1.178992e-02
1.210363e-02 8.012923e-03 1.243022e-02
-1.206015e-02 9.641347e-03 1.125718e-02
-1.260892e-02 9.655228e-03 1.086899e-02
-1.219118e-02 -9.392586e-03 1.130319e-02
-1.249417e-02 -9.703841e-03 1.092989e-02
-1.210617e-02 -1.058826e-02 1.060066e-02
-1.224467e-02 1.051687e-02 1.044645e-02
-2.693254e-04 2.093719e-05 1.839076e-02
5.786111e-03 1.303748e-02 1.233100e-02
1.367979e-02 5.944573e-03 1.153446e-02
-1.736146e-03 -3.361385e-03 -2.241600e-02
-1.132514e-03 -3.572936e-03 -2.239470e-02
-7.856874e-03 8.209967e-03 -1.934774e-02
-7.854503e-03 -8.209668e-03 -1.934623e-02
1.578053e-02 7.703672e-03 -1.255246e-02
1.578095e-02 -7.704128e-03 -1.255166e-02
-3.298141e-03 1.534943e-02 -1.566191e-02
-1.468683e-02 -1.112132e-02 -1.135355e-02
1.952619e-04 -1.381384e-05 1.848654e-02
3.701576e-05 -4.330775e-04 1.846342e-02
-1.486266e-02 1.121589e-02 -1.128117e-02
7.546932e-03 -1.326744e-02 -1.611925e-02
7.547026e-03 1.326739e-02 -1.612005e-02
1.733550e-02 8.961604e-04 -1.365617e-02
-1.832935e-05 -2.043195e-02 -4.000174e-04
-5.122047e-04 -5.038975e-04 -2.300733e-02
-5.125083e-04 5.039708e-04 -2.300785e-02
1.875044e-02 -3.502184e-03 -1.063115e-02
1.875059e-02 3.500175e-03 -1.063060e-02
-1.405733e-02 1.280583e-04 1.239738e-02
3.754914e-04 -5.396095e-04 1.846615e-02
-1.536131e-02 1.714628e-03 1.156918e-02
-1.476790e-02 4.969646e-03 1.126967e-02
-1.099378e-02 -9.690656e-03 1.231037e-02
-1.471083e-02 7.306691e-04 -1.631681e-02
3.193209e-04 -4.952520e-04 -2.285690e-02
5.156371e-04 -3.416707e-04 -2.288330e-02
4.693360e-04 -3.403660e-04 -2.297024e-02
-1.347459e-02 5.431689e-03 1.235208e-02
-1.347506e-02 -5.431736e-03 1.235265e-02
1.479554e-02 6.775713e-03 -1.468955e-02
5.113936e-04 -1.966269e-04 1.845172e-02
1.400653e-02 -4.724881e-03 1.194497e-02
1.170495e-02 -8.168028e-03 1.247610e-02
1.169605e-02 8.169448e-03 1.248347e-02
9.579988e-03 8.315041e-03 -1.850699e-02
9.524656e-03 -7.678381e-03 -1.878087e-02
8.967849e-04 1.424775e-02 1.253536e-02
-1.853960e-03 1.422163e-02 1.237120e-02
-5.696528e-03 1.325400e-02 1.253263e-02
-6.860428e-03 1.263788e-02 1.240344e-02
-1.295111e-02 6.418353e-03 1.234671e-02
3.004802e-04 -2.192028e-04 1.858351e-02
-1.052916e-02 9.824644e-03 1.242769e-02
-1.487620e-04 1.431564e-02 1.246526e-02
2.777592e-03 1.403808e-02 1.249069e-02
-7.771944e-03 1.794763e-02 -8.836806e-03
-7.771952e-03 -1.794791e-02 -8.835863e-03
-3.695430e-04 -4.479806e-04 -2.285304e-02
1.479647e-02 -2.619458e-03 1.173969e-02
1.479428e-02 2.617562e-03 1.173764e-02
4.236467e-04 -4.686080e-04 -2.280869e-02
-2.787720e-04 1.514709e-05 -2.281058e-02
1.019469e-04 1.591410e-04 1.872677e-02
6.262892e-04 -1.654211e-04 -2.283580e-02
5.018476e-04 -2.025256e-04 -2.279527e-02