# vtk DataFile Version 2.0
Electric current density generated by TTH
ASCII
DATASET UNSTRUCTURED_GRID
POINTS 1695 double
1.904422e-05 -4.664489e-21 -4.736121e-22
1.696853e-05 8.645895e-06 -4.736121e-22
8.645895e-06 -1.696853e-05 -4.736121e-22
1.431409e-05 -7.275142e-06 1.621320e-06
1.431409e-05 7.275142e-06 1.621320e-06
-8.060452e-06 -1.324975e-05 -1.083451e-06
8.863270e-07 1.532658e-05 -8.044907e-07
-6.249244e-06 -1.386064e-05 -3.243962e-07
-1.761372e-06 -1.770447e-05 -1.809662e-06
6.791433e-06 1.481186e-05 1.753094e-06
6.791433e-06 -1.481186e-05 1.753094e-06
-1.012547e-05 -1.173102e-05 1.064879e-06
-7.064369e-06 -1.621991e-05 1.844322e-06
9.522111e-06 -1.649278e-05 -4.736121e-22
-2.972216e-06 1.713445e-05 -1.913322e-06
-1.527599e-05 -9.335432e-06 -1.763973e-06
9.286695e-07 -1.531872e-05 -7.927158e-07
-3.171402e-06 -1.523849e-05 1.162046e-06
-9.046205e-07 -1.661702e-05 -1.875948e-06
1.087247e-05 1.413060e-05 1.795122e-06
1.087247e-05 -1.413060e-05 1.795122e-06
-1.611076e-05 9.828854e-06 -7.971147e-07
-3.932211e-06 1.840354e-05 9.058113e-07
-9.273782e-07 1.662001e-05 -1.877002e-06
1.037223e-05 -1.597183e-05 -4.736121e-22
-1.515936e-05 -6.037883e-06 -1.763577e-06
7.294872e-07 -1.883585e-05 -8.446969e-07
-1.582680e-05 -8.471070e-06 1.741360e-06
1.483397e-05 -6.208814e-06 -1.636742e-06
1.483397e-05 6.208814e-06 -1.636742e-06
1.203313e-05 9.730424e-06 -1.031609e-06
1.203313e-05 -9.730424e-06 -1.031609e-06
5.619962e-06 -1.418459e-05 -5.519852e-07
5.619962e-06 1.418459e-05 -5.519852e-07
6.533355e-06 -1.396851e-05 9.402899e-07
1.119391e-05 -1.540710e-05 -4.736121e-22
6.533355e-06 1.396851e-05 9.402899e-07
4.862616e-06 -1.475167e-05 -1.117421e-06
4.862616e-06 1.475167e-05 -1.117421e-06
8.721662e-06 1.487653e-05 -1.929012e-06
8.721662e-06 -1.487653e-05 -1.929012e-06
1.785504e-05 -2.198855e-06 1.722143e-06
1.784443e-05 2.188585e-06 1.728111e-06
1.580382e-05 4.125678e-06 1.770652e-06
1.580382e-05 -4.125678e-06 1.770652e-06
-8.879646e-06 1.506111e-05 1.897293e-06
1.198492e-05 -1.480014e-05 -4.736121e-22
1.496431e-05 -3.675860e-06 -9.188998e-07
1.496431e-05 3.675860e-06 -9.188998e-07
1.491741e-05 -9.544743e-06 1.838523e-06
1.491741e-05 9.544743e-06 1.838523e-06
-6.627734e-06 1.378603e-05 -6.694145e-07
-1.499841e-05 1.015428e-05 -1.653849e-06
1.550326e-05 -1.959270e-06 -1.239708e-06
1.550326e-05 1.959270e-06 -1.239708e-06
-6.678682e-06 1.679954e-05 1.674006e-06
-1.626689e-05 2.091626e-06 1.798705e-06
1.274307e-05 -1.415261e-05 -4.736121e-22
1.077659e-05 1.548342e-05 -8.139819e-07
1.077659e-05 -1.548342e-05 -8.139819e-07
-1.735176e-06 1.788875e-05 -1.730829e-06
-1.771519e-05 -7.932248e-07 1.830767e-06
1.397289e-05 -6.105101e-06 5.210446e-07
1.397289e-05 6.105101e-06 5.210446e-07
-9.118422e-06 -1.650841e-05 -8.251972e-07
1.671370e-05 6.102428e-06 -1.809273e-06
1.671370e-05 -6.102428e-06 -1.809273e-06
1.450971e-05 4.676411e-06 5.075603e-07
1.346630e-05 -1.346630e-05 -4.736121e-22
1.450971e-05 -4.676411e-06 5.075603e-07
-1.179554e-06 -1.879922e-05 8.724935e-07
-1.700092e-05 -8.196478e-06 -7.941375e-07
-6.914142e-06 -1.752673e-05 -8.624695e-07
-4.022073e-06 -1.623218e-05 1.894445e-06
-1.495486e-05 -5.484572e-06 1.530572e-06
4.232963e-06 -1.838984e-05 8.005407e-07
-1.748113e-05 4.081567e-06 1.741329e-06
4.233980e-06 1.838974e-05 8.002546e-07
-1.520801e-05 3.925185e-08 -3.458540e-07
1.415261e-05 -1.274307e-05 -4.736121e-22
-1.572796e-05 5.028545e-06 -1.838784e-06
1.317962e-05 -1.213720e-05 1.757538e-06
1.317962e-05 1.213720e-05 1.757538e-06
1.219741e-05 -1.439615e-05 -8.050943e-07
1.219741e-05 1.439615e-05 -8.050943e-07
-1.377947e-05 1.122282e-05 -1.817209e-06
4.245031e-06 -1.460855e-05 3.710586e-07
4.245031e-06 1.460855e-05 3.710586e-07
9.960713e-06 1.449728e-05 1.873441e-06
9.960713e-06 -1.449728e-05 1.873441e-06
1.480014e-05 -1.198492e-05 -4.736121e-22
2.473156e-06 1.675856e-05 1.926138e-06
-1.036959e-05 1.205766e-05 1.510516e-06
4.166516e-06 -1.466436e-05 -5.079028e-07
4.166516e-06 1.466436e-05 -5.079028e-07
-1.852073e-05 -3.713489e-06 7.582706e-07
6.306790e-06 1.780983e-05 7.483717e-07
6.306790e-06 -1.780983e-05 7.483717e-07
-1.373152e-05 1.165492e-05 1.711281e-06
-1.455523e-05 -5.424828e-06 -1.118646e-06
-1.234862e-05 -1.013744e-05 -1.566376e-06
1.540710e-05 -1.119391e-05 -4.736121e-22
1.387679e-05 6.816702e-06 -1.008465e-06
1.387679e-05 -6.816702e-06 -1.008465e-06
-1.724647e-05 -3.353803e-06 1.878404e-06
-3.278027e-06 -1.484409e-05 -3.089506e-07
1.638894e-05 4.196491e-06 -1.924026e-06
1.638894e-05 -4.196491e-06 -1.924026e-06
-1.888875e-05 -4.946193e-07 7.443283e-07
-1.770318e-05 6.490607e-06 8.331763e-07
1.716006e-05 1.962562e-06 -1.926924e-06
1.716006e-05 -1.962562e-06 -1.926924e-06
1.649278e-05 9.522111e-06 -4.736121e-22
1.597183e-05 -1.037223e-05 -4.736121e-22
-1.486311e-05 1.026579e-05 1.682415e-06
-1.637331e-06 -1.792009e-05 1.719680e-06
-7.883465e-06 -1.715514e-05 7.802241e-07
1.133695e-05 -1.368558e-05 -1.817251e-06
1.133695e-05 1.368558e-05 -1.817251e-06
-1.783151e-05 6.130367e-06 -8.324064e-07
1.441713e-05 -1.108147e-05 1.608446e-06
1.441713e-05 1.108147e-05 1.608446e-06
-1.224713e-05 -1.436817e-05 7.809058e-07
-3.066268e-06 1.859459e-05 8.534044e-07
1.649278e-05 -9.522111e-06 -4.736121e-22
1.812521e-05 -5.336757e-06 7.459279e-07
1.812521e-05 5.336757e-06 7.459279e-07
-1.432469e-05 -1.100994e-05 1.680578e-06
-6.241947e-06 -1.782531e-05 7.646848e-07
-4.064535e-06 1.753390e-05 1.717563e-06
-1.539265e-05 1.036480e-06 9.520666e-07
-1.121871e-05 1.102661e-05 1.354348e-06
-5.144384e-06 -1.704369e-05 1.805376e-06
-9.267778e-06 1.548878e-05 -1.690251e-06
1.795909e-05 9.127728e-07 -1.726030e-06
1.696853e-05 -8.645895e-06 -4.736121e-22
1.794109e-05 -8.570938e-07 -1.736339e-06
-4.889868e-06 -1.492349e-05 1.327103e-06
-1.219781e-05 -9.212124e-06 6.392473e-07
9.173276e-06 -1.386283e-05 1.871216e-06
9.173276e-06 1.386283e-05 1.871216e-06
-2.600963e-06 1.870775e-05 -7.621332e-07
1.840360e-05 -4.229760e-06 -7.720342e-07
1.840360e-05 4.229760e-06 -7.720342e-07
1.452833e-05 -8.012796e-06 -1.862697e-06
1.452833e-05 8.012796e-06 -1.862697e-06
1.739776e-05 -7.745983e-06 -4.736121e-22
6.772196e-06 1.678603e-05 -1.660960e-06
6.772196e-06 -1.678603e-05 -1.660960e-06
7.003792e-06 -1.348865e-05 -2.888557e-07
7.003792e-06 1.348865e-05 -2.888557e-07
-1.792161e-05 1.352965e-06 -1.730879e-06
-1.486991e-05 -3.262606e-06 4.225935e-07
1.629432e-05 -8.443109e-07 -1.762966e-06
1.629432e-05 8.443109e-07 -1.762966e-06
-7.954804e-06 -1.482961e-05 -1.912977e-06
-1.778085e-05 2.366571e-07 1.813190e-06
1.777931e-05 -6.824838e-06 -4.736121e-22
-1.752159e-06 -1.569344e-05 1.413407e-06
-1.563418e-05 -6.971752e-06 1.933653e-06
1.542703e-05 -1.090364e-05 -7.535804e-07
1.542703e-05 1.090364e-05 -7.535804e-07
-1.668452e-05 -3.127398e-06 -1.928918e-06
2.554990e-06 -1.496828e-05 1.744917e-07
2.554990e-06 1.496828e-05 1.744917e-07
-5.146691e-06 1.733715e-05 1.670218e-06
-1.706936e-05 5.922950e-06 -1.680118e-06
-1.645368e-05 -4.577396e-06 1.933403e-06
1.811213e-05 -5.884988e-06 -4.736121e-22
-1.329931e-05 -9.590634e-06 1.797078e-06
5.758610e-06 1.524629e-05 1.754462e-06
5.758610e-06 -1.524629e-05 1.754462e-06
-1.611962e-05 9.878119e-06 7.190866e-07
-1.170057e-05 -1.392378e-05 -1.606193e-06
-1.767629e-05 -2.613078e-06 1.778977e-06
-8.903621e-06 -1.345417e-05 -1.668653e-06
-3.638953e-06 1.497680e-05 9.251132e-07
-9.673422e-06 1.270884e-05 -1.562595e-06
-1.438252e-05 -1.228383e-05 6.969208e-07
1.839531e-05 -4.929007e-06 -4.736121e-22
8.244761e-06 -1.699551e-05 7.572752e-07
8.244761e-06 1.699551e-05 7.572752e-07
-1.682381e-05 1.325567e-06 1.919384e-06
8.015881e-06 1.313095e-05 8.712517e-07
8.015881e-06 -1.313095e-05 8.712517e-07
1.658418e-06 -1.571952e-05 1.428005e-06
1.370313e-05 -1.303089e-05 -7.084212e-07
1.370313e-05 1.303089e-05 -7.084212e-07
-1.979669e-06 1.613591e-05 -1.735036e-06
2.581381e-06 -1.680109e-05 1.930404e-06
1.862806e-05 -3.959516e-06 -4.736121e-22
-7.530860e-06 -1.451509e-05 1.778851e-06
1.483605e-06 -1.885099e-05 7.096925e-07
1.334905e-05 -1.178611e-05 -1.803674e-06
1.334905e-05 1.178611e-05 -1.803674e-06
-4.649493e-06 -1.640032e-05 -1.932612e-06
-1.294312e-05 1.240282e-05 1.753150e-06
-7.639267e-06 1.390210e-05 1.477179e-06
-1.847445e-05 3.783509e-06 8.281723e-07
1.002925e-06 1.884939e-05 7.887305e-07
-1.245700e-05 -1.185455e-05 -1.931773e-06
1.880976e-05 -2.979173e-06 -4.736121e-22
-1.508705e-05 -1.700445e-06 -1.482675e-07
1.254068e-05 8.834218e-06 -7.770440e-07
1.254068e-05 -8.834218e-06 -7.770440e-07
-6.450192e-06 1.404628e-05 1.001567e-06
-9.684665e-06 -1.619697e-05 7.987736e-07
-7.156938e-06 1.516410e-05 1.903116e-06
1.795869e-05 -5.759784e-06 -8.242777e-07
1.795869e-05 5.759784e-06 -8.242777e-07
-2.412342e-06 1.509869e-05 6.521913e-07
-1.514988e-05 -2.592496e-06 8.425417e-07
1.893989e-05 -1.990663e-06 -4.736121e-22
-5.559424e-06 -1.443132e-05 1.015704e-06
3.438037e-06 1.855667e-05 7.966909e-07
-1.111962e-05 -1.421657e-05 1.690822e-06
1.109926e-05 1.524556e-05 8.281444e-07
1.109926e-05 -1.524556e-05 8.281444e-07
3.437042e-06 -1.855705e-05 7.962697e-07
7.312839e-06 1.742546e-05 -7.382798e-07
7.312839e-06 -1.742546e-05 -7.382798e-07
-6.643390e-06 1.575853e-05 -1.933648e-06
-1.169494e-05 -9.820420e-06 -5.968081e-07
1.597183e-05 1.037223e-05 -4.736121e-22
1.901812e-05 -9.966975e-07 -4.736121e-22
-3.443278e-06 -1.752533e-05 1.782367e-06
-1.197565e-05 1.333430e-05 -1.754893e-06
2.469020e-06 1.875407e-05 -6.926821e-07
1.443927e-05 -1.219083e-05 7.392795e-07
1.443927e-05 1.219083e-05 7.392795e-07
-1.561674e-05 1.442095e-06 -1.304489e-06
-1.882615e-05 1.666308e-06 7.333790e-07
-9.692415e-06 -1.507759e-05 1.754155e-06
-1.194785e-05 -1.097425e-05 -1.717936e-06
1.704923e-05 8.139823e-06 7.504233e-07
1.882273e-05 -4.610239e-21 8.986205e-07
1.704923e-05 -8.139823e-06 7.504233e-07
-1.348239e-05 9.796026e-06 -1.881740e-06
-1.360033e-05 1.310638e-05 7.620601e-07
-8.800709e-06 1.671570e-05 -7.545504e-07
-1.262401e-05 1.070191e-05 1.850582e-06
2.469255e-06 -1.875586e-05 -6.879659e-07
-1.424770e-05 -8.016782e-06 -1.777074e-06
[...]
POINT_DATA 1695
VECTORS 10.000GHz_fone_imag double
-9.197250e-04 -3.100245e-04 2.077752e-02
4.282104e-04 -5.736182e-04 2.138071e-02
-3.120869e-04 1.560740e-03 2.037956e-02
-2.642322e-02 1.318094e-02 -2.221463e-02
-2.641040e-02 -1.320267e-02 -2.220297e-02
-1.057052e-02 -1.817131e-02 -3.447393e-02
-5.785146e-04 1.864075e-02 -4.099310e-02
-3.031067e-03 -7.754330e-03 -4.522479e-02
-1.165985e-03 -2.605619e-02 8.577454e-03
-1.265316e-02 -2.753272e-02 -1.625514e-02
-1.371642e-02 2.775172e-02 -1.796957e-02
1.646336e-02 1.655399e-02 -3.685867e-02
1.139433e-02 2.521772e-02 8.278196e-03
-6.313722e-04 -1.262309e-03 2.015598e-02
-5.153176e-03 2.893827e-02 3.731996e-03
-2.032957e-02 -1.101815e-02 8.593088e-03
-4.320916e-04 -1.858321e-02 -3.903585e-02
4.640767e-03 2.101078e-02 -3.443657e-02
-1.607387e-03 -3.290012e-02 -9.514853e-03
-1.375497e-02 -1.921982e-02 8.731199e-03
-1.333872e-02 1.912331e-02 8.764477e-03
-8.511561e-03 5.972844e-03 2.045310e-02
2.237353e-03 -1.070861e-02 1.740901e-02
-2.210367e-03 3.034053e-02 -9.721075e-03
3.567166e-04 2.905701e-04 2.097378e-02
-2.984895e-02 -1.065153e-02 -1.456012e-02
-1.201680e-04 -9.778853e-03 1.962215e-02
2.155979e-02 1.088544e-02 9.217656e-03
2.607558e-02 -1.033611e-02 -2.135877e-02
2.606290e-02 1.041346e-02 -2.149408e-02
1.435909e-02 1.386429e-02 -3.557264e-02
1.435561e-02 -1.387932e-02 -3.557440e-02
5.387339e-03 -9.878063e-03 -4.396508e-02
5.346061e-03 1.016489e-02 -4.393483e-02
-9.053054e-03 1.945729e-02 -3.794140e-02
2.684172e-04 -2.000593e-04 2.009866e-02
-9.124127e-03 -1.967324e-02 -3.827345e-02
6.983779e-03 -2.228439e-02 -3.504925e-02
6.236129e-03 2.079164e-02 -3.738146e-02
1.465546e-02 2.558145e-02 -8.253231e-04
1.462347e-02 -2.566379e-02 -8.861528e-04
-2.433768e-02 3.590823e-03 1.089319e-02
-2.461794e-02 -4.130439e-03 1.008338e-02
-3.116927e-02 -9.206941e-03 -1.542765e-02
-3.143031e-02 9.283881e-03 -1.519351e-02
1.453209e-02 -2.194797e-02 3.621714e-03
7.474361e-04 2.238905e-04 1.969654e-02
1.908200e-02 -2.448104e-03 -3.650739e-02
1.929556e-02 2.623593e-03 -3.735576e-02
-2.054211e-02 1.244516e-02 6.458907e-03
-2.054133e-02 -1.244907e-02 6.460243e-03
-4.756252e-03 1.181860e-02 -4.069877e-02
-1.784359e-02 1.129401e-02 1.154294e-02
2.349618e-02 -2.466592e-03 -3.179978e-02
2.513616e-02 4.029369e-03 -3.027069e-02
8.199355e-03 -1.975922e-02 1.080260e-02
3.313361e-02 -4.097644e-03 -1.595679e-02
-1.085612e-03 4.972630e-04 2.030609e-02
5.960995e-03 7.881876e-03 1.830936e-02
5.998209e-03 -7.740755e-03 1.838826e-02
-2.089990e-03 2.432964e-02 1.111906e-02
2.697340e-02 -4.932101e-04 6.919490e-03
-1.126658e-02 5.677790e-03 -4.355850e-02
-1.120068e-02 -5.737558e-03 -4.347848e-02
-4.802110e-03 -9.004586e-03 1.909583e-02
2.382353e-02 7.651969e-03 8.177258e-03
2.378015e-02 -7.572224e-03 8.203206e-03
-5.786509e-03 -3.295930e-03 -4.075715e-02
1.970401e-04 8.123921e-04 2.126121e-02
-7.810266e-03 4.634060e-03 -4.134287e-02
1.087316e-03 1.054652e-02 1.952038e-02
-8.473874e-03 -3.959663e-03 1.999504e-02
-3.815776e-03 -9.281625e-03 1.993142e-02
7.638307e-03 3.243832e-02 -7.460092e-03
2.871495e-02 1.139398e-02 -2.521509e-02
-1.204645e-03 7.791605e-03 1.938499e-02
2.127213e-02 -4.450604e-03 9.969077e-03
-1.975036e-03 -8.361907e-03 1.820817e-02
-8.939526e-03 -7.981761e-05 -4.551841e-02
-4.335967e-04 -1.482673e-04 2.226911e-02
-3.122357e-02 1.097421e-02 -1.192582e-02
-1.639744e-02 1.553731e-02 1.116005e-02
-1.639029e-02 -1.555177e-02 1.113913e-02
6.036807e-03 -7.606379e-03 2.056489e-02
6.119679e-03 7.605403e-03 2.063573e-02
-2.031735e-02 1.678225e-02 8.756701e-03
-1.924649e-03 7.991060e-03 -4.007278e-02
-1.440730e-03 -7.533899e-03 -4.042213e-02
-1.543884e-02 -2.054253e-02 5.560180e-03
-1.495799e-02 2.045749e-02 6.501548e-03
-3.707830e-04 4.741789e-04 2.148278e-02
-5.294379e-03 -2.899001e-02 -4.966143e-03
1.713804e-02 -2.312196e-02 -2.613235e-02
2.500925e-03 -1.023046e-02 -4.413757e-02
2.741059e-03 1.015595e-02 -4.384189e-02
9.800973e-03 1.255641e-03 2.028182e-02
-2.276822e-03 -9.644581e-03 1.977856e-02
-2.264108e-03 9.632996e-03 1.911206e-02
1.621034e-02 -1.467544e-02 1.081663e-02
-2.248685e-02 -9.222742e-03 -3.649765e-02
-2.068758e-02 -1.851202e-02 -2.259686e-02
1.055287e-05 -7.212247e-04 2.167215e-02
2.048603e-02 9.396568e-03 -3.722770e-02
2.052118e-02 -9.378722e-03 -3.723904e-02
2.791029e-02 5.696816e-03 5.883033e-03
-1.498325e-03 -6.130752e-03 -4.623936e-02
2.935374e-02 7.567563e-03 -5.216344e-03
2.944662e-02 -7.528620e-03 -5.008127e-03
9.213091e-03 1.224259e-03 1.893282e-02
8.708435e-03 -3.045311e-03 2.001449e-02
3.137557e-02 3.730950e-03 1.694010e-03
3.035234e-02 -3.275488e-03 1.524065e-03
4.949869e-04 1.976325e-04 2.201531e-02
1.113229e-03 -4.146023e-04 2.026285e-02
1.922834e-02 -1.327858e-02 1.277950e-02
3.564453e-03 2.264672e-02 1.128160e-02
4.115994e-03 9.099354e-03 1.744170e-02
1.714676e-02 -1.944729e-02 7.861838e-03
1.730902e-02 1.954900e-02 7.704892e-03
-9.405473e-03 3.003241e-03 2.037514e-02
-1.643780e-02 1.425157e-02 1.131210e-02
-1.643858e-02 -1.425074e-02 1.131056e-02
6.449050e-03 6.572800e-03 1.927392e-02
1.767948e-03 -9.076414e-03 1.805836e-02
4.911800e-04 -1.941339e-04 2.201096e-02
-8.848350e-03 2.838860e-03 2.026410e-02
-8.845998e-03 -2.815289e-03 2.025931e-02
1.839867e-02 1.469315e-02 1.195574e-02
1.627010e-03 7.906016e-03 1.924381e-02
4.595679e-03 -2.400659e-02 1.137952e-02
1.995190e-02 -1.032219e-03 -3.398862e-02
2.102710e-02 -1.981441e-02 -3.099654e-02
6.780081e-03 2.403395e-02 7.893497e-03
-1.203457e-02 2.089115e-02 1.171406e-02
2.336030e-02 1.152088e-03 1.161286e-02
4.301830e-04 5.704505e-04 2.137240e-02
2.140708e-02 -8.380695e-04 1.004075e-02
1.002650e-02 2.591143e-02 -2.963191e-02
1.015857e-02 7.804187e-03 -3.973551e-02
-1.864322e-02 2.845670e-02 -9.379667e-03
-1.809435e-02 -2.838005e-02 -9.009512e-03
-1.212493e-03 9.399944e-03 2.021550e-02
7.969323e-03 -2.874615e-03 1.904663e-02
8.065007e-03 2.776634e-03 1.907468e-02
2.870703e-02 -1.619224e-02 -1.178224e-02
2.870851e-02 1.620787e-02 -1.178779e-02
-2.254774e-04 1.173165e-03 2.102354e-02
8.835359e-03 2.157683e-02 1.189345e-02
8.691357e-03 -2.153818e-02 1.189120e-02
1.132069e-03 -7.008323e-03 -4.491934e-02
1.132794e-03 7.025518e-03 -4.497629e-02
-2.365728e-02 1.629985e-03 1.158100e-02
1.129975e-02 2.313770e-03 -4.484109e-02
3.291807e-02 -1.748718e-03 -1.669167e-02
2.957388e-02 2.200993e-03 -1.772207e-02
-1.559492e-02 -2.962041e-02 -5.800617e-03
2.392698e-02 -8.678506e-04 9.936901e-03
-1.461180e-03 -2.641054e-04 2.072019e-02
2.791272e-03 2.744375e-02 -2.701841e-02
2.977831e-02 1.331113e-02 -8.718204e-04
6.908757e-03 -4.006675e-03 1.842892e-02
6.907576e-03 4.008132e-03 1.843097e-02
-3.241238e-02 -6.090747e-03 -2.463548e-03
1.392105e-03 1.419846e-03 -4.387934e-02
-8.156359e-05 8.243519e-05 -4.112064e-02
7.705925e-03 -2.145594e-02 1.159342e-02
-2.219389e-02 7.613866e-03 1.157396e-02
3.099253e-02 8.722600e-03 -1.821611e-03
4.783128e-05 -3.414455e-04 2.162485e-02
2.629272e-02 2.099418e-02 -1.460856e-02
-1.153270e-02 -3.113389e-02 -1.742616e-02
-1.124668e-02 3.103797e-02 -1.752885e-02
6.918965e-03 -4.685123e-03 1.844458e-02
-1.275735e-02 -1.756508e-02 1.287767e-02
2.611205e-02 4.722459e-03 9.287199e-03
-1.885411e-02 -2.492663e-02 -2.066548e-02
3.584106e-03 -2.012576e-02 -3.896630e-02
-1.935322e-02 2.553190e-02 -2.351239e-02
6.281955e-03 6.197376e-03 1.953805e-02
1.198352e-03 2.237901e-04 2.142287e-02
-3.800301e-03 7.753711e-03 1.970669e-02
-2.829950e-03 -7.353716e-03 1.876920e-02
3.288488e-02 -2.955379e-03 -5.995902e-03
-9.098645e-03 -1.529251e-02 -3.969645e-02
-8.921192e-03 1.502837e-02 -3.949605e-02
-2.385528e-03 2.972688e-02 -2.854529e-02
5.939000e-03 -6.438386e-03 1.983014e-02
5.920318e-03 6.448411e-03 1.985383e-02
-2.336367e-03 3.058144e-02 -1.614118e-02
-5.320274e-03 2.910559e-02 -4.170881e-03
-4.845457e-04 4.183482e-04 2.221354e-02
1.591358e-02 2.948061e-02 -1.615658e-02
-1.251577e-03 7.319046e-03 1.923264e-02
1.973024e-02 -1.755989e-02 8.833866e-03
1.972940e-02 1.757944e-02 8.839042e-03
-7.794800e-03 -2.935209e-02 -6.065206e-04
1.830477e-02 -1.689820e-02 1.095616e-02
1.392876e-02 -2.860157e-02 -2.798459e-02
1.026975e-02 -1.939543e-03 2.055397e-02
-6.010336e-05 -7.871877e-03 1.927204e-02
-2.308138e-02 -2.208295e-02 6.205886e-04
1.271365e-04 -1.053210e-03 2.192104e-02
-5.621186e-03 5.128566e-05 -4.556432e-02
1.200757e-02 1.044771e-02 -3.858950e-02
1.201575e-02 -1.044804e-02 -3.861131e-02
8.582867e-03 -2.087434e-02 -3.826931e-02
3.964162e-03 7.017041e-03 1.808367e-02
1.385313e-02 -2.815564e-02 -6.602908e-03
1.052999e-02 -2.710104e-03 1.993862e-02
1.053175e-02 2.744505e-03 1.996487e-02
2.455625e-03 -1.441891e-02 -4.023206e-02
1.798916e-02 4.437886e-03 -3.957838e-02
3.214375e-04 1.025556e-03 2.111576e-02
8.667517e-03 2.051765e-02 -3.767752e-02
-9.201785e-04 -7.391399e-03 1.852819e-02
1.352147e-02 1.745687e-02 9.990806e-03
-6.416481e-03 -7.758041e-03 2.025956e-02
-6.381499e-03 7.747542e-03 2.020679e-02
-2.114369e-03 8.621638e-03 1.825202e-02
3.515237e-03 8.377668e-03 1.798568e-02
3.634454e-03 -8.407033e-03 1.807044e-02
-1.234208e-02 2.697912e-02 -7.952625e-04
-1.228189e-02 -9.102601e-03 -4.347478e-02
1.108154e-03 4.146434e-04 2.026468e-02
2.626307e-04 3.579631e-04 2.106047e-02
4.890948e-03 2.256482e-02 9.032964e-03
-1.668283e-02 1.903341e-02 1.043286e-02
1.327440e-03 7.551342e-03 2.046472e-02
-7.711246e-03 5.968251e-03 2.023937e-02
-7.677282e-03 -5.944558e-03 2.026749e-02
-2.584237e-02 3.514288e-03 -2.812189e-02
9.492952e-03 -9.087828e-04 2.001502e-02
1.386148e-02 2.104929e-02 1.035131e-02
-2.215358e-02 -1.914663e-02 -1.744117e-02
-8.329289e-03 -4.043627e-03 1.985522e-02
-1.060218e-02 8.539665e-04 1.871186e-02
-8.325303e-03 4.041048e-03 1.984956e-02
-2.541574e-02 1.825344e-02 -1.073136e-02
6.680184e-03 -6.069051e-03 2.013404e-02
-3.121893e-03 6.996162e-03 1.968400e-02
2.562570e-02 -2.054321e-02 -1.192030e-02
1.019319e-03 -8.148380e-03 2.046118e-02
-2.943013e-02 -1.646455e-02 -1.584423e-02
-8.042262e-03 -2.883948e-02 -3.918525e-03
-7.252553e-03 3.130843e-02 -5.286473e-03
4.933223e-03 -7.110812e-03 2.032461e-02
-2.167431e-02 -4.891258e-04 1.389358e-02
-3.088066e-02 -7.246940e-03 -1.759086e-02
-7.685361e-03 -5.193467e-03 2.030067e-02
-4.907105e-03 -2.637701e-02 8.435803e-03
2.145940e-02 -1.049485e-02 1.155217e-02
2.146908e-02 1.050863e-02 1.155972e-02
-9.228533e-03 2.706135e-03 2.015706e-02
-4.533917e-03 5.083631e-03 1.839375e-02
-4.178939e-03 2.589494e-02 8.653098e-03
-8.967271e-03 -2.466636e-02 7.074303e-03
-9.513659e-03 2.526740e-02 7.751797e-03
-2.853513e-02 -2.494587e-04 1.540782e-03
-6.115789e-03 7.562608e-03 1.931571e-02
-6.124565e-03 -7.573659e-03 1.922877e-02
1.914242e-03 1.453782e-03 -4.128568e-02
1.048682e-02 2.892542e-02 -9.631689e-03
1.095349e-02 -2.863445e-02 -9.471234e-03
-3.709469e-03 -3.032135e-02 -2.579268e-02
1.390053e-02 2.008686e-02 1.075031e-02
1.394860e-02 -2.020475e-02 1.076164e-02
-3.155796e-03 -7.791435e-03 -4.217977e-02
-1.059600e-03 -8.997797e-03 2.044375e-02
-3.308429e-02 1.114864e-03 -1.242988e-02
1.720112e-02 -2.642322e-02 -2.193549e-02
1.721860e-02 2.646406e-02 -2.191199e-02
-1.477734e-03 -6.592320e-03 1.906263e-02
-7.398318e-03 -2.004847e-02 1.019316e-02
-2.633447e-02 -1.536444e-02 2.522882e-03
-2.633474e-02 1.535243e-02 2.522917e-03
-8.325508e-03 2.231519e-02 1.163381e-02
-9.198053e-04 2.906239e-02 -2.204298e-02
1.871579e-03 9.223090e-03 1.879127e-02
-1.424090e-02 1.627721e-02 -3.696495e-02
-2.657707e-02 -1.836981e-05 -3.308188e-02
3.154872e-03 -3.225028e-02 -1.245891e-02
-1.383698e-02 1.397802e-02 -3.967512e-02
-8.909312e-03 -2.043639e-02 1.129654e-02
3.957671e-03 3.351669e-02 -1.176895e-02
-2.116175e-02 -2.564316e-02 -8.082999e-03
1.868688e-02 1.608098e-02 9.557683e-03
7.307381e-03 -3.233864e-02 -7.020916e-03
1.019797e-02 -6.987351e-03 -4.226495e-02
5.117458e-03 3.013008e-02 -6.014042e-03
-3.781590e-03 1.568985e-02 -4.036889e-02
-1.063903e-02 -8.977508e-05 -4.133715e-02
1.615790e-02 -1.323019e-02 1.196832e-02
1.616140e-02 1.323907e-02 1.197475e-02
1.993613e-02 -8.886047e-03 -3.791222e-02
1.334278e-02 2.687649e-02 4.217896e-03
-9.896916e-03 -1.731434e-02 1.501676e-02
2.561998e-02 -1.580533e-02 -2.775900e-02
2.561396e-02 1.580995e-02 -2.775517e-02
2.914310e-02 8.657617e-03 -2.362955e-02
3.167098e-03 8.150818e-03 1.984992e-02
-2.327574e-03 2.853595e-02 -1.979022e-02
1.101564e-02 -3.366684e-04 -4.577804e-02
1.090804e-02 2.927454e-02 -7.664539e-03
4.075474e-03 2.096029e-02 1.371670e-02
-9.954487e-03 -5.808407e-04 2.003439e-02
-5.291014e-03 -5.454391e-03 2.065810e-02
3.304153e-05 -3.087394e-02 -2.446325e-02
-2.611003e-02 -1.605056e-02 -1.186176e-03
7.085467e-03 1.684599e-02 -3.852079e-02
-3.140695e-02 1.032203e-02 -1.213841e-02
-7.047012e-03 1.915088e-03 1.924762e-02
3.793368e-03 -1.993935e-02 1.412805e-02
2.607878e-02 4.637490e-04 -2.811418e-02
-3.213679e-03 2.108176e-02 1.128948e-02
1.305820e-02 2.458907e-03 -4.362469e-02
1.435418e-02 -2.366057e-03 -3.966902e-02
-2.942783e-02 1.060806e-02 -4.788231e-03
-2.951380e-02 -1.065343e-02 -4.844041e-03
-7.086865e-03 -2.926847e-03 1.872884e-02
3.747636e-03 -8.227071e-04 -4.658386e-02
3.079108e-03 -6.546925e-04 -4.530603e-02
2.109829e-02 -1.573948e-02 -2.790116e-02
2.723155e-03 -3.289848e-02 -1.034305e-02
3.299326e-02 -5.952377e-04 -1.500299e-02
1.612014e-02 -8.671148e-04 -4.192730e-02
-1.524123e-02 1.792018e-02 1.232322e-02
1.719423e-03 -5.208615e-03 -4.598802e-02
-3.460839e-04 -2.388775e-02 1.130638e-02
-1.147399e-02 -2.734736e-02 3.736820e-03
-7.062196e-03 -4.758084e-03 2.067410e-02
2.496329e-03 2.153258e-02 1.357083e-02
2.278639e-02 -2.274729e-03 1.092224e-02
1.712676e-03 2.100694e-02 1.367448e-02
8.139291e-03 -2.791693e-02 -2.505163e-02
8.837239e-06 7.213737e-04 2.167427e-02
3.055043e-02 -3.480210e-04 2.558065e-03
6.182124e-03 2.906932e-02 -2.224765e-02
6.887276e-03 4.062838e-03 1.984862e-02
-1.341890e-02 2.746500e-02 -3.688439e-03
3.330566e-03 -3.123336e-02 -1.736787e-02
2.782786e-02 -1.826405e-02 -1.215894e-02
2.782661e-02 1.824802e-02 -1.218390e-02
-1.925821e-02 3.075848e-04 1.164854e-02
1.781357e-03 3.119243e-02 -2.681462e-02
2.775082e-03 -3.924083e-03 -4.576596e-02
2.408131e-03 4.010595e-03 -4.576501e-02
1.921972e-02 6.040015e-04 1.236242e-02
7.368756e-03 -5.474867e-03 1.889916e-02
-7.749947e-03 3.181688e-02 -3.472522e-03
9.896403e-03 1.544391e-02 1.535601e-02
1.004390e-02 -1.545912e-02 1.549571e-02
2.430096e-02 -1.844959e-02 2.139304e-03
-1.773255e-02 -2.611720e-02 -2.371298e-02
-1.806275e-02 2.598443e-02 -2.416072e-02
-2.873080e-02 -9.491472e-03 -3.121865e-03
-5.432350e-03 1.908161e-02 1.543863e-02
-2.325960e-02 6.083109e-03 1.129346e-02
1.160519e-02 -2.413586e-04 1.961380e-02
-2.912245e-02 1.371321e-02 -1.960549e-02
2.507291e-04 -2.916136e-02 -2.681957e-02
-4.116469e-03 -1.884277e-02 1.558333e-02
-3.221346e-03 2.032171e-02 1.477764e-02
-2.619607e-02 -1.444419e-02 3.197173e-03
1.867419e-02 5.476357e-03 1.160229e-02
1.851634e-02 -5.399424e-03 1.168051e-02
-3.223404e-02 8.974513e-04 -2.854582e-03
2.252932e-03 -2.103996e-02 1.298098e-02
-9.857360e-03 -1.084183e-03 2.020101e-02
-4.044102e-04 -2.675566e-04 -4.288965e-02
-1.191439e-02 -2.198526e-02 7.502664e-03
7.247535e-05 -8.815642e-03 2.016284e-02
-8.190814e-03 3.293295e-02 -1.739218e-02
-1.072137e-04 1.236354e-02 -4.401148e-02
1.121380e-02 -1.452093e-02 -4.199154e-02
1.071989e-02 1.383787e-02 -4.160367e-02
9.288379e-04 2.808321e-02 -1.768018e-03
-1.807267e-03 7.196169e-03 2.047153e-02
3.507092e-03 -2.934546e-02 3.626523e-04
-1.628883e-02 -1.275577e-02 1.376941e-02
-1.643953e-04 -7.703719e-04 -4.280778e-02
-3.007776e-02 -3.618549e-03 -2.420543e-02
1.474748e-02 -1.828259e-02 1.103326e-02
2.112431e-02 6.464418e-03 -3.770763e-02
2.082273e-02 -6.434970e-03 -3.762191e-02
1.558946e-03 -1.368645e-02 -4.207506e-02
1.368033e-02 2.375870e-02 7.050279e-03
1.718150e-03 7.450527e-03 2.048000e-02
-2.095358e-02 -1.729785e-03 1.387377e-02
-5.778273e-03 -2.321645e-02 -3.228847e-02
2.289962e-02 2.059755e-02 -1.387048e-02
2.262077e-02 -2.406189e-02 -5.967209e-03
2.287373e-02 -2.058234e-02 -1.381696e-02
6.254080e-03 3.265959e-02 -1.917462e-02
-3.616581e-03 -2.096990e-02 1.408009e-02
-1.120401e-02 -3.168199e-02 -1.355105e-02
-1.882567e-02 3.028003e-03 -4.099233e-02
-1.873915e-02 -3.085621e-03 -4.026652e-02
7.459967e-03 1.407152e-03 2.041581e-02
7.571541e-03 -1.726554e-03 2.038388e-02
-2.520708e-02 1.664834e-02 -1.873433e-02
1.279759e-03 7.175684e-04 -4.647592e-02
2.261559e-02 2.415280e-02 -6.019911e-03
2.489005e-02 4.384786e-04 -2.827623e-02
-7.209581e-03 6.268120e-04 1.908813e-02
-6.298181e-03 -1.309996e-03 1.956092e-02
-7.952505e-04 9.322761e-03 1.855352e-02
7.456854e-03 -1.538064e-03 1.959280e-02
1.584953e-03 -1.821866e-02 -3.647938e-02
-2.188973e-02 1.082154e-03 -3.382368e-02
-2.221773e-02 -1.129034e-03 -3.454973e-02
-1.971613e-02 -1.760261e-02 -2.768281e-02
-1.744524e-02 -2.833797e-02 -5.333693e-03
-2.958952e-02 1.567240e-02 -5.343166e-03
1.533853e-02 1.472571e-02 -3.270644e-02
-6.185230e-04 3.518742e-04 -4.716142e-02
-3.626861e-03 6.561521e-03 1.873197e-02
1.779446e-02 2.411559e-02 -2.160721e-02
1.750577e-02 -2.338423e-02 -2.163978e-02
-1.245161e-03 1.882708e-02 1.458295e-02
3.293309e-02 -7.523178e-04 -2.702078e-03
-2.189025e-02 1.588729e-02 -3.014307e-02
-2.188322e-02 -1.587847e-02 -3.012614e-02
-2.436306e-02 -1.762060e-02 2.286425e-04
-2.958274e-02 -1.569343e-02 -5.348256e-03
-2.436363e-02 1.762400e-02 2.286254e-04
-1.809379e-02 -8.450522e-03 -3.750704e-02
-1.810530e-02 8.446463e-03 -3.751909e-02
-2.649348e-02 1.803651e-02 -1.696400e-04
-1.172548e-02 1.908699e-02 8.933466e-03
-1.285046e-02 -2.068403e-02 1.053359e-02
-2.082551e-02 2.570015e-02 -1.650491e-02
-2.094045e-02 -2.451927e-02 -1.725555e-02
1.464670e-02 -1.259100e-02 1.511337e-02
1.464358e-02 1.260167e-02 1.511894e-02
2.395501e-02 -1.065380e-02 9.046855e-03
-2.896163e-02 -8.645781e-03 6.376573e-04
-2.878964e-02 8.522902e-03 5.840348e-04
1.917783e-02 -2.674256e-02 -3.798418e-03
-1.497748e-02 1.773437e-02 -3.530625e-02
-1.490816e-02 -1.748309e-02 -3.537025e-02
-2.310309e-03 1.851267e-02 1.633936e-02
1.984847e-02 2.654055e-02 -1.020222e-02
-7.966968e-03 -2.440410e-03 2.005801e-02
8.639362e-03 1.945842e-02 -3.589143e-02
8.720098e-03 -1.916784e-02 -3.579529e-02
-3.742570e-04 -4.728853e-04 2.147563e-02
2.397113e-02 1.068222e-02 9.052476e-03
3.240732e-03 6.446989e-03 1.931936e-02
3.367019e-03 -6.543227e-03 1.924307e-02
-3.172193e-03 -1.875364e-02 1.646364e-02
1.239595e-04 -1.014732e-02 -4.376813e-02
6.766100e-03 1.873658e-02 1.505723e-02
-3.179890e-02 6.294160e-03 -6.338281e-03
2.910410e-03 -6.373790e-03 1.966245e-02
1.988080e-02 1.874753e-03 1.561891e-02
-4.490903e-03 -2.202959e-02 1.345708e-02
9.823791e-03 -7.347965e-03 -4.376960e-02
1.401031e-02 2.816481e-02 -2.515438e-03
1.177559e-02 -1.932729e-02 9.062943e-03
1.447520e-02 1.516010e-02 1.401583e-02
-6.535821e-03 2.617439e-02 -3.154448e-02
8.611918e-03 -2.546266e-02 -2.481074e-02
-3.232312e-02 6.641395e-03 -1.638686e-02
-3.123942e-02 -6.731528e-03 -1.643330e-02
-1.487085e-03 -1.865545e-02 1.416841e-02
-7.929137e-03 2.595025e-03 1.914939e-02
-7.917115e-03 -2.465486e-03 1.893919e-02
1.868021e-04 -9.068185e-03 1.924655e-02
1.177828e-02 5.368555e-03 1.719376e-02
9.358130e-03 1.197741e-03 2.015119e-02
9.428081e-03 -8.024386e-04 2.008460e-02
1.307244e-03 -2.706732e-03 -4.335582e-02
1.322611e-03 2.783897e-03 -4.365605e-02
7.766766e-03 -2.422627e-03 2.059964e-02
1.968085e-02 2.114829e-02 5.141743e-03
1.969296e-02 -2.122304e-02 5.166222e-03
5.643372e-03 1.838847e-02 1.529039e-02
5.043014e-05 8.309489e-03 2.036874e-02
-2.758335e-02 6.724300e-03 4.493452e-04
2.524398e-02 1.252526e-03 -2.820528e-02
-2.038145e-02 1.882467e-02 7.006496e-03
-7.670997e-03 3.745163e-03 1.929607e-02
-7.673070e-03 -3.731116e-03 1.930490e-02
-8.295495e-03 1.018357e-02 -3.749691e-02
-7.959644e-03 -1.095972e-02 -3.814130e-02
-3.490650e-03 -5.975027e-03 2.057862e-02
-3.597916e-03 6.146502e-03 2.069340e-02
-2.109307e-02 2.259148e-02 -7.290350e-03
-2.110511e-02 -2.274452e-02 -7.419689e-03
1.884625e-02 -4.863686e-03 -3.913644e-02
1.534491e-02 -9.481131e-03 1.555596e-02
1.806175e-02 1.023471e-02 1.437287e-02
1.807572e-02 -1.023155e-02 1.436841e-02