# vtk DataFile Version 2.0
Electric current density generated by TTH
ASCII
DATASET UNSTRUCTURED_GRID
POINTS 7763 double
2.593605e-05 2.831682e-05 -1.593887e-22
2.374352e-05 -2.908557e-05 6.184656e-07
-4.223253e-06 -3.730799e-05 -6.184521e-07
-5.691515e-07 -3.752643e-05 -6.131531e-07
1.888668e-05 3.266622e-05 6.505663e-07
3.420116e-05 -1.487674e-05 -4.680346e-07
3.076681e-05 2.147516e-05 6.093714e-07
3.076681e-05 -2.147516e-05 6.093714e-07
2.383524e-05 -2.869645e-05 -4.752691e-07
-3.880410e-06 -3.710172e-05 4.751513e-07
-3.160208e-07 -3.730370e-05 4.760325e-07
2.563354e-05 2.859096e-05 -1.593887e-22
2.220795e-05 3.010200e-05 5.541234e-07
3.752599e-05 1.941189e-06 6.274518e-07
3.764903e-05 8.511719e-07 6.444874e-07
3.752599e-05 -1.941189e-06 6.274518e-07
3.764903e-05 -8.511719e-07 6.444874e-07
2.727622e-05 2.581630e-05 -6.216400e-07
2.653379e-05 2.653327e-05 -6.107412e-07
-7.871163e-06 -3.673235e-05 6.246319e-07
-6.881467e-06 -3.686957e-05 6.038918e-07
3.427590e-05 1.536879e-05 -6.239127e-07
2.532814e-05 2.886186e-05 -1.593887e-22
3.811001e-05 -1.272514e-06 -5.264709e-07
3.811001e-05 1.272514e-06 -5.264709e-07
3.151472e-05 -2.062106e-05 -6.449098e-07
3.082279e-05 -2.129701e-05 -5.855129e-07
3.039858e-05 -2.215009e-05 -6.363316e-07
3.151472e-05 2.062106e-05 -6.449098e-07
3.082279e-05 2.129701e-05 -5.855129e-07
3.038741e-05 2.216677e-05 -6.365027e-07
3.569779e-05 -1.242278e-05 -6.489179e-07
2.698983e-05 2.647971e-05 6.478269e-07
2.501987e-05 2.912950e-05 -1.593887e-22
3.365958e-05 1.697636e-05 -6.487982e-07
1.393403e-05 -3.503458e-05 6.492021e-07
1.304255e-05 -3.550022e-05 6.468096e-07
1.953470e-05 3.161978e-05 2.924169e-07
2.226261e-05 3.033434e-05 -6.392768e-07
3.520994e-05 -1.402208e-05 6.330930e-07
3.581307e-05 1.240309e-05 6.329220e-07
3.582129e-05 1.132109e-05 6.250616e-07
3.522740e-05 1.396485e-05 6.342390e-07
3.577257e-05 -1.251612e-05 6.331831e-07
2.470877e-05 2.939384e-05 -1.593887e-22
3.492144e-05 -1.299712e-05 4.315554e-07
3.582129e-05 -1.132109e-05 6.250616e-07
-2.717068e-06 -3.779705e-05 -6.342013e-07
9.063811e-07 -3.788376e-05 -6.341968e-07
2.516113e-06 -3.781098e-05 -6.341968e-07
2.514651e-05 -2.834949e-05 6.340775e-07
1.952744e-05 -3.163077e-05 3.031803e-07
1.900328e-05 -3.245165e-05 6.349749e-07
2.366073e-05 2.917461e-05 -6.237168e-07
2.303390e-05 2.983960e-05 -6.485847e-07
2.439488e-05 2.965487e-05 -1.593887e-22
3.355102e-05 -1.635197e-05 4.927587e-07
7.696461e-06 -3.676542e-05 6.234957e-07
6.581112e-06 -3.698663e-05 6.250245e-07
3.706821e-05 -5.759985e-06 6.065738e-07
3.717399e-05 -4.908757e-06 5.999571e-07
3.678982e-05 -7.330657e-06 6.065738e-07
3.661579e-05 -8.242552e-06 6.136191e-07
3.678982e-05 7.330657e-06 6.065738e-07
3.661579e-05 8.242552e-06 6.136191e-07
3.706821e-05 5.759985e-06 6.065738e-07
2.407824e-05 2.991254e-05 -1.593887e-22
3.717399e-05 4.908757e-06 5.999571e-07
3.696115e-05 -7.322228e-06 -6.470552e-07
3.696115e-05 7.322228e-06 -6.470552e-07
3.724449e-05 -5.859800e-06 -6.491187e-07
3.724449e-05 5.859800e-06 -6.491187e-07
7.149602e-06 -3.711340e-05 -6.490512e-07
2.427322e-05 2.897072e-05 6.490795e-07
9.376934e-06 -3.647183e-05 6.443894e-07
1.280460e-05 -3.566937e-05 -6.333949e-07
2.218549e-05 -2.974285e-05 9.988718e-08
2.375887e-05 3.016683e-05 -1.593887e-22
1.377327e-05 3.516384e-05 -6.505495e-07
1.959662e-05 3.221053e-05 -6.491712e-07
3.489714e-05 1.469998e-05 -6.399434e-07
3.703696e-05 2.127147e-06 -1.938575e-09
3.703696e-05 -2.127147e-06 -1.938575e-09
1.526398e-05 3.452822e-05 -6.507473e-07
1.538906e-05 -3.448320e-05 -6.506331e-07
1.959466e-05 -3.221293e-05 -6.492428e-07
2.111175e-05 -3.127066e-05 -6.504865e-07
3.302592e-05 1.692652e-05 -1.289341e-07
2.343681e-05 3.041771e-05 -1.593887e-22
3.538950e-05 1.271203e-05 -6.343061e-07
3.518448e-05 1.362828e-05 -6.505293e-07
1.096775e-06 -3.753584e-05 6.202557e-07
2.154494e-06 -3.769300e-05 6.507281e-07
3.228005e-06 -3.750239e-05 6.417820e-07
-1.185091e-05 -3.586734e-05 6.502453e-07
-1.090420e-05 -3.609493e-05 6.493514e-07
-1.331871e-05 -3.538283e-05 6.481840e-07
1.671489e-05 -3.390752e-05 -6.484426e-07
1.672211e-05 3.389919e-05 -6.487903e-07
2.311211e-05 3.066515e-05 -1.593887e-22
2.898762e-05 -2.423610e-05 6.497692e-07
1.646125e-05 -3.324678e-05 -3.258890e-08
3.192885e-05 -1.889459e-05 5.862586e-08
3.192885e-05 1.889459e-05 5.862586e-08
3.645223e-05 -1.013171e-05 6.451367e-07
3.645223e-05 1.013171e-05 6.451367e-07
1.080936e-05 -3.626164e-05 6.445402e-07
-1.441061e-05 -3.498740e-05 6.444747e-07
2.957298e-05 -2.360404e-05 -6.446082e-07
2.451125e-05 2.888426e-05 -6.368100e-07
2.278480e-05 3.090913e-05 -1.593887e-22
3.422790e-05 1.624973e-05 -6.353820e-07
1.359662e-05 3.451770e-05 3.709851e-08
1.224712e-05 -3.588143e-05 6.294300e-07
2.705497e-05 2.538291e-05 7.009777e-09
2.817626e-05 2.413339e-05 -3.276505e-08
-7.984865e-06 -3.623157e-05 -6.256343e-08
-9.604983e-06 -3.583380e-05 3.137415e-08
3.234195e-05 -1.971881e-05 -6.375449e-07
3.234195e-05 1.971881e-05 -6.375449e-07
2.664690e-05 -2.608043e-05 -4.575485e-07
2.245491e-05 3.114962e-05 -1.593887e-22
2.459767e-05 -2.850227e-05 -6.430181e-07
-3.116422e-06 -3.750322e-05 6.402837e-07
8.558923e-06 -3.691761e-05 6.336936e-07
3.731090e-05 6.613007e-06 6.346968e-07
3.731090e-05 -6.613007e-06 6.346968e-07
2.604074e-05 -2.753634e-05 -6.330572e-07
2.871566e-05 -2.398951e-05 -5.602687e-07
3.378480e-05 1.532498e-05 -1.096958e-08
2.802130e-05 -2.552875e-05 -6.313190e-07
2.330205e-05 -2.991256e-05 -6.284557e-07
2.212248e-05 3.138658e-05 -1.593887e-22
3.431347e-05 -1.621159e-05 -6.187335e-07
-1.511357e-06 -3.788901e-05 6.280483e-07
-5.124297e-06 -3.757165e-05 6.279544e-07
-9.086392e-06 -3.681488e-05 6.279183e-07
2.830334e-05 2.523551e-05 -6.278730e-07
3.581775e-05 9.662629e-06 -1.701707e-08
3.581775e-05 -9.662629e-06 -1.701707e-08
2.969019e-05 -2.358310e-05 6.287278e-07
2.201290e-05 -3.088120e-05 -6.267607e-07
2.656497e-05 -2.687932e-05 -6.493496e-07
2.178755e-05 3.162000e-05 -1.593887e-22
-1.291725e-05 -3.481011e-05 -2.000201e-07
3.444669e-05 1.394567e-05 -2.826178e-07
3.760578e-05 -5.027178e-06 -6.219181e-07
3.704279e-05 -8.203582e-06 -6.219181e-07
3.704279e-05 8.203582e-06 -6.219181e-07
3.760578e-05 5.027178e-06 -6.219181e-07
9.323374e-06 -3.591163e-05 -7.357788e-08
3.595563e-05 1.210939e-05 -6.220106e-07
2.197524e-05 3.091472e-05 6.252071e-07
1.966346e-05 3.247170e-05 6.150474e-07
2.145016e-05 3.184984e-05 -1.593887e-22
2.070094e-05 -3.078526e-05 -3.320487e-09
3.152478e-05 -2.103957e-05 6.327239e-07
3.152478e-05 2.103957e-05 6.327239e-07
3.496136e-05 -1.475645e-05 6.195035e-07
-1.578988e-05 -3.357764e-05 -9.503207e-08
-1.648837e-05 -3.327656e-05 2.233576e-07
2.955184e-05 2.365872e-05 6.419212e-07
-1.751497e-05 -3.352999e-05 -6.457838e-07
1.123397e-05 -3.627288e-05 -6.110138e-07
3.499477e-05 1.474110e-05 6.109654e-07
2.111034e-05 3.207608e-05 -1.593887e-22
-3.527335e-06 -3.780863e-05 -6.109602e-07
1.009264e-07 -3.797268e-05 -6.109596e-07
3.323935e-06 -3.783714e-05 -6.071819e-07
2.462771e-05 -2.890945e-05 6.092713e-07
-1.181147e-05 -3.609066e-05 -6.104195e-07
-1.077787e-05 -3.622670e-05 -6.490370e-07
2.065224e-05 3.082754e-05 1.015426e-07
2.813018e-06 -3.702823e-05 2.161201e-07
2.327033e-05 2.889314e-05 -3.270174e-08
1.369839e-05 -3.492349e-05 -6.069174e-07
2.076814e-05 3.229870e-05 -1.593887e-22
3.502146e-05 1.255399e-05 3.553303e-07
7.719579e-06 -3.628683e-05 3.385121e-08
-6.799577e-06 -3.716404e-05 -6.499564e-07
3.665873e-05 -5.699198e-06 -3.801157e-08
3.638375e-05 7.248119e-06 -2.998447e-08
3.665850e-05 5.697934e-06 -2.998447e-08
3.638375e-05 -7.248119e-06 -2.998447e-08
1.749694e-05 3.361214e-05 6.344449e-07
1.605570e-05 -3.436116e-05 -6.257983e-07
1.607488e-05 3.436232e-05 -6.231084e-07
2.042359e-05 3.251766e-05 -1.593887e-22
1.314585e-05 3.562610e-05 -6.104887e-07
1.268989e-06 -3.720826e-05 -3.927744e-07
2.741329e-05 -2.605984e-05 -6.464659e-07
2.012197e-05 -3.130049e-05 3.656189e-07
-1.622824e-05 -3.426005e-05 -6.306637e-07
-1.462282e-06 -3.759207e-05 -6.379920e-07
2.595855e-05 2.652602e-05 1.450646e-07
-5.096060e-06 -3.711390e-05 -5.842373e-07
6.195240e-06 -3.658862e-05 -1.213744e-07
2.303089e-05 -2.956706e-05 5.919545e-07
2.007673e-05 3.273295e-05 -1.593887e-22
1.009654e-05 -3.661815e-05 6.065130e-07
3.017073e-05 -2.307105e-05 6.079447e-07
1.154284e-05 3.526986e-05 1.277267e-07
-1.855533e-05 -3.213877e-05 1.277386e-07
6.961593e-06 3.645184e-05 1.277386e-07
9.271073e-06 3.593393e-05 1.277386e-07
-2.769707e-05 -2.469965e-05 1.277386e-07
-3.623276e-05 -8.024190e-06 1.277386e-07
-3.709754e-05 -9.862337e-07 1.277386e-07
4.623796e-06 3.682147e-05 1.277386e-07
1.972761e-05 3.294454e-05 -1.593887e-22
-2.403011e-05 2.827993e-05 1.277386e-07
-3.404514e-05 -1.476919e-05 1.277386e-07
2.267192e-06 3.704133e-05 1.277386e-07
-2.023672e-05 3.110748e-05 1.277386e-07
-2.432940e-05 -2.802286e-05 1.277386e-07
-2.249359e-05 -2.951675e-05 1.277386e-07
-3.614540e-05 8.408936e-06 1.277386e-07
-1.173016e-05 3.520801e-05 1.277386e-07
-3.478177e-05 1.293943e-05 1.277386e-07
-3.303443e-05 -1.690937e-05 1.277386e-07
1.937625e-05 3.315241e-05 -1.593887e-22
-2.606625e-05 -2.641498e-05 1.277386e-07
-2.578395e-05 2.669060e-05 1.277386e-07
-3.188935e-05 -1.898078e-05 1.277386e-07
-3.285279e-05 1.725961e-05 1.277386e-07
-9.863486e-08 3.711052e-05 1.277386e-07
-9.461956e-06 3.588414e-05 1.277386e-07
-1.611440e-05 3.342942e-05 1.277386e-07
-3.038983e-05 2.129926e-05 1.277386e-07
-2.897030e-05 2.319315e-05 1.277386e-07
-7.155262e-06 3.641432e-05 1.277386e-07
1.902270e-05 3.335653e-05 -1.593887e-22
-2.921523e-05 -2.288385e-05 1.277386e-07
-2.743292e-05 2.499271e-05 1.277386e-07
-2.464060e-06 3.702876e-05 1.277386e-07
-1.395066e-05 3.438865e-05 1.277386e-07
-2.217852e-05 2.975422e-05 1.277386e-07
-2.056629e-05 -3.089058e-05 1.277386e-07
-3.553586e-05 1.069594e-05 1.277386e-07
-3.061455e-05 -2.097497e-05 1.277386e-07
-1.821260e-05 3.233422e-05 1.277386e-07
-3.168576e-05 1.931873e-05 1.277386e-07
1.866701e-05 3.355688e-05 -1.593887e-22
-3.695923e-05 -3.349027e-06 1.277386e-07
-4.819463e-06 3.679637e-05 1.277386e-07
[...]
POINT_DATA 7763
VECTORS 10.000GHz_fone_imag double
3.778356e+10 -3.769826e+10 2.265726e+08
-4.440608e+10 -3.659934e+10 6.613515e+08
-5.695157e+10 6.640117e+09 1.148317e+08
-5.743419e+10 6.671256e+08 -5.004764e+08
5.081019e+10 -2.897596e+10 -2.063311e+08
-2.456708e+10 -5.557245e+10 2.078728e+08
3.277085e+10 -4.889889e+10 -2.491020e+07
-3.232138e+10 -4.698660e+10 -2.945070e+08
-4.459675e+10 -3.717829e+10 -9.202381e+08
-5.595104e+10 6.999446e+09 2.018299e+08
-5.795880e+10 9.262007e+08 1.220657e+09
4.013016e+10 -3.621958e+10 3.695858e+08
4.696426e+10 -3.393551e+10 -3.958867e+08
1.429753e+09 -5.616925e+10 9.744779e+08
1.841748e+09 -5.642900e+10 1.606484e+08
-1.617371e+09 -5.637078e+10 -1.113313e+09
-1.483808e+09 -5.547249e+10 -2.288292e+08
4.076219e+10 -4.358367e+10 -4.907677e+08
4.150615e+10 -4.096966e+10 9.683226e+08
-5.694662e+10 1.087626e+10 -3.689875e+08
-5.522290e+10 1.216552e+10 4.101520e+08
2.398136e+10 -5.182973e+10 3.275813e+08
4.077908e+10 -3.551789e+10 -9.046203e+07
-1.773458e+09 -5.520797e+10 -4.917775e+08
1.815920e+09 -5.500315e+10 7.582073e+08
-3.081217e+10 -4.811248e+10 4.865528e+08
-3.275549e+10 -4.823874e+10 4.943304e+08
-3.409261e+10 -4.619614e+10 -1.393140e+09
3.076160e+10 -4.827350e+10 -4.680732e+08
3.261905e+10 -4.763690e+10 -8.296078e+07
3.420627e+10 -4.679177e+10 3.132306e+08
-1.865681e+10 -5.267508e+10 -1.833056e+08
3.913881e+10 -4.040009e+10 3.651459e+08
4.140498e+10 -3.424527e+10 -1.746488e+08
2.530580e+10 -5.098555e+10 -1.062221e+09
-5.273651e+10 -2.058252e+10 1.659358e+09
-5.308007e+10 -2.054871e+10 2.321627e+08
5.052306e+10 -3.009091e+10 5.171851e+08
4.599295e+10 -3.344739e+10 -3.739972e+08
-2.033455e+10 -5.058024e+10 -1.307613e+09
1.918882e+10 -5.197432e+10 1.671876e+09
1.784729e+10 -5.679418e+10 -1.351160e+08
2.121466e+10 -5.235498e+10 5.383998e+08
-1.845111e+10 -5.214155e+10 6.835993e+08
4.113669e+10 -3.533277e+10 5.663777e+08
-2.101759e+10 -5.500163e+10 6.048430e+08
-1.802781e+10 -5.359166e+10 -4.810924e+07
-5.569986e+10 5.268504e+09 -3.906637e+08
-5.885743e+10 -1.466706e+09 -3.248582e+08
-5.379177e+10 -3.557839e+09 -1.004366e+09
-4.110517e+10 -3.664849e+10 4.999262e+08
-5.086356e+10 -3.000736e+10 1.082816e+09
-5.056758e+10 -3.085384e+10 -3.121327e+08
4.667691e+10 -3.837951e+10 8.251347e+08
4.474031e+10 -3.529676e+10 3.592558e+07
4.066772e+10 -3.252568e+10 3.997792e+08
-2.363020e+10 -5.201823e+10 -1.297195e+08
-5.441968e+10 -1.124974e+10 8.834779e+08
-5.425906e+10 -1.150715e+10 9.746918e+08
-9.155183e+09 -5.639062e+10 1.114961e+08
-7.919397e+09 -5.541037e+10 1.462557e+09
-1.194466e+10 -5.611051e+10 -6.342878e+08
-1.381294e+10 -5.780481e+10 -1.841819e+08
1.211767e+10 -5.627648e+10 -4.823835e+08
1.329837e+10 -5.678337e+10 5.082342e+08
7.791944e+09 -5.815339e+10 -8.908075e+08
3.976707e+10 -3.359381e+10 -5.300586e+07
6.579696e+09 -5.458483e+10 -1.794845e+09
-1.213963e+10 -5.539089e+10 -1.627432e+09
1.266072e+10 -5.702904e+10 3.748339e+08
-8.563095e+09 -5.469025e+10 7.006111e+08
8.804753e+09 -5.471665e+10 -4.831708e+07
-5.719438e+10 -1.104254e+10 9.089281e+07
4.331987e+10 -3.633752e+10 -1.708574e+08
-5.679484e+10 -1.533047e+10 -2.761076e+08
-5.191346e+10 -1.857987e+10 -5.955624e+07
-4.732672e+10 -3.595851e+10 4.949053e+08
4.220275e+10 -3.229639e+10 -3.562516e+08
5.164770e+10 -2.080007e+10 8.892001e+08
5.050053e+10 -2.975085e+10 -1.094038e+09
2.049276e+10 -5.183526e+10 4.108483e+08
3.807851e+09 -5.907380e+10 5.618919e+08
-3.817810e+09 -5.901488e+10 -6.732363e+08
5.111600e+10 -2.301968e+10 -8.726911e+08
-5.169556e+10 -2.332277e+10 2.969237e+08
-5.009962e+10 -2.981365e+10 9.268001e+08
-4.973993e+10 -3.193732e+10 -9.073164e+08
2.782760e+10 -5.471764e+10 -4.315219e+08
4.192472e+10 -3.181831e+10 3.622017e+08
1.954640e+10 -5.362010e+10 3.283362e+08
2.030827e+10 -5.249258e+10 -1.187407e+09
-5.621756e+10 -1.390846e+09 8.624902e+06
-6.039765e+10 -3.860357e+09 -4.036816e+07
-5.811630e+10 -5.116595e+09 6.566397e+08
-5.244924e+10 1.989248e+10 1.928297e+09
-5.405323e+10 1.687145e+10 5.171345e+08
-5.251971e+10 2.099705e+10 3.118004e+08
-4.956109e+10 -2.433271e+10 3.922736e+08
5.133431e+10 -2.516796e+10 1.337367e+09
4.233386e+10 -3.288912e+10 -8.943759e+08
-3.615363e+10 -4.392582e+10 3.999684e+08
-5.430467e+10 -2.643489e+10 2.431043e+08
-2.911095e+10 -5.055279e+10 -5.472182e+08
2.912938e+10 -5.063207e+10 7.011699e+08
-1.479399e+10 -5.408952e+10 1.082793e+09
1.451651e+10 -5.384800e+10 -3.129994e+08
-5.353895e+10 -1.578398e+10 1.236041e+09
-5.138259e+10 2.136683e+10 -1.975627e+07
-3.579246e+10 -4.368773e+10 6.938816e+07
4.335115e+10 -3.533709e+10 -7.051154e+08
4.197303e+10 -3.172565e+10 -2.258208e+06
2.336833e+10 -4.962222e+10 -1.113245e+08
5.855160e+10 -2.164659e+10 1.750430e+09
-5.448961e+10 -1.879448e+10 5.187111e+08
4.038685e+10 -4.152603e+10 1.055880e+09
3.897859e+10 -4.605840e+10 1.090914e+08
-5.829324e+10 1.241990e+10 -7.728204e+08
-5.599265e+10 1.477977e+10 1.584640e+08
-2.969638e+10 -4.774510e+10 1.150358e+09
2.966526e+10 -4.770042e+10 -1.140739e+09
-4.154666e+10 -4.181559e+10 -1.827379e+09
4.215186e+10 -3.127797e+10 2.803398e+08
-4.377547e+10 -3.925536e+10 -2.338062e+08
-5.577977e+10 5.027843e+09 -3.868244e+08
-5.414798e+10 -1.217730e+10 5.223055e+08
1.022971e+10 -5.636867e+10 4.735623e+08
-9.821032e+09 -5.475279e+10 -9.245877e+08
-4.138686e+10 -3.854726e+10 2.695351e+08
-3.735552e+10 -4.290203e+10 -7.451406e+08
2.371476e+10 -5.466457e+10 6.937040e+08
-3.751241e+10 -3.976082e+10 -1.266213e+08
-4.404409e+10 -3.444701e+10 -6.659748e+08
4.613530e+10 -3.029211e+10 1.857190e+09
-2.315328e+10 -4.995317e+10 -1.644001e+09
-5.730823e+10 9.179846e+08 1.023386e+08
-5.554961e+10 6.890919e+09 -5.817878e+08
-5.299987e+10 1.332877e+10 8.714084e+08
4.008780e+10 -4.436597e+10 -1.152104e+09
1.571727e+10 -5.848261e+10 1.854842e+09
-1.604233e+10 -5.940657e+10 -5.749539e+08
-3.446090e+10 -4.209353e+10 -2.032829e+08
-4.653161e+10 -3.311329e+10 -1.739677e+09
-3.965512e+10 -4.037202e+10 -1.120687e+09
4.385123e+10 -3.152890e+10 6.338820e+08
-5.551874e+10 2.171232e+10 1.503401e+09
2.366432e+10 -5.590020e+10 4.858412e+08
-6.105528e+09 -5.503245e+10 -1.323479e+09
-1.217563e+10 -5.395416e+10 1.314298e+09
1.310061e+10 -5.336039e+10 -1.558138e+08
5.571225e+09 -5.464844e+10 9.215277e+08
-5.857853e+10 -1.542919e+10 4.228579e+08
1.702367e+10 -5.249694e+10 4.168740e+07
4.468286e+10 -3.203730e+10 4.592675e+08
4.746437e+10 -2.834832e+10 2.586194e+08
4.451144e+10 -3.017926e+10 1.026703e+09
-5.084736e+10 -3.431626e+10 -8.167745e+08
-3.007382e+10 -4.567473e+10 4.496716e+08
2.988870e+10 -4.544386e+10 -3.460810e+08
-2.058510e+10 -4.930817e+10 4.816794e+08
-5.322744e+10 2.601185e+10 4.975769e+08
-5.543932e+10 2.583023e+10 -8.097169e+08
3.446967e+10 -4.317982e+10 6.940732e+08
-5.075773e+10 2.591183e+10 -4.080540e+08
-5.559827e+10 -1.856774e+10 7.249560e+08
2.035834e+10 -5.099275e+10 -1.174647e+09
4.421030e+10 -2.917541e+10 5.862605e+08
-5.580935e+10 4.349858e+09 -3.741529e+08
-5.399566e+10 -1.760172e+09 -6.525806e+08
-5.473738e+10 -4.916903e+09 -1.576867e+08
-4.180456e+10 -3.570351e+10 -7.037493e+07
-5.420556e+10 1.695985e+10 2.098767e+08
-5.377370e+10 1.548734e+10 1.279625e+09
5.029147e+10 -3.274424e+10 1.579117e+09
-5.933290e+10 -5.164091e+09 -4.800508e+08
4.868610e+10 -3.721558e+10 -1.114107e+09
-5.302818e+10 -2.147929e+10 2.159997e+09
4.684953e+10 -2.982698e+10 6.996426e+08
1.937246e+10 -5.557053e+10 -8.727945e+08
-5.865300e+10 -1.300858e+10 -2.297355e+08
-5.631226e+10 9.111906e+09 2.163357e+08
-9.409723e+09 -5.787155e+10 1.430576e+09
1.190407e+10 -5.962880e+10 8.031709e+08
8.874663e+09 -5.891608e+10 1.565546e+09
-1.174625e+10 -5.817440e+10 -9.373257e+08
5.117866e+10 -2.709993e+10 -5.357963e+08
-5.297767e+10 -2.547204e+10 1.287111e+08
5.108064e+10 -2.410063e+10 3.079875e+07
4.759615e+10 -2.756592e+10 4.019301e+08
5.229509e+10 -1.783620e+10 -4.206571e+08
-5.857597e+10 -1.782948e+09 2.978212e+08
-3.906044e+10 -3.980848e+10 1.771898e+09
-4.889696e+10 -3.194008e+10 1.133891e+09
-4.958173e+10 2.411465e+10 3.855580e+08
-5.808728e+10 1.958806e+09 2.278854e+08
4.267332e+10 -4.091253e+10 -9.376662e+08
-5.812400e+10 8.317091e+09 2.283363e+08
-5.902485e+10 -9.487967e+09 1.406702e+07
-4.643978e+10 -3.552272e+10 2.963153e+08
4.493274e+10 -2.847900e+10 6.151796e+08
-5.403481e+10 -1.488877e+10 -2.342633e+08
-3.439307e+10 -4.541044e+10 7.719896e+08
5.575183e+10 -1.995578e+10 -4.353783e+08
-5.117740e+10 3.140392e+10 -1.145893e+08
5.652104e+10 -1.200127e+10 5.297249e+08
5.885685e+10 -1.707551e+10 1.604442e+08
-3.735847e+10 4.361566e+10 6.420904e+08
-1.132093e+10 5.661727e+10 5.162135e+08
-3.644552e+08 5.768260e+10 5.987663e+08
5.877693e+10 -7.264591e+09 1.112784e+09
4.525022e+10 -2.812931e+10 3.267557e+08
4.628235e+10 3.797007e+10 9.964052e+08
-2.188281e+10 5.339731e+10 5.719601e+08
5.916259e+10 -3.518643e+09 1.015702e+09
4.899321e+10 3.046808e+10 5.619334e+08
-4.483405e+10 3.877019e+10 1.026162e+09
-4.715940e+10 3.580935e+10 9.896178e+08
1.439323e+10 5.720405e+10 6.069800e+08
5.618949e+10 1.883324e+10 9.885211e+08
2.095009e+10 5.410090e+10 1.923285e+08
-2.532886e+10 5.336472e+10 -3.766799e+08
4.605301e+10 -2.595282e+10 -9.003010e+08
-4.221111e+10 4.148823e+10 1.117674e+09
4.331118e+10 4.035478e+10 5.455113e+08
-2.975055e+10 5.358154e+10 1.292874e+08
2.860598e+10 5.203207e+10 3.933805e+08
6.152534e+10 -1.697546e+09 -1.368195e+07
5.690421e+10 1.514592e+10 1.145877e+09
5.433537e+10 2.501376e+10 8.821597e+08
3.476327e+10 4.771187e+10 4.871850e+08
3.981136e+10 4.678670e+10 1.295238e+08
5.712259e+10 9.984794e+09 3.595923e+08
4.580305e+10 -2.689587e+10 -4.703269e+07
-3.652348e+10 4.975509e+10 4.038044e+08
3.974062e+10 4.188294e+10 5.954919e+08
5.902914e+10 2.832964e+09 4.613968e+08
5.767303e+10 2.139820e+10 2.944314e+07
5.060810e+10 3.531661e+10 3.904982e+08
-4.816947e+10 3.421513e+10 -4.860415e+08
1.939116e+10 5.660411e+10 4.493014e+08
-3.175317e+10 4.856838e+10 2.109885e+08
5.210880e+10 2.812067e+10 5.372449e+08
3.178267e+10 4.997541e+10 4.092611e+08
4.748184e+10 -2.547057e+10 9.952480e+07
-3.645270e+09 6.161717e+10 3.848473e+08
5.949426e+10 6.708401e+09 8.395012e+08
2.524273e+10 5.369329e+10 2.727482e+08
-7.901171e+09 5.837180e+10 4.883503e+07
-1.906324e+10 5.609273e+10 5.920398e+08
1.083713e+10 5.835747e+10 4.189386e+08
7.096495e+09 5.940646e+10 8.513368e+08
-1.529878e+10 5.980949e+10 3.661507e+08
3.248515e+09 5.966122e+10 1.011433e+09
2.879065e+10 -5.343041e+10 5.598925e+08
4.670383e+10 -2.657588e+10 -2.557551e+08
-2.724259e+10 -4.990404e+10 -8.530032e+08
-2.190865e+09 -5.894815e+10 7.159923e+08
7.919332e+08 -5.746364e+10 4.904700e+07
4.568134e+10 -3.507626e+10 1.730247e+07
4.730222e+10 -2.767309e+10 -1.872064e+08
2.754648e+10 -4.983764e+10 -6.067887e+08
-2.752783e+10 -4.937754e+10 7.049695e+08
2.498240e+10 -5.292815e+10 1.104126e+07
-4.704099e+10 -2.738950e+10 -7.916155e+08
-5.428058e+10 2.146566e+10 2.000701e+08
4.778131e+10 -2.412155e+10 2.829370e+08
1.482610e+10 -5.279428e+10 1.337611e+08
-1.591615e+10 -5.268641e+10 5.482482e+08
5.108094e+10 -2.366193e+10 -1.173843e+08
-5.359573e+10 -1.567260e+10 5.607230e+08
2.665275e+10 -4.839640e+10 -2.174692e+09
-2.784636e+10 -4.967036e+10 5.011496e+08
-5.385875e+10 2.715893e+10 7.001025e+08
-5.761586e+10 -5.788573e+08 2.062249e+09
-5.415694e+10 6.307749e+08 3.052068e+08
-5.591097e+10 7.496426e+09 -1.880702e+08
4.772809e+10 -2.531996e+10 5.790289e+08
5.452802e+10 -1.554069e+10 4.879926e+08
5.572106e+10 -1.786934e+10 3.277421e+07
5.583334e+10 -8.375747e+09 6.284072e+08
5.586163e+10 -1.011655e+10 -9.509447e+08
-4.549710e+10 3.200253e+10 1.357436e+09
-4.725921e+10 3.461823e+10 -1.450662e+08
-3.571701e+09 5.637133e+10 6.133621e+08
-2.105755e+09 5.672080e+10 -9.463807e+08
-2.435618e+10 5.090185e+10 5.904314e+08
-2.309867e+10 5.181260e+10 -9.486528e+08
4.791574e+10 -2.496238e+10 3.073460e+08
-3.921128e+10 4.057897e+10 6.231763e+08
-3.840925e+10 4.211453e+10 -9.997789e+08
1.292854e+10 5.637055e+10 -5.860997e+08
1.023857e+10 5.539261e+10 1.119600e+09
-4.882688e+10 2.716214e+10 -7.782309e+08
-4.114223e+10 3.739281e+10 1.420193e+09
-4.246415e+10 4.030535e+10 -1.409288e+08
-1.426570e+10 5.471940e+10 6.384626e+08
-1.277242e+10 5.529854e+10 -9.517609e+08
-8.992033e+09 5.714639e+10 -5.882380e+08
4.916749e+10 -2.408700e+10 2.374308e+08
-1.119623e+10 5.527352e+10 9.873498e+08
-3.234732e+10 4.967469e+10 3.494016e+08
-3.112563e+10 4.620694e+10 1.156312e+09
4.312524e+09 5.616115e+10 -1.292366e+08
2.663809e+09 5.588254e+10 8.245773e+08
-3.504564e+10 4.347971e+10 -6.736496e+07
-3.637217e+10 4.240880e+10 4.563381e+08
1.513987e+10 5.378938e+10 8.467822e+05
1.370258e+10 5.418279e+10 4.232687e+08
4.620629e+10 3.252933e+10 6.241022e+08
4.909450e+10 -2.296449e+10 -1.780114e+07
4.723256e+10 3.140833e+10 -9.489125e+08
-2.081974e+10 5.378270e+10 -2.345230e+08
-2.269164e+10 5.260915e+10 1.120534e+09
4.190525e+10 3.743854e+10 -1.167781e+08
4.029652e+10 3.820089e+10 7.341567e+08
2.322703e+10 5.364208e+10 -6.331523e+08
2.098527e+10 5.434941e+10 6.252166e+08
5.004385e+10 2.566232e+10 -1.294846e+08
4.868587e+10 2.679119e+10 7.353091e+08
3.640200e+10 4.305816e+10 5.994164e+08
4.924934e+10 -2.304622e+10 -8.987817e+07
3.777950e+10 4.228477e+10 -9.495090e+08
5.778662e+10 4.007909e+09 -5.868630e+08
5.600089e+10 6.336443e+09 9.858719e+08
3.308613e+10 4.745411e+10 -5.956454e+08
3.021993e+10 4.753004e+10 1.113465e+09
3.517692e+10 4.768482e+10 3.434259e+08
3.213302e+10 4.511836e+10 1.054242e+09
2.676010e+10 5.122484e+10 -5.750770e+08
2.387614e+10 5.103824e+10 9.757109e+08
5.562799e+10 8.670402e+09 -1.293220e+08
4.940025e+10 -2.203532e+10 6.820605e+07
5.497650e+10 1.023790e+10 8.344909e+08
5.206482e+10 1.959674e+10 1.401490e+09
5.519308e+10 1.958847e+10 -1.423832e+08
5.489232e+10 1.304974e+10 6.279462e+08
5.531732e+10 1.143924e+10 -8.914070e+08
5.312520e+10 1.639806e+10 1.430691e+09
5.626028e+10 1.614584e+10 -1.370926e+08
1.726807e+10 5.235837e+10 1.341417e+09
2.107470e+10 5.500766e+10 -1.476119e+08
5.927426e+10 2.512216e+09 3.437085e+08
5.073825e+10 -2.201974e+10 -1.015405e+09
5.533919e+10 3.302467e+09 1.057889e+09
-2.758269e+10 4.953049e+10 4.206550e+08
-2.640994e+10 5.047292e+10 -5.722710e+08
-3.360810e+10 4.534167e+10 6.268744e+08
-3.238266e+10 4.628932e+10 -8.947559e+08
2.980353e+10 4.942027e+10 -5.533445e+08
2.710464e+10 4.941165e+10 1.117937e+09
5.566746e+10 -1.303810e+09 1.394276e+09
5.856690e+10 -2.479031e+09 -1.460215e+08
7.332745e+08 5.632621e+10 -1.221793e+08
4.965922e+10 -2.028007e+10 -7.789097e+08
-9.152399e+08 5.598042e+10 8.300985e+08
-4.347091e+10 3.474029e+10 1.416300e+09
-4.494550e+10 3.745521e+10 -1.453095e+08
4.962621e+10 2.933947e+10 -2.798890e+08
4.806792e+10 3.122255e+10 1.125399e+09
-4.808231e+10 2.944306e+10 2.358912e+08
-4.774060e+10 3.128480e+10 -5.682408e+08
9.327501e+09 5.703121e+10 -5.719045e+08
6.649366e+09 5.595292e+10 9.922882e+08
4.047034e+10 4.101059e+10 -2.351228e+08
4.911460e+10 -1.990492e+10 4.002895e+07
3.865537e+10 4.224555e+10 1.126947e+09
5.399344e+10 2.436166e+10 3.344901e+08
5.034921e+10 2.379044e+10 1.150998e+09
4.439183e+10 3.397848e+10 -6.179851e+07
4.352887e+10 3.555545e+10 5.269006e+08
-5.746364e+09 5.556788e+10 -7.179865e+07
-7.050945e+09 5.516892e+10 3.214779e+08
-1.622654e+10 5.343085e+10 -6.550905e+07
-1.792491e+10 5.290882e+10 4.392736e+08
5.547120e+10 -4.662649e+09 1.423753e+09
4.927146e+10 -1.965124e+10 6.818652e+08
5.827101e+10 -6.159368e+09 -1.414904e+08
5.795148e+10 -1.249215e+10 3.508723e+08
5.468362e+10 -1.090443e+10 1.160184e+09
-4.189478e+10 -3.451815e+10 1.613506e+08
-2.278699e+10 -5.036028e+10 1.456886e+08
-5.807852e+10 1.790295e+10 1.630804e+08
-5.088935e+09 -5.517896e+10 -7.320462e+08
-4.515444e+09 -5.614117e+10 6.455453e+08
-4.340217e+09 -5.471633e+10 1.885957e+08
4.781339e+09 -5.536066e+10 8.099967e+08
4.880221e+10 -1.981745e+10 9.752303e+07
4.477211e+09 -5.615789e+10 -6.356043e+08
4.324831e+09 -5.467800e+10 -1.928287e+08
-4.875697e+09 -5.837449e+10 7.736114e+07
4.859267e+09 -5.836991e+10 -6.900794e+07
6.005113e+10 -2.085570e+10 8.644902e+07
-5.279784e+10 3.098236e+10 1.002345e+09
5.763642e+10 -1.138987e+10 3.678000e+08
5.865916e+10 -4.355721e+09 -4.093830e+08
-1.232202e+10 5.737778e+10 3.321429e+08
-4.629796e+10 3.624864e+10 -4.327222e+08
5.125514e+10 -1.774895e+10 -6.872539e+08
-4.389863e+10 3.912422e+10 -4.127502e+08
-2.935848e+10 5.036424e+10 3.939744e+08
4.451243e+10 3.756775e+10 1.353192e+09
5.604117e+10 1.786309e+10 -4.261807e+08
-4.098427e+10 4.118988e+10 4.252105e+08
2.096002e+10 5.499189e+10 7.125205e+08
3.683087e+10 4.516571e+10 4.241049e+08
-1.975101e+10 5.523337e+10 1.286446e+09
5.895269e+10 -6.092277e+08 -4.580311e+08
4.978972e+10 3.191255e+10 7.046060e+08
5.025857e+10 -1.683384e+10 -1.024179e+09
5.625657e+10 1.428918e+10 4.706876e+08
-2.590891e+10 5.172393e+10 5.293119e+08
5.316240e+10 2.509301e+10 1.723465e+08
4.015647e+10 4.348578e+10 7.281862e+08
-4.836223e+10 3.311446e+10 -4.243324e+08
5.496989e+10 2.146706e+10 -4.859371e+08
5.087223e+10 2.853005e+10 1.276674e+09
5.906376e+10 3.522172e+09 1.194754e+08
4.202285e+10 4.043939e+10 1.255543e+09
-2.320148e+10 5.448111e+10 7.242173e+08
4.876238e+10 -1.926904e+10 2.907997e+08
5.675442e+10 1.101939e+10 1.581589e+09
6.418908e+09 5.845336e+10 8.403689e+07
-3.279362e+10 4.863429e+10 3.715875e+08
1.337355e+10 5.694062e+10 1.276104e+09
-3.889073e+10 4.375527e+10 1.480509e+09
2.809067e+10 5.235922e+10 -2.224301e+08
5.835648e+10 7.149115e+09 9.695987e+07
3.133648e+10 5.042649e+10 -1.765208e+08
-1.458676e+09 5.788771e+10 1.523875e+09
4.670161e+10 3.417994e+10 5.061968e+08
5.287611e+10 -1.765400e+10 6.593906e+08
-4.721108e+09 5.776322e+10 4.987548e+08
3.427030e+10 4.819403e+10 1.449201e+08
-3.531686e+10 4.590362e+10 5.362129e+08
2.441030e+10 5.347562e+10 7.558748e+07
-8.775041e+09 5.804715e+10 9.657090e+08
1.800459e+10 5.816525e+10 5.328224e+08
-1.556013e+10 5.553860e+10 5.446874e+08
1.024886e+10 5.852574e+10 -1.980013e+08
2.340212e+09 5.788827e+10 1.334388e+09
5.756541e+10 -7.761001e+09 4.449722e+08
5.239929e+10 -1.677891e+10 6.274220e+08
5.735441e+10 -1.545520e+10 6.182471e+08
-2.034427e+10 -5.659292e+10 -4.257438e+08
1.710427e+10 -5.681327e+10 -4.344845e+08
-1.741590e+10 -5.657863e+10 -4.724261e+08
4.093669e+10 -3.931902e+10 -3.449753e+08
3.983153e+10 -3.832769e+10 -8.839369e+08
-5.418841e+10 -7.520774e+09 -1.103237e+09
-5.482393e+10 -9.277723e+09 -3.413268e+08
-5.309806e+10 1.010280e+10 6.217690e+08
-5.353815e+10 -2.912655e+10 1.139341e+09
5.101196e+10 -1.620740e+10 1.059218e+08
-2.513188e+10 -5.229985e+10 -1.465062e+09
5.255620e+10 -2.887242e+10 9.193478e+08
-4.739280e+10 -2.986509e+10 -2.951965e+08
5.176695e+10 -2.588015e+10 -4.069739e+08
4.496625e+10 -2.806961e+10 -1.681802e+08
3.791568e+10 -4.132632e+10 -1.944190e+09
-4.690716e+10 -2.845781e+10 -1.148438e+08
-5.818608e+10 1.556324e+10 2.683162e+08
-2.200819e+10 -5.431770e+10 -9.037032e+08
-5.810602e+10 -2.470889e+09 -5.986929e+08
5.106786e+10 -1.538218e+10 1.146680e+09
4.652362e+10 -3.249016e+10 3.344879e+08
-4.030964e+10 -4.490824e+10 2.514045e+07
-2.909157e+10 -5.340084e+10 -1.409240e+09
-5.060460e+10 2.288373e+10 1.489602e+09
4.996210e+10 -3.239042e+10 -1.928309e+08
-5.943701e+10 -8.548496e+09 -7.243911e+08
4.320986e+10 -3.929001e+10 -2.434336e+08
2.649375e+10 -5.058883e+10 7.451554e+08
-5.773547e+10 1.898935e+10 -6.845881e+08
4.981859e+10 -2.597024e+10 -7.756960e+08
5.166696e+10 -1.455184e+10 -4.827041e+08
-4.890319e+10 -2.595207e+10 1.373837e+09
-5.665445e+10 -1.651386e+10 8.648914e+08
1.221797e+10 -5.468113e+10 -6.158999e+08
-1.177061e+10 -5.541431e+10 8.650919e+08
-2.980741e+10 -5.031262e+10 -1.653323e+07
2.864186e+10 -4.939957e+10 -1.075881e+09
-5.746395e+10 -1.720627e+10 -1.721796e+08
1.463241e+10 -5.769127e+10 1.071703e+08
-1.369887e+10 -5.793312e+10 -2.964545e+08
-5.500840e+10 -5.433853e+09 6.581845e+08
5.189305e+10 -1.534867e+10 4.871057e+08
-5.997753e+10 -7.667151e+09 -6.805467e+08
4.368465e+10 -3.921537e+10 -2.627104e+08
-5.822360e+10 -5.689072e+09 1.227059e+09
-4.975499e+10 -2.567221e+10 -4.416215e+08
-5.640316e+10 8.678095e+09 -1.304927e+09
-2.839487e+10 -5.133806e+10 -2.856605e+08
2.819053e+10 -5.149275e+10 8.436033e+08
5.119018e+10 -2.833115e+10 8.922094e+08