# vtk DataFile Version 2.0
Electric current density generated by TTH
ASCII
DATASET UNSTRUCTURED_GRID
POINTS 7419 double
3.839950e-05 -9.405164e-21 -1.593887e-22
3.822385e-05 3.668576e-06 -1.593887e-22
1.902270e-05 3.335653e-05 -1.593887e-22
3.811001e-05 1.272514e-06 -5.264709e-07
3.151472e-05 -2.062106e-05 -6.449098e-07
3.082279e-05 -2.129701e-05 -5.855129e-07
3.039858e-05 -2.215009e-05 -6.363316e-07
3.151472e-05 2.062106e-05 -6.449098e-07
3.082279e-05 2.129701e-05 -5.855129e-07
3.038741e-05 2.216677e-05 -6.365027e-07
3.569779e-05 -1.242278e-05 -6.489179e-07
2.698983e-05 2.647971e-05 6.478269e-07
3.365958e-05 1.697636e-05 -6.487982e-07
1.866701e-05 3.355688e-05 -1.593887e-22
1.393403e-05 -3.503458e-05 6.492021e-07
1.304255e-05 -3.550022e-05 6.468096e-07
1.953470e-05 3.161978e-05 2.924169e-07
2.226261e-05 3.033434e-05 -6.392768e-07
3.520994e-05 -1.402208e-05 6.330930e-07
3.581307e-05 1.240309e-05 6.329220e-07
3.582129e-05 1.132109e-05 6.250616e-07
3.522740e-05 1.396485e-05 6.342390e-07
3.577257e-05 -1.251612e-05 6.331831e-07
3.492144e-05 -1.299712e-05 4.315554e-07
1.830920e-05 3.375344e-05 -1.593887e-22
3.582129e-05 -1.132109e-05 6.250616e-07
-2.717068e-06 -3.779705e-05 -6.342013e-07
9.063811e-07 -3.788376e-05 -6.341968e-07
2.516113e-06 -3.781098e-05 -6.341968e-07
2.514651e-05 -2.834949e-05 6.340775e-07
1.952744e-05 -3.163077e-05 3.031803e-07
1.900328e-05 -3.245165e-05 6.349749e-07
2.366073e-05 2.917461e-05 -6.237168e-07
2.303390e-05 2.983960e-05 -6.485847e-07
3.355102e-05 -1.635197e-05 4.927587e-07
1.794933e-05 3.394618e-05 -1.593887e-22
7.696461e-06 -3.676542e-05 6.234957e-07
6.581112e-06 -3.698663e-05 6.250245e-07
3.706821e-05 -5.759985e-06 6.065738e-07
3.717399e-05 -4.908757e-06 5.999571e-07
3.678982e-05 -7.330657e-06 6.065738e-07
3.661579e-05 -8.242552e-06 6.136191e-07
3.678982e-05 7.330657e-06 6.065738e-07
3.661579e-05 8.242552e-06 6.136191e-07
3.706821e-05 5.759985e-06 6.065738e-07
3.717399e-05 4.908757e-06 5.999571e-07
1.758742e-05 3.413509e-05 -1.593887e-22
3.696115e-05 -7.322228e-06 -6.470552e-07
3.696115e-05 7.322228e-06 -6.470552e-07
3.724449e-05 -5.859800e-06 -6.491187e-07
3.724449e-05 5.859800e-06 -6.491187e-07
7.149602e-06 -3.711340e-05 -6.490512e-07
2.427322e-05 2.897072e-05 6.490795e-07
9.376934e-06 -3.647183e-05 6.443894e-07
1.280460e-05 -3.566937e-05 -6.333949e-07
2.218549e-05 -2.974285e-05 9.988718e-08
1.377327e-05 3.516384e-05 -6.505495e-07
1.722353e-05 3.432013e-05 -1.593887e-22
1.959662e-05 3.221053e-05 -6.491712e-07
3.489714e-05 1.469998e-05 -6.399434e-07
3.703696e-05 2.127147e-06 -1.938575e-09
3.703696e-05 -2.127147e-06 -1.938575e-09
1.526398e-05 3.452822e-05 -6.507473e-07
1.538906e-05 -3.448320e-05 -6.506331e-07
1.959466e-05 -3.221293e-05 -6.492428e-07
2.111175e-05 -3.127066e-05 -6.504865e-07
3.302592e-05 1.692652e-05 -1.289341e-07
3.538950e-05 1.271203e-05 -6.343061e-07
1.685769e-05 3.450130e-05 -1.593887e-22
3.518448e-05 1.362828e-05 -6.505293e-07
1.096775e-06 -3.753584e-05 6.202557e-07
2.154494e-06 -3.769300e-05 6.507281e-07
3.228005e-06 -3.750239e-05 6.417820e-07
-1.185091e-05 -3.586734e-05 6.502453e-07
-1.090420e-05 -3.609493e-05 6.493514e-07
-1.331871e-05 -3.538283e-05 6.481840e-07
1.671489e-05 -3.390752e-05 -6.484426e-07
1.672211e-05 3.389919e-05 -6.487903e-07
2.898762e-05 -2.423610e-05 6.497692e-07
1.648994e-05 3.467857e-05 -1.593887e-22
1.646125e-05 -3.324678e-05 -3.258890e-08
3.192885e-05 -1.889459e-05 5.862586e-08
3.192885e-05 1.889459e-05 5.862586e-08
3.645223e-05 -1.013171e-05 6.451367e-07
3.645223e-05 1.013171e-05 6.451367e-07
1.080936e-05 -3.626164e-05 6.445402e-07
-1.441061e-05 -3.498740e-05 6.444747e-07
2.957298e-05 -2.360404e-05 -6.446082e-07
2.451125e-05 2.888426e-05 -6.368100e-07
3.422790e-05 1.624973e-05 -6.353820e-07
1.612034e-05 3.485192e-05 -1.593887e-22
1.359662e-05 3.451770e-05 3.709851e-08
1.224712e-05 -3.588143e-05 6.294300e-07
2.705497e-05 2.538291e-05 7.009777e-09
2.817626e-05 2.413339e-05 -3.276505e-08
-7.984865e-06 -3.623157e-05 -6.256343e-08
-9.604983e-06 -3.583380e-05 3.137415e-08
3.234195e-05 -1.971881e-05 -6.375449e-07
3.234195e-05 1.971881e-05 -6.375449e-07
2.664690e-05 -2.608043e-05 -4.575485e-07
2.459767e-05 -2.850227e-05 -6.430181e-07
1.574891e-05 3.502133e-05 -1.593887e-22
-3.116422e-06 -3.750322e-05 6.402837e-07
8.558923e-06 -3.691761e-05 6.336936e-07
3.731090e-05 6.613007e-06 6.346968e-07
3.731090e-05 -6.613007e-06 6.346968e-07
2.604074e-05 -2.753634e-05 -6.330572e-07
2.871566e-05 -2.398951e-05 -5.602687e-07
3.378480e-05 1.532498e-05 -1.096958e-08
2.802130e-05 -2.552875e-05 -6.313190e-07
2.330205e-05 -2.991256e-05 -6.284557e-07
3.431347e-05 -1.621159e-05 -6.187335e-07
3.818269e-05 4.074736e-06 -1.593887e-22
1.537570e-05 3.518678e-05 -1.593887e-22
-1.511357e-06 -3.788901e-05 6.280483e-07
-5.124297e-06 -3.757165e-05 6.279544e-07
-9.086392e-06 -3.681488e-05 6.279183e-07
2.830334e-05 2.523551e-05 -6.278730e-07
3.581775e-05 9.662629e-06 -1.701707e-08
3.581775e-05 -9.662629e-06 -1.701707e-08
2.969019e-05 -2.358310e-05 6.287278e-07
2.201290e-05 -3.088120e-05 -6.267607e-07
2.656497e-05 -2.687932e-05 -6.493496e-07
-1.291725e-05 -3.481011e-05 -2.000201e-07
1.500075e-05 3.534825e-05 -1.593887e-22
3.444669e-05 1.394567e-05 -2.826178e-07
3.760578e-05 -5.027178e-06 -6.219181e-07
3.704279e-05 -8.203582e-06 -6.219181e-07
3.704279e-05 8.203582e-06 -6.219181e-07
3.760578e-05 5.027178e-06 -6.219181e-07
9.323374e-06 -3.591163e-05 -7.357788e-08
3.595563e-05 1.210939e-05 -6.220106e-07
2.197524e-05 3.091472e-05 6.252071e-07
1.966346e-05 3.247170e-05 6.150474e-07
2.070094e-05 -3.078526e-05 -3.320487e-09
1.462410e-05 3.550573e-05 -1.593887e-22
3.152478e-05 -2.103957e-05 6.327239e-07
3.152478e-05 2.103957e-05 6.327239e-07
3.496136e-05 -1.475645e-05 6.195035e-07
-1.578988e-05 -3.357764e-05 -9.503207e-08
-1.648837e-05 -3.327656e-05 2.233576e-07
2.955184e-05 2.365872e-05 6.419212e-07
-1.751497e-05 -3.352999e-05 -6.457838e-07
1.123397e-05 -3.627288e-05 -6.110138e-07
3.499477e-05 1.474110e-05 6.109654e-07
-3.527335e-06 -3.780863e-05 -6.109602e-07
1.424581e-05 3.565920e-05 -1.593887e-22
1.009264e-07 -3.797268e-05 -6.109596e-07
3.323935e-06 -3.783714e-05 -6.071819e-07
2.462771e-05 -2.890945e-05 6.092713e-07
-1.181147e-05 -3.609066e-05 -6.104195e-07
-1.077787e-05 -3.622670e-05 -6.490370e-07
2.065224e-05 3.082754e-05 1.015426e-07
2.813018e-06 -3.702823e-05 2.161201e-07
2.327033e-05 2.889314e-05 -3.270174e-08
1.369839e-05 -3.492349e-05 -6.069174e-07
3.502146e-05 1.255399e-05 3.553303e-07
1.386590e-05 3.580863e-05 -1.593887e-22
7.719579e-06 -3.628683e-05 3.385121e-08
-6.799577e-06 -3.716404e-05 -6.499564e-07
3.665873e-05 -5.699198e-06 -3.801157e-08
3.638375e-05 7.248119e-06 -2.998447e-08
3.665850e-05 5.697934e-06 -2.998447e-08
3.638375e-05 -7.248119e-06 -2.998447e-08
1.749694e-05 3.361214e-05 6.344449e-07
1.605570e-05 -3.436116e-05 -6.257983e-07
1.607488e-05 3.436232e-05 -6.231084e-07
1.314585e-05 3.562610e-05 -6.104887e-07
1.348443e-05 3.595402e-05 -1.593887e-22
1.268989e-06 -3.720826e-05 -3.927744e-07
2.741329e-05 -2.605984e-05 -6.464659e-07
2.012197e-05 -3.130049e-05 3.656189e-07
-1.622824e-05 -3.426005e-05 -6.306637e-07
-1.462282e-06 -3.759207e-05 -6.379920e-07
2.595855e-05 2.652602e-05 1.450646e-07
-5.096060e-06 -3.711390e-05 -5.842373e-07
6.195240e-06 -3.658862e-05 -1.213744e-07
2.303089e-05 -2.956706e-05 5.919545e-07
1.009654e-05 -3.661815e-05 6.065130e-07
1.310143e-05 3.609535e-05 -1.593887e-22
3.017073e-05 -2.307105e-05 6.079447e-07
1.154284e-05 3.526986e-05 1.277267e-07
-1.855533e-05 -3.213877e-05 1.277386e-07
6.961593e-06 3.645184e-05 1.277386e-07
9.271073e-06 3.593393e-05 1.277386e-07
-2.769707e-05 -2.469965e-05 1.277386e-07
-3.623276e-05 -8.024190e-06 1.277386e-07
-3.709754e-05 -9.862337e-07 1.277386e-07
4.623796e-06 3.682147e-05 1.277386e-07
-2.403011e-05 2.827993e-05 1.277386e-07
1.271695e-05 3.623259e-05 -1.593887e-22
-3.404514e-05 -1.476919e-05 1.277386e-07
2.267192e-06 3.704133e-05 1.277386e-07
-2.023672e-05 3.110748e-05 1.277386e-07
-2.432940e-05 -2.802286e-05 1.277386e-07
-2.249359e-05 -2.951675e-05 1.277386e-07
-3.614540e-05 8.408936e-06 1.277386e-07
-1.173016e-05 3.520801e-05 1.277386e-07
-3.478177e-05 1.293943e-05 1.277386e-07
-3.303443e-05 -1.690937e-05 1.277386e-07
-2.606625e-05 -2.641498e-05 1.277386e-07
1.233103e-05 3.636574e-05 -1.593887e-22
-2.578395e-05 2.669060e-05 1.277386e-07
-3.188935e-05 -1.898078e-05 1.277386e-07
-3.285279e-05 1.725961e-05 1.277386e-07
-9.863486e-08 3.711052e-05 1.277386e-07
-9.461956e-06 3.588414e-05 1.277386e-07
-1.611440e-05 3.342942e-05 1.277386e-07
-3.038983e-05 2.129926e-05 1.277386e-07
-2.897030e-05 2.319315e-05 1.277386e-07
-7.155262e-06 3.641432e-05 1.277386e-07
-2.921523e-05 -2.288385e-05 1.277386e-07
1.194372e-05 3.649478e-05 -1.593887e-22
-2.743292e-05 2.499271e-05 1.277386e-07
-2.464060e-06 3.702876e-05 1.277386e-07
-1.395066e-05 3.438865e-05 1.277386e-07
-2.217852e-05 2.975422e-05 1.277386e-07
-2.056629e-05 -3.089058e-05 1.277386e-07
-3.553586e-05 1.069594e-05 1.277386e-07
-3.061455e-05 -2.097497e-05 1.277386e-07
-1.821260e-05 3.233422e-05 1.277386e-07
-3.168576e-05 1.931873e-05 1.277386e-07
-3.695923e-05 -3.349027e-06 1.277386e-07
3.813721e-05 4.480436e-06 -1.593887e-22
1.155506e-05 3.661969e-05 -1.593887e-22
-4.819463e-06 3.679637e-05 1.277386e-07
-3.388620e-05 1.513030e-05 1.277386e-07
-3.667057e-05 -5.698197e-06 1.277386e-07
-3.491737e-05 -1.256893e-05 1.277386e-07
-3.660792e-05 6.087729e-06 1.277386e-07
-3.692153e-05 3.741760e-06 1.277386e-07
-3.564756e-05 -1.031754e-05 1.277386e-07
-3.708496e-05 1.380571e-06 1.277386e-07
3.326184e-05 1.814295e-05 6.356326e-07
3.326184e-05 -1.814295e-05 6.356326e-07
1.116510e-05 3.674047e-05 -1.593887e-22
3.749750e-05 -7.407204e-07 -6.033050e-07
3.749750e-05 7.407204e-07 -6.033050e-07
2.285101e-05 2.975193e-05 6.071734e-07
1.912052e-05 3.279953e-05 -6.134799e-07
3.285564e-05 1.908583e-05 6.015944e-07
3.285564e-05 -1.908583e-05 6.015944e-07
3.356767e-05 1.653610e-05 5.614153e-07
1.911971e-05 -3.280096e-05 -6.131862e-07
-1.440948e-05 -3.419116e-05 -8.435786e-08
[...]
POINT_DATA 7419
VECTORS 10.000GHz_fone_imag double
7.925250e-05 -2.178216e-05 2.098986e-02
-1.968273e-04 3.119926e-05 2.073945e-02
3.157282e-05 2.588944e-04 2.079479e-02
1.745449e-02 8.555506e-04 1.233562e-02
1.872774e-02 -1.217943e-02 -3.601242e-03
1.694690e-02 -1.153731e-02 -1.065680e-02
1.785024e-02 -1.298607e-02 -5.802304e-03
1.873806e-02 1.217060e-02 -3.616776e-03
1.691256e-02 1.179337e-02 -1.039675e-02
1.785874e-02 1.295601e-02 -5.627571e-03
2.091014e-02 -7.290763e-03 1.067469e-03
-1.584275e-02 -1.559676e-02 1.248074e-03
2.010680e-02 9.947927e-03 -2.610285e-03
-1.539528e-04 -4.580687e-05 2.083461e-02
-8.197486e-03 2.094625e-02 -1.799293e-03
-7.605479e-03 2.091800e-02 1.616436e-03
-5.705618e-03 -9.488035e-03 -2.110520e-02
1.318559e-02 1.790051e-02 -4.878783e-03
-1.995197e-02 7.853288e-03 4.942492e-03
-2.035761e-02 -6.857791e-03 4.523063e-03
-2.085261e-02 -6.684010e-03 -6.841463e-03
-1.996498e-02 -8.170985e-03 4.745394e-03
-2.013579e-02 7.127713e-03 4.816881e-03
-1.416235e-02 5.130471e-03 -1.790981e-02
6.656854e-05 1.838034e-05 2.088019e-02
-2.060007e-02 6.875243e-03 -6.817585e-03
-1.757997e-03 -2.149887e-02 5.002640e-03
3.063650e-04 -2.176589e-02 4.660718e-03
1.577204e-03 -2.131164e-02 4.799320e-03
-1.431354e-02 1.590086e-02 4.921136e-03
-6.021564e-03 9.594824e-03 -2.098986e-02
-1.117465e-02 1.905222e-02 -5.459351e-03
1.377638e-02 1.703807e-02 -7.051144e-03
1.376405e-02 1.770095e-02 -2.184604e-03
-1.549426e-02 7.383628e-03 -1.557824e-02
8.256955e-05 -1.816972e-05 2.098575e-02
-4.347771e-03 2.114084e-02 -7.302827e-03
-3.935869e-03 2.112124e-02 -6.644675e-03
-2.084810e-02 3.229494e-03 -8.961167e-03
-2.044505e-02 2.610431e-03 -9.197098e-03
-2.074234e-02 4.317702e-03 -8.687320e-03
-2.106201e-02 4.686923e-03 -8.084147e-03
-2.077306e-02 -4.203490e-03 -8.607523e-03
-2.096070e-02 -4.765765e-03 -8.115170e-03
-2.099645e-02 -3.156439e-03 -8.807021e-03
-2.035774e-02 -2.608215e-03 -9.201847e-03
-1.444503e-05 -6.655331e-05 2.101199e-02
2.187145e-02 -4.342011e-03 -2.800465e-03
2.193391e-02 4.416774e-03 -2.789500e-03
2.202427e-02 -3.572095e-03 -2.213447e-03
2.201506e-02 3.439148e-03 -2.098545e-03
4.228984e-03 -2.208432e-02 1.145594e-03
-1.427930e-02 -1.718105e-02 1.228884e-03
-5.576581e-03 2.163207e-02 -3.684762e-03
7.163225e-03 -2.025849e-02 5.036866e-03
-2.219439e-03 2.977666e-03 -2.356330e-02
8.276373e-03 2.069483e-02 2.084077e-05
3.672953e-04 3.918339e-04 2.109921e-02
1.165723e-02 1.919074e-02 -2.089094e-03
2.009284e-02 8.176715e-03 4.175663e-03
-6.522370e-04 -2.671956e-05 -2.396249e-02
-6.348565e-04 4.519495e-05 -2.394667e-02
9.021315e-03 2.048918e-02 -9.669460e-04
9.081973e-03 -2.042503e-02 -3.551840e-04
1.168595e-02 -1.916612e-02 -2.159662e-03
1.230380e-02 -1.868394e-02 -1.100893e-03
4.010747e-03 2.045590e-03 -2.376539e-02
2.054854e-02 7.495393e-03 -5.762115e-03
3.313347e-05 1.728697e-04 2.092956e-02
2.089474e-02 8.293564e-03 -8.352603e-04
-5.989673e-04 2.138629e-02 -7.367748e-03
-1.415324e-03 2.256330e-02 -2.800215e-04
-2.040096e-03 2.222138e-02 -4.268669e-03
7.375487e-03 2.101688e-02 -4.288241e-04
6.397587e-03 2.113076e-02 -1.976159e-03
7.752766e-03 2.078534e-02 1.219302e-03
9.608692e-03 -1.988799e-02 1.310077e-03
1.005514e-02 1.996328e-02 1.210450e-03
-1.706607e-02 1.430689e-02 4.649523e-04
-5.479098e-05 2.807372e-04 2.124098e-02
4.467924e-04 -1.136691e-03 -2.400739e-02
-1.410738e-03 1.435758e-03 -2.357314e-02
-1.370901e-03 -1.457483e-03 -2.357960e-02
-2.116384e-02 5.937506e-03 2.815323e-03
-2.112308e-02 -5.982448e-03 2.727848e-03
-6.433462e-03 2.124160e-02 2.030088e-03
8.318290e-03 2.030903e-02 2.750245e-03
1.707899e-02 -1.392742e-02 2.384539e-03
1.377923e-02 1.673871e-02 4.394384e-03
1.948285e-02 9.257758e-03 3.939673e-03
-1.046573e-04 1.623079e-04 2.092753e-02
-4.617560e-04 -1.389342e-03 -2.399916e-02
-6.886027e-03 2.032997e-02 5.557464e-03
-1.518904e-04 -3.894781e-04 -2.387954e-02
1.045973e-03 8.980943e-04 -2.388268e-02
-2.668182e-04 -2.033589e-03 -2.398453e-02
5.553822e-04 1.614041e-03 -2.367393e-02
1.851174e-02 -1.140686e-02 3.970758e-03
1.850089e-02 1.139869e-02 3.968725e-03
1.201238e-02 -1.169387e-02 -1.674520e-02
1.459565e-02 -1.695484e-02 -4.224924e-03
-3.948678e-04 -3.797999e-04 2.100772e-02
1.824475e-03 2.185664e-02 -4.414705e-03
-4.876007e-03 2.086420e-02 4.672398e-03
-2.130283e-02 -3.841063e-03 4.586431e-03
-2.125387e-02 3.677243e-03 4.469357e-03
1.454335e-02 -1.579752e-02 5.185028e-03
1.505347e-02 -1.252707e-02 -1.219599e-02
8.207845e-04 4.759044e-04 -2.404123e-02
1.571948e-02 -1.431566e-02 5.137847e-03
1.339280e-02 -1.684420e-02 5.205473e-03
1.889275e-02 -8.897561e-03 6.476815e-03
8.426301e-05 -5.053270e-06 2.089605e-02
-1.074242e-04 -2.390019e-04 2.096558e-02
7.867427e-04 2.147857e-02 4.908166e-03
3.038199e-03 2.107554e-02 5.717609e-03
4.987717e-03 2.054896e-02 5.365133e-03
1.603772e-02 1.438042e-02 5.349069e-03
5.219093e-04 9.370423e-06 -2.403229e-02
5.498436e-04 -1.299769e-04 -2.409488e-02
-1.665538e-02 1.323436e-02 5.243163e-03
1.243613e-02 -1.737912e-02 5.054301e-03
1.551268e-02 -1.578405e-02 7.652823e-04
-2.673051e-03 -6.828643e-03 -2.254807e-02
1.551301e-04 -2.449511e-04 2.090883e-02
9.859915e-03 4.132681e-03 -2.163157e-02
2.089253e-02 -2.603474e-03 6.105545e-03
2.062281e-02 -4.428998e-03 6.162108e-03
2.057962e-02 4.618999e-03 6.056348e-03
2.083722e-02 2.670268e-03 6.101828e-03
8.310002e-04 -3.011474e-03 -2.388192e-02
1.989024e-02 6.626499e-03 6.082905e-03
-1.253475e-02 -1.717741e-02 5.479887e-03
-1.071102e-02 -1.779416e-02 6.843453e-03
-1.306166e-04 6.942119e-04 -2.387748e-02
-1.206755e-04 1.536570e-05 2.085416e-02
-1.785483e-02 1.186563e-02 4.752554e-03
-1.785583e-02 -1.188728e-02 4.724153e-03
-1.911972e-02 8.133865e-03 6.402029e-03
-1.660398e-03 -3.022963e-03 -2.367479e-02
3.948538e-03 7.698144e-03 -2.253980e-02
-1.703708e-02 -1.372478e-02 3.117086e-03
-1.043360e-02 -1.948307e-02 1.917520e-03
6.353532e-03 -1.984730e-02 7.061721e-03
-1.896539e-02 -7.816526e-03 7.160892e-03
-1.647499e-03 -2.056336e-02 7.359377e-03
-1.597889e-04 -1.415985e-04 2.081805e-02
9.185316e-05 -2.054960e-02 7.313670e-03
1.819027e-03 -2.040000e-02 7.209921e-03
-1.325380e-02 1.569859e-02 7.278707e-03
-6.528852e-03 -1.989606e-02 6.695986e-03
-6.441744e-03 -2.138200e-02 1.445205e-03
-2.218909e-03 -3.436732e-03 -2.366157e-02
-7.044007e-04 7.253201e-03 -2.262051e-02
4.847037e-04 8.187457e-04 -2.415964e-02
7.873847e-03 -2.012063e-02 -8.110547e-03
-1.195713e-02 -4.100471e-03 -1.992803e-02
-1.150355e-04 -3.204820e-04 2.074251e-02
-1.229120e-04 9.233818e-04 -2.400748e-02
-4.130700e-03 -2.186730e-02 4.981973e-04
1.368372e-03 -3.125533e-04 -2.378061e-02
1.009288e-03 3.608892e-05 -2.395596e-02
1.422239e-03 1.493249e-04 -2.389281e-02
1.239917e-03 -3.040865e-04 -2.389630e-02
-1.019063e-02 -1.927646e-02 4.425736e-03
9.268980e-03 -1.941658e-02 5.599333e-03
9.287369e-03 1.927914e-02 5.579447e-03
7.073222e-03 1.935608e-02 7.213273e-03
7.726573e-05 -1.543144e-04 2.084933e-02
3.296776e-04 -1.366604e-02 -1.934944e-02
1.588489e-02 -1.505576e-02 1.697803e-03
-7.386140e-03 1.102329e-02 -1.943371e-02
-9.239747e-03 -1.948635e-02 4.867733e-03
-9.168057e-04 -2.217696e-02 -5.024498e-03
-3.908881e-03 -3.646655e-03 -2.313386e-02
-2.843155e-03 -2.025285e-02 -1.103383e-02
8.822266e-04 -4.458396e-03 -2.338793e-02
-1.281630e-02 1.650326e-02 -9.660093e-03
-5.289200e-03 1.977048e-02 7.570889e-03
1.936576e-04 1.224003e-04 2.084593e-02
-1.626057e-02 1.233093e-02 7.402165e-03
-1.132159e-03 -3.944316e-03 -2.344671e-02
1.946060e-03 3.468643e-03 -2.351129e-02
-8.609330e-04 -4.658855e-03 -2.311388e-02
-9.101357e-04 -3.892797e-03 -2.359849e-02
3.490446e-03 3.209504e-03 -2.310450e-02
4.623850e-03 1.044742e-03 -2.311028e-02
4.722747e-03 1.668704e-04 -2.310488e-02
-4.873359e-04 -4.007154e-03 -2.346460e-02
3.041022e-03 -3.515293e-03 -2.331239e-02
-3.927634e-05 3.283751e-04 2.073691e-02
4.324384e-03 1.902899e-03 -2.311760e-02
-2.499921e-04 -4.053603e-03 -2.346341e-02
2.595685e-03 -3.943143e-03 -2.311517e-02
2.656576e-03 3.064411e-03 -2.347066e-02
2.459966e-03 3.224186e-03 -2.346248e-02
4.615305e-03 -1.015526e-03 -2.319151e-02
1.282436e-03 -3.847576e-03 -2.346728e-02
4.391086e-03 -1.679695e-03 -2.315812e-02
3.536261e-03 1.867539e-03 -2.343838e-02
2.823469e-03 2.882664e-03 -2.345819e-02
-2.776696e-04 7.776848e-05 2.096956e-02
3.325601e-03 -3.366564e-03 -2.322560e-02
3.396397e-03 2.119348e-03 -2.358983e-02
4.183347e-03 -2.192521e-03 -2.321034e-02
8.424910e-05 -4.027128e-03 -2.360673e-02
1.040023e-03 -3.883891e-03 -2.342682e-02
2.044610e-03 -4.197884e-03 -2.330158e-02
3.903988e-03 -2.698863e-03 -2.319324e-02
3.177440e-03 -2.433173e-03 -2.360799e-02
9.382350e-04 -4.562950e-03 -2.313727e-02
3.117467e-03 2.450761e-03 -2.368982e-02
-1.542763e-04 -4.458398e-04 2.099070e-02
3.512385e-03 -3.165137e-03 -2.312120e-02
3.502327e-04 -4.741931e-03 -2.319374e-02
1.581235e-03 -3.704526e-03 -2.361464e-02
2.371050e-03 -3.174990e-03 -2.368763e-02
2.197066e-03 3.362132e-03 -2.343696e-02
3.432996e-03 -1.198400e-03 -2.364695e-02
3.841828e-03 2.660072e-03 -2.314382e-02
2.369192e-03 -4.103613e-03 -2.321500e-02
4.022199e-03 -2.446780e-03 -2.319079e-02
3.950543e-03 3.599337e-04 -2.368593e-02
9.725676e-05 -8.046775e-05 2.091444e-02
3.132526e-04 1.435677e-06 2.105983e-02
6.174941e-04 -4.630619e-03 -2.330909e-02
4.257509e-03 -1.846110e-03 -2.323349e-02
4.634494e-03 7.893526e-04 -2.319767e-02
4.426390e-03 1.660529e-03 -2.323191e-02
4.658949e-03 -7.681894e-04 -2.321287e-02
4.651186e-03 -4.606291e-04 -2.330232e-02
3.803465e-03 1.106076e-03 -2.368290e-02
4.653313e-03 -1.401593e-04 -2.329038e-02
-1.928258e-02 -1.061466e-02 3.709780e-03
-1.919338e-02 1.040998e-02 3.607125e-03
-2.259218e-04 -1.567069e-04 2.084958e-02
2.103311e-02 -5.183015e-04 -9.552775e-03
2.093541e-02 5.114206e-04 -9.505555e-03
-1.313460e-02 -1.678156e-02 -8.745952e-03
1.055895e-02 1.783820e-02 6.617975e-03
-1.760090e-02 -1.010552e-02 8.085964e-03
-1.754639e-02 1.012810e-02 8.023072e-03
-1.766109e-02 -8.613491e-03 -1.197508e-02
1.017293e-02 -1.796875e-02 6.934352e-03
-1.135956e-03 -2.865923e-03 -2.372438e-02
-1.912048e-02 -5.719877e-03 8.395110e-03
4.081502e-05 -1.764453e-04 2.097475e-02
-1.917746e-02 5.772624e-03 8.393112e-03
-9.261431e-03 -1.948058e-02 5.115732e-03
5.855908e-03 -2.013804e-02 6.634945e-03
1.892571e-02 1.054205e-02 4.493446e-03
1.895503e-02 -1.047246e-02 4.710121e-03
-3.242939e-03 -6.441912e-03 -2.299540e-02
-1.495644e-04 2.230367e-02 -3.096144e-03
6.501488e-04 2.072257e-02 6.898692e-03
2.690232e-03 2.136870e-02 5.110545e-03
6.077450e-03 2.079320e-02 4.888667e-03
8.426639e-05 9.537885e-05 2.097080e-02
6.682385e-03 2.148302e-02 9.233709e-04
3.408383e-03 2.140842e-02 4.884142e-03
3.844446e-03 2.206918e-02 8.950833e-04
-1.247329e-02 -1.762026e-02 4.794391e-03
-1.326416e-02 -1.802439e-02 1.425890e-03
-2.160645e-02 -1.241322e-03 4.872440e-03
-2.237375e-02 -9.663916e-04 8.895314e-04
-1.960299e-02 -9.222143e-03 4.868090e-03
-2.039674e-02 -9.248173e-03 8.825895e-04
-1.572013e-02 -1.491002e-02 4.885029e-03
-6.343200e-05 -1.382171e-04 2.092882e-02
-1.647579e-02 -1.518757e-02 8.868199e-04
-2.138375e-02 4.670315e-03 4.499938e-03
-2.197158e-02 3.983501e-03 1.123316e-03
-1.057240e-02 -1.893142e-02 4.471430e-03
-1.460726e-02 -1.589541e-02 4.826625e-03
-1.544114e-02 -1.619369e-02 1.427879e-03
-2.099506e-02 -5.316260e-03 4.815913e-03
-2.178037e-02 -5.191748e-03 8.897600e-04
-2.158155e-02 -3.637768e-03 4.504491e-03
-2.187929e-02 -4.517729e-03 1.100762e-03
-1.449007e-04 -1.764493e-04 2.103281e-02
-1.863525e-02 -1.144297e-02 4.595576e-03
-1.853176e-02 -1.235045e-02 1.116484e-03
-2.170619e-02 2.063887e-03 4.354662e-03
-2.229948e-02 1.378030e-03 1.087887e-03
-1.699890e-02 -1.355724e-02 4.468400e-03
-1.684813e-02 -1.452995e-02 1.130011e-03
-2.090829e-02 6.064676e-03 4.402751e-03
-2.158843e-02 5.361445e-03 1.065978e-03
-1.235616e-02 1.777210e-02 4.849588e-03
-1.251487e-02 1.856580e-02 8.809396e-04
1.872243e-04 -2.531712e-04 2.093456e-02
-2.043365e-02 -7.716536e-03 4.651316e-03
-2.070192e-02 -8.451089e-03 1.228569e-03
-1.420603e-02 1.650941e-02 4.342484e-03
-1.509644e-02 1.642059e-02 1.078732e-03
-2.016776e-02 8.602599e-03 4.569374e-03
-2.092746e-02 8.290592e-03 7.448456e-05
-9.582979e-03 1.956510e-02 4.349274e-03
-1.046580e-02 1.970636e-02 1.083406e-03
-1.644289e-02 1.406186e-02 4.880515e-03
-1.679722e-02 1.480003e-02 8.859428e-04
-8.816604e-05 2.304054e-04 2.093944e-02
-1.741839e-03 2.183620e-02 4.503032e-03
-2.593607e-03 2.217684e-02 1.102360e-03
-1.809747e-02 1.232684e-02 4.494826e-03
-1.889506e-02 1.190426e-02 1.108357e-03
-1.724647e-02 1.342395e-02 4.601219e-03
-1.804486e-02 1.300024e-02 1.123166e-03
-1.950629e-02 9.923089e-03 4.498962e-03
-2.025531e-02 9.389952e-03 1.099001e-03
-2.959334e-03 2.160516e-02 4.354884e-03
-3.759600e-03 2.203276e-02 1.080816e-03
-8.457444e-05 -1.342145e-04 2.097579e-02
-7.545932e-03 2.020715e-02 4.808700e-03
-7.432576e-03 2.110550e-02 1.433397e-03
-4.825047e-03 2.111918e-02 4.886310e-03
-4.670907e-03 2.187215e-02 8.864771e-04
-6.244200e-03 2.067015e-02 4.832927e-03
-6.091982e-03 2.154004e-02 1.422684e-03
-2.040075e-02 6.764942e-03 4.893193e-03
-2.112585e-02 7.489199e-03 1.282730e-03
-3.499217e-04 2.186861e-02 4.611183e-03
-1.188644e-03 2.221991e-02 1.131086e-03
-1.474191e-04 -1.859086e-04 2.087562e-02
-1.896647e-02 -1.040544e-02 4.871518e-03
-1.960826e-02 -1.059665e-02 1.386697e-03
-1.745761e-02 -1.277546e-02 4.856916e-03
-1.823567e-02 -1.293622e-02 8.679281e-04
-1.884370e-02 1.113431e-02 4.473387e-03
-1.961658e-02 1.067174e-02 1.116815e-03
5.453068e-04 2.157640e-02 4.814385e-03
9.874452e-04 2.236385e-02 1.435427e-03
-2.180316e-02 6.709378e-04 4.353062e-03
-2.237195e-02 -3.189202e-05 1.075465e-03
4.239918e-04 6.885108e-05 2.097518e-02
-1.664435e-04 -3.364203e-04 2.086153e-02
-1.357370e-02 -1.679245e-02 4.828266e-03
-1.437417e-02 -1.714054e-02 1.452541e-03
-1.100500e-02 1.887158e-02 4.639623e-03
-1.179377e-02 1.900653e-02 1.215630e-03
-1.140977e-02 -1.832158e-02 4.913494e-03
-1.194962e-02 -1.883398e-02 1.359210e-03
-2.164005e-02 3.301167e-03 4.497593e-03
-2.218177e-02 2.557039e-03 1.101024e-03
-1.541462e-02 1.546450e-02 4.646110e-03
-1.619470e-02 1.540906e-02 1.225680e-03
2.180916e-05 -3.433914e-04 2.094051e-02
-8.484549e-03 2.014641e-02 4.599169e-03
-9.412807e-03 2.016841e-02 1.123062e-03
-1.314269e-02 1.732438e-02 4.471183e-03
-1.415040e-02 1.718624e-02 1.118547e-03
-2.163964e-02 -2.140638e-03 4.469168e-03
-2.202339e-02 -3.024687e-03 1.088920e-03
-2.083515e-02 -6.221509e-03 4.476838e-03
-2.104750e-02 -7.200678e-03 1.123185e-03
1.927697e-03 2.151410e-02 4.831330e-03
2.407937e-03 2.225885e-02 1.433361e-03
1.242154e-04 2.229130e-04 2.095893e-02
5.165984e-03 2.124322e-02 4.606514e-03
4.459624e-03 2.183115e-02 1.123447e-03
1.297467e-02 -1.641282e-02 6.550939e-03
1.932482e-02 -8.570940e-03 6.293252e-03
3.648682e-03 1.163058e-02 -2.054241e-02
-2.057958e-02 2.040335e-03 7.266720e-03
-2.055577e-02 1.892874e-03 7.458943e-03
-1.995161e-02 1.586305e-03 8.631950e-03
-2.061675e-02 -2.011049e-03 7.235623e-03
-2.056220e-02 -1.882548e-03 7.455713e-03
-1.766868e-04 -2.138252e-04 2.085487e-02
-1.994610e-02 -1.580097e-03 8.632028e-03
1.942603e-02 -1.672573e-03 -1.282777e-02
1.942509e-02 1.666054e-03 -1.282853e-02
-9.646395e-04 -3.180762e-03 -2.398849e-02
1.784539e-03 2.974864e-03 -2.370808e-02
-4.897362e-04 -3.676508e-03 -2.348497e-02
-1.534087e-04 -3.530860e-03 -2.352611e-02
3.578830e-03 9.900921e-04 -2.347084e-02
2.090089e-03 2.844261e-03 -2.352958e-02
2.264886e-03 2.705648e-03 -2.353094e-02
6.047342e-05 -1.624121e-04 2.098206e-02
2.960219e-03 1.715353e-03 -2.355846e-02
2.411968e-03 -2.647875e-03 -2.350153e-02
1.176398e-03 -3.325544e-03 -2.352706e-02
2.405386e-03 2.433164e-03 -2.349200e-02
3.462051e-03 -1.316521e-03 -2.352843e-02
2.640922e-03 -2.156663e-03 -2.355825e-02
3.289882e-03 1.334402e-03 -2.353759e-02
4.525725e-05 -3.518370e-03 -2.358374e-02
2.118001e-03 -3.015966e-03 -2.349900e-02
8.755478e-04 -3.308744e-03 -2.347901e-02
5.561523e-05 1.115872e-04 2.099254e-02
3.056523e-03 1.569690e-03 -2.347978e-02
1.758373e-03 -3.256459e-03 -2.350002e-02
2.814798e-03 -2.389488e-03 -2.350642e-02
1.890357e-03 2.990174e-03 -2.351574e-02
1.357338e-03 -3.245339e-03 -2.359471e-02
1.879547e-03 -3.052299e-03 -2.350728e-02
4.277959e-04 -3.649762e-03 -2.352466e-02
2.585372e-03 -2.475692e-03 -2.351382e-02
3.337238e-03 1.589433e-03 -2.349829e-02
8.418870e-04 -3.512551e-03 -2.345064e-02
-3.224314e-04 -1.424058e-04 2.091184e-02
3.698579e-03 -2.218362e-04 -2.349511e-02
2.935664e-03 2.250997e-03 -2.347513e-02
3.483542e-03 -6.631333e-04 -2.350295e-02
2.537929e-03 2.480043e-03 -2.351506e-02
3.405058e-03 -1.549801e-03 -2.348420e-02
6.322089e-04 -3.650508e-03 -2.349149e-02
3.287614e-03 -1.757519e-03 -2.348442e-02
3.610895e-03 2.553363e-04 -2.345505e-02
2.028486e-03 -2.766082e-03 -2.351122e-02
3.422760e-03 2.836338e-04 -2.351565e-02
-1.236982e-04 -3.692067e-04 2.103901e-02
3.106162e-03 -1.954137e-03 -2.352582e-02
2.712083e-03 2.100091e-03 -2.351997e-02
3.447898e-03 -1.369227e-03 -2.347865e-02
3.441851e-03 6.741185e-04 -2.351368e-02
3.509060e-03 -9.682040e-04 -2.365364e-02
3.284548e-03 9.239331e-04 -2.349974e-02
3.714057e-03 -4.012512e-04 -2.348578e-02
3.615229e-03 -1.606889e-05 -2.347409e-02
-4.285997e-04 -3.396378e-03 -2.348732e-02
-8.933637e-04 -3.305145e-03 -2.361971e-02
1.373278e-04 -4.385303e-04 2.087722e-02
3.097374e-03 -1.244595e-03 -2.370138e-02
8.042684e-03 2.549017e-03 -2.235660e-02
8.041311e-03 -2.543635e-03 -2.232840e-02
1.453953e-02 1.556244e-02 5.449827e-03
1.496302e-02 1.523342e-02 5.393214e-03
-3.001458e-03 2.094830e-02 5.876153e-03
-3.331417e-03 2.088958e-02 5.691425e-03
-3.669740e-03 -1.855903e-02 1.015859e-02
-3.494563e-03 6.590876e-03 -2.292967e-02
-2.034716e-02 9.463422e-03 -5.884898e-04
2.242914e-04 -5.132190e-05 2.069802e-02
-3.042432e-03 -5.682166e-03 -2.310900e-02
1.052229e-02 -1.632628e-02 9.696372e-03
-4.710596e-03 -9.853973e-03 -2.094129e-02
1.047897e-02 1.672173e-02 8.788274e-03
-1.513349e-02 -1.328140e-02 -1.081191e-02
-1.004996e-02 1.694848e-02 8.656272e-03
-5.094235e-03 -2.008990e-02 -1.073679e-02
1.135345e-03 -1.758281e-04 -2.373113e-02
1.205212e-03 -2.095273e-02 -9.418325e-03
1.185206e-02 1.655791e-02 7.985278e-03
8.016550e-05 1.825631e-04 2.093240e-02
8.467990e-05 1.515660e-04 2.098433e-02
-1.200905e-02 1.073076e-02 -1.721886e-02
2.867266e-03 -1.559616e-03 -2.379864e-02
8.804782e-03 1.904569e-02 6.443883e-03
-8.303172e-03 -1.232176e-02 -1.813978e-02
4.212666e-04 -1.723839e-03 -2.403453e-02
-1.203875e-03 -1.177518e-03 -2.394442e-02
1.772167e-02 9.317258e-03 8.852736e-03
-4.816185e-03 -1.445743e-02 -1.806726e-02
9.318195e-03 1.744370e-02 8.772474e-03
9.315768e-03 -1.745812e-02 8.801164e-03
-1.582219e-04 5.134483e-05 2.091825e-02
3.879978e-03 -1.395888e-02 -1.865540e-02
-1.980198e-02 -4.528897e-03 7.863535e-03
-1.965358e-02 4.575548e-03 8.025406e-03
-6.576504e-03 3.528566e-03 -2.253137e-02
-7.003448e-03 -3.436612e-03 -2.227979e-02
-2.896763e-03 9.464801e-03 -2.171913e-02
-2.391705e-03 -4.726204e-04 -2.399609e-02
-2.392354e-03 4.985862e-04 -2.397059e-02
-1.976139e-03 2.032649e-02 7.692403e-03
-1.314879e-03 1.023649e-02 -2.163877e-02
-3.042329e-04 -2.166950e-04 2.087381e-02
6.945643e-03 7.507175e-03 -2.155541e-02
-1.645999e-03 1.529291e-02 -1.767073e-02
-9.913870e-03 1.861335e-02 6.407669e-03
-3.440720e-03 -2.168764e-02 3.419871e-03
7.903476e-03 -4.614859e-03 -2.196011e-02
8.070983e-03 4.759593e-03 -2.184025e-02
2.701444e-03 4.649458e-03 -2.339221e-02
1.704685e-03 -3.149262e-03 -2.381519e-02
-6.801285e-04 6.989099e-04 -2.413855e-02
3.651498e-03 7.258748e-03 -2.250225e-02
-8.977976e-05 -3.954076e-04 2.102260e-02
6.459051e-04 3.484029e-03 -2.360295e-02
-7.089919e-03 3.375632e-04 -2.275403e-02
-6.983490e-03 -2.923311e-04 -2.278727e-02
1.849361e-02 -9.318944e-03 7.147556e-03
2.690227e-03 -2.100195e-03 -2.366897e-02
2.836312e-03 2.138312e-03 -2.350118e-02
-1.427444e-02 1.573676e-02 -8.443046e-03
5.931633e-03 1.160288e-02 -1.984091e-02
-2.403763e-03 5.706023e-03 -2.327068e-02
-5.164735e-03 1.152146e-02 -2.007062e-02
1.734937e-04 -4.332251e-04 2.086934e-02
-5.021323e-03 -1.146738e-02 -2.007524e-02