# vtk DataFile Version 2.0
Electric current density generated by TTH
ASCII
DATASET UNSTRUCTURED_GRID
POINTS 1764 double
2.096231e-05 -5.134286e-21 -4.424729e-22
1.906799e-05 8.708059e-06 -4.424729e-22
-3.850714e-21 -2.096231e-05 -4.424729e-22
9.079241e-06 1.869041e-05 -7.930511e-07
1.947208e-05 -7.191949e-06 -8.349273e-07
1.114617e-05 1.647765e-05 1.649053e-06
1.697093e-05 7.716865e-06 1.732239e-06
-1.701731e-05 9.337923e-06 1.788419e-06
-1.431862e-05 -1.496252e-05 -9.210173e-07
1.067455e-05 1.660321e-05 -1.709933e-06
1.808710e-05 -4.224737e-06 -1.710273e-06
3.137659e-09 -1.974295e-05 1.708446e-06
-2.052268e-05 -2.804502e-06 9.150477e-07
9.974269e-07 -2.093857e-05 -4.424729e-22
2.006855e-05 5.384932e-06 -7.940309e-07
-1.717553e-05 3.319887e-06 -7.072448e-07
-2.031264e-05 -4.058037e-06 9.140074e-07
1.728369e-05 -1.975677e-06 -4.093689e-07
-1.934621e-05 -1.733102e-06 -1.786558e-06
7.420210e-06 1.623930e-05 -1.252833e-06
7.605504e-06 1.677604e-05 1.649700e-06
-1.362322e-05 -1.087266e-05 -5.342768e-07
-1.377311e-05 -1.189649e-05 1.532732e-06
1.221856e-05 1.324261e-05 1.403481e-06
1.992594e-06 -2.086739e-05 -4.424729e-22
-8.252615e-06 1.786931e-05 -1.727908e-06
-1.057014e-05 1.660197e-05 -1.728408e-06
-1.774842e-05 -7.329028e-06 -1.805938e-06
6.898043e-06 -1.599335e-05 4.919764e-07
1.461717e-05 -1.473135e-05 -8.446368e-07
1.786230e-05 -8.457589e-07 -1.281340e-06
3.943537e-06 2.033926e-05 -9.071467e-07
-8.439269e-06 1.608126e-05 1.508083e-06
1.557837e-05 7.916067e-06 -6.603469e-07
-2.069274e-05 -1.201223e-06 8.905199e-07
2.983248e-06 -2.074895e-05 -4.424729e-22
1.371329e-05 -1.144807e-05 -1.262599e-06
-1.728488e-05 -1.152485e-05 -8.015947e-07
-1.236882e-05 -1.269934e-05 1.106036e-06
8.465546e-06 1.632568e-05 1.636215e-06
1.490856e-05 -1.297920e-05 1.700078e-06
1.740459e-05 2.739036e-06 -9.493374e-07
9.888719e-06 -1.828383e-05 -7.770355e-07
1.867246e-05 -7.671411e-07 1.744977e-06
-8.829506e-06 -1.576079e-05 -1.440442e-06
-1.746677e-05 1.003153e-05 1.513265e-06
3.967144e-06 -2.058350e-05 -4.424729e-22
-6.010814e-06 1.863765e-05 1.755302e-06
1.401085e-05 -1.311718e-05 -1.806153e-06
2.542557e-07 -1.938794e-05 -1.791335e-06
8.179609e-06 1.910120e-05 7.931689e-07
-1.429021e-05 1.104501e-05 -1.437072e-06
-5.046644e-07 1.757225e-05 -8.825401e-07
-4.189715e-07 -2.076071e-05 -8.210724e-07
-1.272480e-05 1.325665e-05 -1.629337e-06
-1.436332e-05 -1.003324e-05 7.679284e-07
1.241435e-05 1.666808e-05 -7.842872e-07
4.942052e-06 -2.037142e-05 -4.424729e-22
-1.025627e-05 -1.687617e-05 -1.706592e-06
1.969220e-05 2.237946e-06 1.680403e-06
5.901654e-06 -1.906897e-05 1.616983e-06
-1.921550e-05 4.101333e-06 1.738094e-06
1.098082e-05 1.461155e-05 1.578800e-06
-2.070720e-05 1.580012e-06 8.162413e-07
-4.259645e-06 1.925574e-05 1.715748e-06
1.753003e-05 4.597766e-06 1.482170e-06
1.799250e-05 6.380629e-06 1.805348e-06
7.638332e-06 1.784490e-05 1.788422e-06
5.905766e-06 -2.011319e-05 -4.424729e-22
-1.741942e-05 -1.602287e-06 7.061016e-07
4.412274e-06 1.912368e-05 -1.744240e-06
1.597190e-05 1.149150e-05 -1.729924e-06
-2.077740e-05 -4.713182e-07 -7.852002e-07
-2.008005e-05 5.376198e-06 7.756950e-07
-1.159106e-05 -1.298327e-05 4.435397e-07
-1.828349e-05 -6.933752e-07 1.589162e-06
1.483976e-05 -1.149450e-05 -1.765030e-06
2.043749e-05 -3.606980e-06 -8.434190e-07
-2.467532e-06 2.063764e-05 -7.812755e-07
6.856101e-06 -1.980940e-05 -4.424729e-22
2.912776e-06 -1.958105e-05 1.689089e-06
4.679970e-06 -1.925662e-05 1.681114e-06
1.824278e-05 -9.961311e-06 7.799841e-07
7.108237e-06 1.952732e-05 -7.891370e-07
6.067676e-06 1.860189e-05 -1.759229e-06
-1.666302e-05 1.242586e-05 7.784052e-07
-1.666097e-05 -1.098154e-05 1.620373e-06
-1.550405e-05 -1.233533e-05 1.682930e-06
-1.112774e-05 -1.643803e-05 1.667684e-06
-1.684722e-05 1.032088e-05 -1.703462e-06
7.790904e-06 -1.946074e-05 -4.424729e-22
5.223274e-06 1.679690e-05 9.015643e-07
2.062467e-05 -2.146359e-06 -8.753808e-07
9.302985e-06 1.467843e-05 -3.221355e-07
4.546174e-06 1.693927e-05 -8.054023e-07
-1.915358e-05 -3.163162e-06 1.788124e-06
-5.374079e-06 1.660743e-05 6.098628e-07
1.725083e-05 2.017250e-06 -2.621920e-07
-8.162535e-06 -1.912018e-05 -7.707918e-07
9.566182e-06 1.750009e-05 -1.625483e-06
-1.277585e-05 1.255374e-05 1.309623e-06
8.708059e-06 -1.906799e-05 -4.424729e-22
2.331718e-06 1.941145e-05 -1.762772e-06
1.974287e-05 -6.514703e-06 -7.700799e-07
3.549375e-06 1.951749e-05 1.672926e-06
6.459392e-06 -1.727037e-05 1.658162e-06
1.755756e-05 -2.223011e-06 1.066612e-06
-8.164354e-06 1.615084e-05 -1.463840e-06
-3.496994e-06 1.699358e-05 3.873248e-08
1.082222e-05 -1.531678e-05 -1.761359e-06
1.082198e-05 -1.775457e-05 7.640395e-07
-7.489923e-06 1.772170e-05 1.804593e-06
1.863205e-05 9.605487e-06 -4.424729e-22
9.605487e-06 -1.863205e-05 -4.424729e-22
1.825066e-05 9.965617e-06 7.609318e-07
5.110298e-06 1.896979e-05 1.738728e-06
1.730854e-05 -8.977412e-06 -1.773785e-06
1.678268e-05 1.028273e-05 1.728102e-06
1.597181e-05 1.328895e-05 7.964469e-07
-7.352857e-06 1.660777e-05 -1.509068e-06
2.418438e-06 1.719583e-05 -2.384966e-07
1.737823e-05 -3.508472e-06 -1.107902e-06
-3.976022e-06 1.868659e-05 -1.805816e-06
8.520879e-06 1.557078e-05 1.134341e-06
1.048116e-05 -1.815389e-05 -4.424729e-22
1.202350e-06 1.975600e-05 -1.690584e-06
1.772317e-05 -9.024152e-06 1.651336e-06
1.478463e-05 1.106628e-05 1.670271e-06
3.990817e-06 1.688714e-05 -1.049572e-07
-6.288175e-06 -1.858555e-05 1.745738e-06
4.977533e-06 -1.709248e-05 -1.196736e-06
-1.454738e-05 1.178044e-05 1.752964e-06
-1.252244e-05 -1.524217e-05 1.714007e-06
-2.044516e-06 -1.794289e-05 -1.435487e-06
3.797356e-06 1.778797e-05 1.525936e-06
1.133308e-05 -1.763462e-05 -4.424729e-22
1.205078e-05 -1.401201e-05 -1.675894e-06
5.384321e-06 2.009456e-05 -7.408421e-07
2.073219e-05 8.841656e-07 -8.477652e-07
9.393315e-06 1.772333e-05 1.564711e-06
1.881733e-05 5.976219e-06 -1.708248e-06
-1.900033e-05 1.293041e-06 1.803088e-06
1.587842e-05 -7.057875e-06 3.117827e-07
-1.324301e-05 1.603911e-05 7.489025e-07
1.068489e-05 -1.377159e-05 5.358054e-07
1.739614e-05 -7.144325e-07 4.675651e-07
1.215933e-05 -1.707539e-05 -4.424729e-22
-1.775143e-05 5.154107e-07 -1.145566e-06
-1.717324e-05 -7.133181e-06 1.717539e-06
9.321236e-06 1.510783e-05 1.137032e-06
-1.193416e-07 1.821503e-05 1.542491e-06
-1.817251e-05 1.004424e-05 -8.236967e-07
1.801006e-05 2.245043e-06 1.500283e-06
1.675301e-05 -4.929685e-06 -6.315992e-07
1.612522e-05 -9.139283e-06 -1.696553e-06
1.881638e-05 -8.722432e-06 -8.686821e-07
6.773000e-06 1.643535e-05 1.166360e-06
1.295804e-05 -1.647749e-05 -4.424729e-22
5.873288e-06 1.635906e-05 -3.395195e-07
-1.551951e-05 9.301331e-06 -1.461108e-06
-4.997104e-06 -1.671492e-05 5.829993e-07
1.365679e-05 -1.444857e-05 1.654409e-06
-1.662750e-05 7.154052e-06 1.466787e-06
1.144589e-05 1.304974e-05 1.787575e-07
1.130886e-05 -1.373609e-05 -1.185263e-06
-4.005012e-06 1.759454e-05 1.424379e-06
-2.050221e-05 3.211997e-06 -8.454113e-07
7.984828e-06 -1.616336e-05 -1.411331e-06
1.372739e-05 -1.584226e-05 -4.424729e-22
1.704390e-05 -4.655622e-06 1.025186e-06
9.382664e-06 -1.739125e-05 1.702201e-06
-1.784835e-05 4.514585e-06 1.645620e-06
2.420490e-06 -2.063031e-05 -8.074507e-07
-8.569489e-06 -1.888983e-05 8.631730e-07
-2.004652e-05 -5.482055e-06 7.855370e-07
1.279594e-05 1.261820e-05 1.363722e-06
-1.767864e-05 -4.338178e-06 -1.534939e-06
-1.103558e-05 -1.433920e-05 -1.461649e-06
1.681751e-05 -1.024792e-05 1.724535e-06
1.446565e-05 -1.517114e-05 -4.424729e-22
-1.231896e-05 -1.367384e-05 -1.642971e-06
1.979980e-05 2.141067e-06 -1.639146e-06
1.912438e-05 -8.189537e-06 7.393288e-07
-1.772490e-05 -8.561333e-06 1.727515e-06
-1.188225e-05 1.309392e-05 1.044184e-06
5.008060e-06 2.012983e-05 8.619012e-07
1.348127e-05 1.279613e-05 -1.714738e-06
-1.012311e-05 1.506607e-05 1.501417e-06
1.532594e-05 -1.066098e-05 -1.739786e-06
-1.737403e-05 1.138443e-05 -8.077449e-07
1.517114e-05 -1.446565e-05 -4.424729e-22
1.768271e-05 -8.234778e-06 -1.772230e-06
-9.843130e-06 1.527003e-05 -1.512291e-06
-1.280638e-05 -1.631091e-05 -8.725312e-07
-2.772204e-06 -1.958523e-05 -1.695095e-06
1.268322e-05 1.194188e-05 5.022481e-07
-1.648738e-05 -9.358773e-06 -1.795715e-06
-3.669211e-06 1.760204e-05 -1.371883e-06
1.162068e-05 -1.386373e-05 1.458554e-06
-1.876132e-05 1.400344e-06 -1.773812e-06
-1.874884e-05 3.110321e-06 -1.800237e-06
1.584226e-05 -1.372739e-05 -4.424729e-22
1.921647e-05 -4.264138e-06 -1.727617e-06
-1.722390e-06 1.732589e-05 -4.693748e-07
1.516937e-05 1.290425e-05 -1.638991e-06
-3.819505e-07 2.004247e-05 -1.571900e-06
-9.972335e-06 1.826297e-05 7.299911e-07
-1.564905e-05 -1.362701e-05 -8.485521e-07
1.207075e-06 1.737631e-05 4.943034e-07
-1.024631e-05 -1.695465e-05 1.683803e-06
-2.429922e-07 -1.744635e-05 5.892214e-07
1.933400e-05 -4.896537e-06 1.625306e-06
1.647749e-05 -1.295804e-05 -4.424729e-22
-4.588377e-07 -1.801041e-05 -1.401796e-06
-5.780938e-06 -1.729719e-05 1.555832e-06
-8.497948e-07 1.969858e-05 1.717179e-06
-1.989959e-05 -1.228307e-06 1.628661e-06
-2.079158e-05 2.730289e-07 -7.627906e-07
1.471733e-05 -9.931312e-06 -1.140455e-06
1.250957e-05 1.410415e-05 1.780892e-06
1.471473e-05 1.471473e-05 7.265545e-07
-1.143079e-05 -1.734550e-05 -8.045180e-07
1.554651e-05 8.499745e-06 1.094231e-06
1.815389e-05 1.048116e-05 -4.424729e-22
1.707539e-05 -1.215933e-05 -4.424729e-22
-1.329209e-05 -1.264083e-05 -1.613429e-06
4.427722e-07 -1.852071e-05 -1.693205e-06
-4.801715e-06 1.681987e-05 -7.034630e-07
1.405694e-05 -1.275638e-05 1.798172e-06
1.730866e-06 -1.984038e-05 1.638908e-06
4.312597e-07 2.079993e-05 -7.386520e-07
-3.576608e-06 -1.790880e-05 -1.570200e-06
1.837550e-05 -6.720472e-06 -1.759367e-06
1.866373e-05 -5.870542e-06 -1.759522e-06
-9.081662e-06 1.504665e-05 -8.743462e-07
1.763462e-05 -1.133308e-05 -4.424729e-22
4.166080e-07 -1.885128e-05 1.781466e-06
-1.741764e-06 1.986639e-05 -1.626184e-06
1.746960e-05 8.167281e-07 6.959482e-07
6.129927e-06 -1.655276e-05 1.000108e-06
-1.480124e-05 -1.330772e-05 -1.644268e-06
1.244813e-05 -1.532200e-05 1.709007e-06
-6.553877e-06 1.877412e-05 -1.652728e-06
1.840136e-05 -9.593165e-06 -8.462488e-07
[...]
POINT_DATA 1764
VECTORS 10.000GHz_fone_imag double
-4.835559e-04 -1.910794e-04 2.028770e-02
1.088197e-03 2.784438e-04 2.029313e-02
-1.280139e-04 1.935500e-04 2.058088e-02
4.051479e-03 6.859926e-03 1.632712e-02
9.082877e-03 -4.557031e-03 1.763912e-02
-1.061505e-02 -1.767367e-02 8.926760e-03
-2.741736e-02 -1.308329e-02 -9.429247e-03
2.324853e-02 -1.242074e-02 2.337293e-03
-8.446775e-03 -8.185586e-03 1.785015e-02
1.184867e-02 1.861065e-02 7.463537e-03
2.510575e-02 -6.045011e-03 -1.103241e-02
-9.886359e-05 2.170794e-02 8.418841e-03
1.124418e-02 1.288944e-03 1.816763e-02
-3.974261e-04 -3.340177e-04 2.065313e-02
1.023102e-02 3.401292e-03 1.916673e-02
-1.258291e-02 2.283470e-03 -3.325317e-02
1.128679e-02 3.286686e-03 1.777994e-02
7.735800e-03 -1.273363e-03 -3.796034e-02
-2.632959e-02 -3.442792e-03 2.519179e-03
7.305418e-03 2.016416e-02 -2.308724e-02
-1.231029e-02 -2.410993e-02 -1.086280e-02
-9.185568e-03 -6.863378e-03 -3.707542e-02
2.110593e-02 1.945385e-02 -1.816914e-02
-1.603425e-02 -1.748092e-02 -2.250113e-02
3.512881e-04 -3.486450e-04 2.022049e-02
-1.070456e-02 2.211949e-02 5.440933e-03
-1.331585e-02 2.080530e-02 6.098106e-03
-2.548543e-02 -9.583711e-03 -1.584228e-04
-2.661693e-03 1.013611e-02 -3.328570e-02
7.462955e-03 -7.088408e-03 1.692744e-02
2.528063e-02 -9.051434e-04 -2.561367e-02
1.627306e-03 1.020517e-02 1.637827e-02
1.252485e-02 -2.511870e-02 -1.921258e-02
1.181880e-02 6.105339e-03 -3.505179e-02
1.124835e-02 1.466416e-03 1.707449e-02
4.693218e-04 2.126145e-04 2.051448e-02
1.660399e-02 -1.354100e-02 -2.318697e-02
-7.625239e-03 -5.341516e-03 1.940900e-02
1.534073e-02 1.540956e-02 -2.961348e-02
-1.129527e-02 -2.541115e-02 -1.321468e-02
-1.894412e-02 1.471386e-02 7.242715e-03
1.798201e-02 3.542581e-03 -2.747427e-02
4.525964e-03 -8.245244e-03 1.911816e-02
-2.961646e-02 1.196219e-03 -9.184232e-03
-1.404058e-02 -2.364228e-02 -1.909865e-02
1.661726e-02 -9.280488e-03 9.563640e-03
-1.070204e-04 7.614229e-04 2.053767e-02
8.370243e-03 -2.357293e-02 4.699674e-03
2.014479e-02 -1.927567e-02 -4.969938e-04
6.580957e-04 -2.638109e-02 3.026327e-03
-3.972974e-03 -8.682135e-03 1.832213e-02
-2.077161e-02 1.628312e-02 -1.822573e-02
-2.395123e-03 1.921053e-02 -3.050340e-02
-1.563688e-03 -1.029937e-02 1.776108e-02
-2.013947e-02 2.099010e-02 -1.436569e-02
1.452924e-02 8.095168e-03 -3.230434e-02
7.109076e-03 7.615182e-03 1.655324e-02
-1.373546e-03 -1.170425e-04 1.994678e-02
-1.204060e-02 -2.136449e-02 6.355824e-03
-2.273598e-02 -3.377153e-03 7.199992e-03
-6.641411e-03 1.985847e-02 9.512754e-03
2.292992e-02 -4.993296e-03 5.323517e-03
-1.738777e-02 -2.297551e-02 -1.689955e-02
1.040546e-02 -9.779266e-04 1.828972e-02
5.435056e-03 -2.366472e-02 7.263308e-03
-2.659751e-02 -6.668825e-03 -2.084517e-02
-2.774432e-02 -9.253269e-03 -2.360990e-03
-9.308850e-03 -2.461284e-02 1.401954e-03
9.442419e-04 -2.507981e-04 2.060492e-02
1.030541e-02 1.726048e-03 -3.520902e-02
6.206469e-03 2.472034e-02 6.171007e-03
1.853638e-02 1.265380e-02 5.926086e-03
-1.005168e-02 3.515339e-04 1.867348e-02
8.155616e-03 -2.397808e-03 1.648358e-02
5.031187e-03 5.960816e-03 -3.680059e-02
2.879057e-02 1.133281e-03 -1.673354e-02
2.290621e-02 -1.835129e-02 -8.399199e-03
9.261064e-03 -1.763787e-03 1.836331e-02
-7.852276e-04 9.446016e-03 1.831986e-02
-3.361158e-04 8.614008e-04 2.060269e-02
-3.490632e-03 2.331725e-02 8.873879e-03
-4.831561e-03 2.052406e-02 8.758687e-03
-8.231084e-03 3.366978e-03 1.844816e-02
2.618564e-03 7.238693e-03 1.664160e-02
8.032357e-03 2.534773e-02 5.110185e-03
7.892882e-03 -5.665194e-03 1.720328e-02
1.883454e-02 1.254053e-02 1.042933e-02
1.823792e-02 1.471131e-02 8.380074e-03
1.331900e-02 1.956094e-02 8.095316e-03
-1.996676e-02 1.273821e-02 5.489551e-03
-1.085688e-03 -6.051124e-04 2.041437e-02
-4.995824e-03 -1.269634e-02 -3.199230e-02
1.061472e-02 -1.226674e-03 1.856312e-02
3.443087e-03 6.282668e-03 -3.837117e-02
4.112166e-03 1.227071e-02 -3.182284e-02
2.466873e-02 4.170676e-03 1.591717e-03
2.344860e-03 -1.068161e-02 -3.587237e-02
4.590608e-03 2.286062e-03 -3.829534e-02
-2.756838e-03 -9.055824e-03 1.808963e-02
9.592014e-03 1.728320e-02 1.058503e-02
1.758700e-02 -1.768273e-02 -2.614659e-02
6.625034e-04 -8.119380e-05 2.054178e-02
2.547193e-03 2.329362e-02 5.748742e-03
9.029310e-03 -2.791659e-03 1.772598e-02
-3.995466e-03 -2.228980e-02 9.374050e-03
-9.772402e-03 2.651350e-02 -1.512315e-02
-1.853181e-02 2.719001e-03 -2.889319e-02
-1.259939e-02 2.433852e-02 -2.043954e-02
8.422724e-04 -3.309007e-04 -3.947221e-02
1.523486e-02 -2.287824e-02 -9.211338e-03
-5.444419e-03 7.325728e-03 1.759676e-02
1.088851e-02 -2.540077e-02 2.151380e-04
1.700945e-04 7.161453e-04 1.927519e-02
-7.741700e-05 1.045659e-03 1.893642e-02
-9.227573e-03 -3.479032e-03 1.867302e-02
-4.963926e-03 -2.230588e-02 6.320392e-03
2.362514e-02 -1.230434e-02 4.073762e-03
-1.873115e-02 -1.094395e-02 7.862190e-03
-7.789327e-03 -5.916508e-03 1.847021e-02
-1.018046e-02 2.571542e-02 -1.813886e-02
4.717664e-05 4.527178e-03 -3.587778e-02
2.120609e-02 -5.598867e-03 -2.663959e-02
-4.646052e-03 2.687485e-02 -2.368870e-03
-9.585901e-03 -1.932553e-02 -2.513503e-02
-3.890349e-04 6.117072e-04 2.006665e-02
8.257564e-04 2.028069e-02 7.483271e-03
-2.044662e-02 9.899389e-03 9.442810e-03
-2.155173e-02 -1.587669e-02 -1.146718e-02
2.472917e-03 2.780799e-03 -3.576598e-02
9.256929e-03 2.347999e-02 4.998650e-03
5.757480e-03 -2.082130e-02 -2.398886e-02
2.328125e-02 -1.936012e-02 -9.984623e-03
1.600340e-02 1.744027e-02 6.249564e-03
-2.567094e-03 -2.608311e-02 -2.022991e-02
-6.566448e-03 -2.709906e-02 -1.933672e-02
-4.332790e-04 -1.385836e-03 1.985702e-02
1.907449e-02 -2.204659e-02 -1.251794e-02
2.226078e-03 8.919830e-03 1.781114e-02
1.026504e-02 4.583351e-04 1.832679e-02
-1.128590e-02 -1.828123e-02 1.019156e-02
2.100742e-02 6.925283e-03 6.951534e-03
2.824334e-02 -1.791231e-03 -2.275464e-03
-6.532098e-03 2.986965e-03 -3.758371e-02
4.585361e-03 -6.470206e-03 1.812228e-02
-6.540987e-03 9.851743e-03 -3.414110e-02
-1.049642e-02 5.906463e-04 -3.274921e-02
7.447103e-04 -3.507702e-05 2.028544e-02
-2.343525e-02 2.505976e-03 -2.712554e-02
2.516288e-02 1.039485e-02 -1.015557e-02
-8.792174e-03 -1.631944e-02 -2.620150e-02
6.467473e-04 -2.675943e-02 -1.906032e-02
-9.368004e-03 5.178907e-03 1.825875e-02
-2.540454e-02 -3.511297e-03 -1.993773e-02
1.398381e-02 -4.845062e-03 -3.240564e-02
2.533491e-02 -1.501276e-02 -1.253386e-02
9.134972e-03 -5.078823e-03 1.800174e-02
-9.527377e-03 -1.979765e-02 -2.525435e-02
-3.877612e-04 -3.136912e-04 1.922604e-02
1.297973e-03 6.524691e-03 -3.861220e-02
-2.243887e-02 1.408379e-02 -2.002014e-02
4.405999e-03 9.171335e-03 -3.538086e-02
-1.367896e-02 1.605635e-02 9.434466e-03
2.273367e-02 -8.991508e-03 -1.959064e-02
-2.678303e-03 -3.236344e-03 -3.760881e-02
1.304128e-02 -1.830485e-02 -2.879282e-02
5.673385e-03 -2.408340e-02 -1.869936e-02
-9.538419e-03 1.081441e-03 1.631536e-02
9.987179e-03 -2.322001e-02 -2.154031e-02
1.804707e-04 -8.864979e-06 2.041056e-02
-2.028317e-02 5.143043e-03 -3.030497e-02
-1.131579e-02 2.137356e-02 6.987692e-03
2.474204e-02 -5.250427e-03 -1.738476e-02
6.884678e-04 -8.849168e-03 1.733862e-02
4.391566e-03 1.015730e-02 1.814668e-02
5.761383e-03 1.189472e-03 1.769081e-02
-1.811226e-02 -1.785085e-02 -2.495045e-02
-2.728176e-02 -6.848727e-03 -1.792571e-02
-1.562433e-02 -2.147758e-02 -2.241134e-02
-1.823661e-02 1.158870e-02 5.904277e-03
-7.384095e-04 -2.642752e-04 2.011607e-02
-2.094543e-02 -2.180088e-02 -1.512172e-02
2.208404e-02 3.367567e-03 8.910268e-03
-7.229040e-03 3.205893e-03 1.816760e-02
2.003405e-02 9.723261e-03 6.646841e-03
1.245337e-02 -1.533921e-02 -2.988846e-02
-3.106838e-03 -1.004715e-02 1.774614e-02
2.069896e-02 2.018247e-02 -1.235840e-02
1.510691e-02 -2.173851e-02 -1.824717e-02
2.340969e-02 -1.550927e-02 -1.117259e-02
-7.714746e-03 5.695416e-03 1.691479e-02
6.346046e-04 -4.830138e-04 2.002573e-02
2.338431e-02 -1.084512e-02 4.088589e-03
-1.336596e-02 2.291948e-02 -1.625091e-02
-5.886024e-03 -8.016590e-03 1.598479e-02
-2.870218e-03 -2.206481e-02 5.977640e-03
-9.019175e-03 -5.159384e-03 -3.410055e-02
-2.553336e-02 -1.406185e-02 -4.568122e-03
-6.700868e-03 2.428327e-02 -2.168116e-02
-1.586979e-02 1.899122e-02 -2.254875e-02
-2.873590e-02 2.321407e-03 -7.201176e-03
-2.857419e-02 4.553758e-03 -3.576750e-03
9.044026e-04 -1.125283e-04 1.869460e-02
2.542874e-02 -5.359947e-03 5.854316e-03
-1.002516e-03 1.092554e-02 -3.367165e-02
1.684070e-02 1.534567e-02 9.621693e-03
2.952022e-04 1.994035e-02 9.414669e-03
4.754053e-03 -7.279860e-03 1.842900e-02
-6.666106e-03 -5.690133e-03 1.650885e-02
-4.949700e-05 -6.938663e-03 -3.565123e-02
1.178400e-02 2.093838e-02 7.193078e-03
7.932756e-04 1.107500e-02 -3.314729e-02
-2.176677e-02 6.148772e-03 8.297902e-03
2.431563e-04 3.034142e-04 2.038433e-02
-2.038293e-03 -2.515977e-02 -2.291170e-02
8.171544e-03 2.511262e-02 -1.678131e-02
4.431730e-04 -2.505345e-02 7.795638e-03
1.881854e-02 5.244570e-04 1.063862e-02
-8.782321e-03 3.741323e-04 1.865722e-02
1.642231e-02 -1.297611e-02 -2.849860e-02
-2.028659e-02 -2.223432e-02 -6.799411e-03
-6.431474e-03 -6.305820e-03 1.920434e-02
-5.197689e-03 -7.581111e-03 1.899204e-02
-1.633584e-02 -8.727168e-03 -2.916292e-02
2.873441e-04 2.659572e-04 2.052385e-02
-8.588001e-04 6.433751e-05 2.029580e-02
-2.080933e-02 -1.942108e-02 -1.494052e-02
3.140960e-04 -2.944842e-02 -1.292830e-02
-3.753779e-03 1.406356e-02 -3.540041e-02
-2.021681e-02 1.721801e-02 -5.116597e-03
-2.229751e-03 2.106358e-02 8.134193e-03
2.063863e-05 9.725351e-03 1.878259e-02
-4.228986e-03 -2.705889e-02 -1.818476e-02
2.286034e-02 -8.763075e-03 6.533885e-03
2.533912e-02 -8.522856e-03 5.858865e-03
-9.809488e-03 1.608736e-02 -3.339988e-02
1.063661e-04 -2.477391e-04 2.051094e-02
-4.450062e-04 3.013040e-02 -5.977839e-03
-2.427198e-03 2.053100e-02 8.995780e-03
-1.387900e-02 1.956204e-04 -3.419022e-02
-5.587593e-03 1.783755e-02 -2.605591e-02
-1.697147e-02 -1.541670e-02 9.962590e-03
-1.479081e-02 1.795132e-02 7.754752e-03
-6.912702e-03 2.173553e-02 8.748085e-03
7.216455e-03 -2.782068e-03 1.789324e-02
1.721948e-02 1.006104e-02 1.076926e-02
1.864402e-02 -7.212430e-04 -3.088926e-02
9.122911e-04 -2.540644e-04 1.987923e-02
7.490501e-03 5.999138e-03 1.705924e-02
-2.488168e-02 -6.153575e-03 -2.293569e-02
1.635749e-02 -1.772842e-02 -2.257527e-02
8.791158e-03 -4.889912e-03 1.790953e-02
-3.378866e-03 2.778651e-02 -1.826192e-02
-5.462561e-03 -5.836152e-03 -3.317906e-02
-1.009182e-02 -2.671259e-02 -1.463026e-02
-2.898548e-02 -2.463782e-03 -1.422513e-02
9.886506e-03 2.407667e-02 -2.831216e-03
1.320434e-03 -8.251667e-03 1.785394e-02
6.560309e-04 1.223941e-04 1.815384e-02
1.027784e-02 -2.455131e-02 -1.502867e-02
-2.486584e-02 6.585882e-03 -1.974511e-02
1.681224e-02 -2.173894e-02 -1.913703e-02
-1.696920e-02 -2.361987e-02 -1.549082e-02
-1.268519e-02 1.986822e-02 -2.433521e-02
-2.713126e-02 -1.379584e-02 -7.697305e-03
-2.066908e-02 -1.199673e-03 1.032910e-02
-5.064942e-03 7.430599e-03 1.812203e-02
8.550794e-04 -2.182148e-02 1.028084e-02
1.359163e-03 -8.035975e-04 -3.760238e-02
-1.660806e-03 9.897280e-04 1.791995e-02
4.892435e-03 -2.261368e-02 -2.513289e-02
-1.088008e-03 -1.024157e-02 -3.715617e-02
-4.807697e-03 -8.237954e-03 1.610675e-02
1.615646e-02 -1.800301e-02 4.439076e-03
1.383849e-02 1.022731e-02 -2.954806e-02
-3.047027e-02 -5.196480e-03 -1.322673e-02
-8.322271e-03 6.269761e-03 1.840926e-02
-9.876119e-03 1.896599e-03 1.867511e-02
1.505464e-02 -1.888692e-02 -2.605128e-02
2.008262e-02 3.338478e-03 9.659725e-03
-9.074415e-04 1.781588e-05 1.836071e-02
2.678992e-02 -1.060227e-02 -3.879234e-03
1.362820e-03 -8.689359e-03 1.657023e-02
7.523965e-03 -5.915988e-03 1.819027e-02
-2.391515e-02 1.258943e-02 -2.596960e-03
2.575898e-03 -2.124160e-02 -2.610240e-02
-1.057025e-02 -1.287081e-03 -3.533264e-02
-9.773365e-03 2.589193e-02 -9.298761e-03
2.847263e-03 2.824734e-02 -1.683612e-03
5.726310e-03 7.367072e-03 1.800034e-02
-1.374132e-02 -2.227772e-02 -1.847725e-02
4.439173e-05 -4.652507e-04 2.026408e-02
-7.957001e-03 2.248180e-03 1.928014e-02
-2.661561e-02 7.736126e-03 -1.472827e-02
-1.419581e-02 -2.172082e-02 -6.414774e-03
-5.109013e-03 -2.041515e-02 1.050925e-02
-9.801682e-03 2.346676e-02 -4.614695e-03
-8.564348e-03 1.992444e-02 7.964173e-03
1.159787e-03 9.694805e-03 1.833196e-02
5.366858e-03 -2.753963e-02 9.513619e-05
1.131344e-02 -1.363666e-02 1.198213e-02
8.738738e-03 2.213536e-02 8.166839e-03
1.542983e-03 -9.030805e-05 1.978710e-02
-5.025471e-03 9.407514e-03 1.810343e-02
-6.804028e-03 1.565211e-02 -3.338101e-02
1.181512e-02 2.676086e-02 -1.085828e-02
-2.515921e-03 -2.822170e-02 -1.686383e-02
-1.946043e-02 -1.546008e-02 7.498186e-03
-8.275896e-03 1.552035e-03 1.701033e-02
1.610454e-02 2.106127e-02 -2.183498e-02
-1.981232e-02 1.743669e-02 -1.733442e-02
1.504832e-03 -8.713200e-03 1.728558e-02
-9.295041e-03 -2.213739e-02 -2.549366e-02
-7.561461e-04 3.074096e-04 1.785260e-02
-1.663483e-02 2.353759e-02 -1.655703e-02
-8.987731e-03 -2.843628e-02 -7.480404e-03
-8.145323e-03 -5.052531e-03 1.834972e-02
-1.785344e-02 -5.265888e-03 1.407392e-02
6.737144e-03 4.318108e-03 1.695127e-02
-9.224814e-03 3.374464e-03 1.815829e-02
1.348835e-03 -1.119833e-02 -3.470343e-02
9.943325e-03 -4.203370e-04 1.665917e-02
2.115123e-02 -9.014863e-03 -2.423141e-02
-1.007112e-02 -2.411709e-02 -1.568832e-02
-2.376988e-04 -2.438346e-04 1.781790e-02
2.114518e-02 -2.868393e-03 1.076077e-02
-1.723360e-03 -7.906666e-03 1.895125e-02
9.285885e-03 -3.720316e-04 1.878508e-02
-8.078327e-04 -9.449339e-03 1.870216e-02
4.654806e-03 -8.303886e-03 1.800278e-02
1.533442e-02 2.293554e-02 -1.908014e-02
8.214964e-03 -2.871616e-03 1.679933e-02
-1.866764e-02 -1.100006e-02 6.701134e-03
-8.697681e-03 -4.280984e-03 1.851711e-02
-1.396067e-02 1.674439e-02 1.044066e-02
-3.753823e-04 -7.034678e-05 2.095030e-02
1.233041e-03 -5.707040e-05 1.791077e-02
1.631754e-02 -1.500645e-02 9.987788e-03
-2.110520e-02 -1.576149e-02 -2.114410e-02
1.866351e-02 1.994290e-02 -1.813871e-02
-1.143171e-02 -1.622396e-03 -3.573171e-02
2.936081e-03 -2.027819e-03 -3.911662e-02
-8.065821e-03 -4.899252e-03 1.841381e-02
-9.374444e-03 -2.942684e-03 1.830039e-02
-2.103667e-02 -1.225627e-02 7.222413e-03
2.502110e-03 -7.649122e-03 1.914918e-02
1.184837e-02 4.474512e-03 -3.223331e-02
-1.343010e-03 1.098004e-03 1.911658e-02
2.234842e-02 1.095194e-02 -2.421129e-02
-9.877783e-04 1.092802e-02 -3.279125e-02
1.194019e-03 -1.249788e-03 -3.619582e-02
-2.082585e-02 -8.271198e-03 -2.759276e-02
-7.653509e-03 5.989098e-03 1.777620e-02
-2.447005e-02 1.099990e-02 -1.012732e-02
-6.591487e-03 5.182884e-03 1.810772e-02
-9.985103e-03 3.148283e-03 1.707123e-02
1.738669e-02 -9.545640e-03 -2.629430e-02
-1.932392e-02 -1.486528e-02 -2.520083e-02
-4.594350e-04 -3.408876e-04 2.008074e-02
6.664427e-03 -2.119706e-02 8.638273e-03
-6.365820e-03 -1.317222e-02 -3.527849e-02
-2.103122e-02 -7.696533e-03 1.031630e-02
-1.925354e-02 1.862347e-02 -1.462879e-02
2.344214e-02 -1.164472e-02 4.399844e-03
-2.477615e-02 7.310817e-04 6.468184e-03
-6.952943e-03 -4.720507e-03 1.761831e-02
-1.813951e-03 -2.877627e-02 -1.340010e-02
-6.555307e-03 6.863950e-03 1.842946e-02
2.489908e-02 -3.568316e-03 6.167700e-03
-1.124662e-02 1.065779e-06 1.615418e-02
2.295289e-03 7.665363e-03 1.742674e-02
2.118601e-02 -2.014815e-02 -2.171577e-03
-1.280317e-02 1.745385e-02 8.096092e-03
2.270798e-02 1.768782e-02 -1.276439e-02
6.553939e-03 -6.512274e-03 1.719785e-02
1.217294e-02 2.330316e-02 -2.063335e-02
9.158431e-03 -2.285851e-03 -3.753436e-02
-1.177583e-02 -1.481927e-02 -3.155809e-02
-6.577842e-03 6.523146e-03 1.870239e-02
-1.138736e-02 2.504652e-02 -7.173205e-03
-1.897232e-02 1.944550e-05 1.127930e-02
-2.203769e-02 3.770479e-03 9.032428e-03
-1.380547e-02 2.365019e-02 -1.951602e-02
6.987301e-03 2.483634e-03 1.920292e-02
-2.612562e-02 -1.577179e-02 -9.891132e-03
3.676232e-03 -7.099936e-03 1.722220e-02
-1.214982e-02 -1.252018e-02 -2.850883e-02
1.435319e-03 -1.798594e-02 1.276197e-02
1.792548e-02 7.540794e-03 1.080986e-02
-1.912190e-02 -3.108515e-03 1.031045e-02
-1.973560e-02 -8.593093e-03 9.572826e-03
-2.891135e-02 -2.168712e-04 -8.710985e-04
-2.369980e-02 1.750513e-02 -6.594117e-03
7.974306e-03 -1.768827e-03 1.861066e-02
-1.500920e-02 4.429649e-03 -3.523947e-02
-1.017389e-02 -5.269034e-03 -3.202475e-02
-2.145963e-03 7.319929e-03 1.921319e-02
-3.198669e-03 8.866385e-03 1.861025e-02
-2.025614e-02 1.046339e-02 9.019096e-03
1.090973e-02 -2.620544e-02 -1.684945e-03
2.978651e-03 -8.614119e-03 1.858871e-02
2.311212e-02 7.930867e-03 9.036808e-03
-2.657232e-02 -1.051133e-04 -1.791691e-02
-7.685248e-03 -2.043448e-02 -2.670981e-02
-5.496153e-03 -1.023095e-02 -3.479708e-02
-1.243201e-02 2.077008e-02 3.436313e-03
-7.758661e-03 -2.149472e-02 8.743306e-03
-1.309411e-03 3.550055e-03 -3.905036e-02
2.660935e-02 -4.812591e-03 -2.008259e-02
-1.880015e-02 6.693355e-03 -2.662089e-02
-7.120319e-03 -2.785995e-02 -1.945567e-02
-3.466669e-03 2.156072e-03 -3.859486e-02
5.707433e-03 5.441155e-03 1.702511e-02
-1.873660e-02 -1.048935e-03 -3.030998e-02
-8.408213e-03 1.518960e-02 -3.371872e-02
-2.231168e-03 -9.837234e-03 1.820079e-02
2.323480e-02 6.140064e-03 8.806618e-03
1.934515e-02 2.301452e-04 1.254974e-02
3.530255e-03 6.433264e-03 -3.535605e-02
-2.671372e-03 -7.492091e-03 1.928745e-02
7.606658e-03 -2.006034e-02 7.557281e-03
2.772013e-02 -1.186144e-02 -1.116799e-02
-4.852005e-03 -5.740539e-03 1.922751e-02
-9.443878e-03 -2.154318e-02 5.716069e-03
8.047365e-04 1.514306e-03 -3.870333e-02
2.189849e-02 1.853658e-02 -1.051248e-02
1.044180e-02 2.440014e-02 -1.841344e-02
1.605620e-03 -2.171775e-03 -3.738435e-02
-1.324654e-02 4.995319e-03 -3.555984e-02
4.399504e-03 -4.569591e-03 -3.589808e-02
-1.329817e-02 -1.644225e-02 1.139938e-02
-7.945677e-03 4.314760e-03 1.911689e-02
-7.634097e-03 -5.208713e-03 -3.709277e-02
1.243639e-03 1.681397e-03 -3.811715e-02
-2.302118e-02 1.491695e-02 -4.912733e-03
1.896676e-02 6.723598e-04 -3.247697e-02
-8.685113e-03 -2.644086e-02 -4.282424e-03
-4.041414e-03 6.017948e-03 1.916712e-02
-6.852228e-03 -1.625484e-03 1.823515e-02
-4.270810e-03 -2.235845e-02 7.782871e-03
-1.575491e-02 -1.044846e-02 1.359448e-02
-4.447535e-03 -9.330904e-03 -3.812572e-02
-6.911232e-03 -3.354783e-03 -3.380484e-02
-2.500463e-02 8.261152e-03 -7.636361e-03
8.067121e-03 1.343602e-02 -3.407837e-02
-7.306637e-03 2.078955e-03 1.931838e-02
-1.131598e-03 -1.830979e-04 1.936373e-02
2.649290e-02 -6.032783e-04 -1.594268e-02
2.586197e-02 1.265935e-02 -1.281556e-02
-7.798050e-03 -7.371785e-04 -3.598471e-02
8.612981e-03 -1.694312e-03 1.884396e-02
2.670828e-03 2.932770e-02 -1.269632e-02
-2.494950e-03 -6.804273e-03 1.868805e-02
-1.340101e-02 -1.594955e-02 9.412135e-03
4.871492e-03 6.908778e-03 1.846614e-02
-6.157566e-03 -2.271438e-02 8.381391e-03
-2.642833e-03 2.774521e-02 -1.380824e-02
-1.843833e-02 1.331492e-02 -2.726552e-02
2.619018e-02 -3.433980e-04 -2.581099e-03
-2.688844e-02 -1.268648e-02 -1.318399e-02
-9.972424e-03 -7.531575e-03 -3.654557e-02
1.068884e-02 -2.297792e-03 -3.355565e-02
-2.002367e-03 7.021639e-03 1.890397e-02
-2.036516e-02 -9.022153e-03 7.039428e-03
-2.717540e-04 8.018695e-03 1.878643e-02
1.329732e-03 -6.687827e-03 1.906149e-02
-6.534324e-03 1.312775e-03 1.905262e-02
5.592777e-03 6.067984e-03 1.690537e-02
-2.010627e-02 1.322652e-02 -2.740310e-02
2.175308e-02 1.488807e-04 1.035246e-02
-1.301887e-03 -2.124120e-02 -2.942362e-02
-1.263076e-02 9.342205e-03 -3.472948e-02
-2.101291e-02 3.871758e-03 8.918073e-03
1.760416e-02 -3.228100e-03 -3.157118e-02
-6.714487e-03 2.447094e-02 -9.764908e-03
1.446105e-02 -2.393032e-02 -1.303112e-02
-1.707618e-02 1.417855e-02 -2.830984e-02
1.611733e-02 -8.837712e-03 1.213681e-02
-2.088911e-02 5.208343e-03 -2.988466e-02
-8.215958e-03 2.678350e-02 -1.576738e-02
1.113278e-02 -4.603772e-05 1.814895e-02
2.134899e-02 2.496973e-03 9.767874e-03
6.313359e-03 5.978046e-03 1.728381e-02
1.798777e-04 -2.641351e-03 -3.824373e-02
1.613573e-02 1.633631e-02 9.841307e-03
4.685619e-03 -4.773062e-03 1.814767e-02
-6.098458e-03 -4.185542e-03 1.782529e-02
-1.734080e-02 -1.479675e-02 6.809408e-03
1.376658e-02 -1.067585e-02 1.186351e-02
-1.806343e-03 1.866179e-02 -3.081213e-02
1.532684e-02 -1.375242e-02 -2.484930e-02
6.848894e-04 9.210107e-05 -3.945561e-02
4.721327e-03 2.932103e-02 -7.987099e-03