# vtk DataFile Version 2.0
Electric current density generated by TTH
ASCII
DATASET UNSTRUCTURED_GRID
POINTS 1745 double
-5.000000e-06 -5.000000e-06 -7.500000e-08
-1.300000e-05 1.300000e-05 7.500000e-08
-7.426960e-06 1.300000e-05 -7.500000e-08
-1.251214e-05 -1.190185e-05 7.500000e-08
1.063597e-05 6.136334e-06 7.500000e-08
-1.092585e-05 6.336001e-06 7.500000e-08
-1.268947e-05 1.233764e-05 7.500000e-08
-1.270692e-05 -1.237596e-05 7.500000e-08
1.242791e-05 1.272856e-05 7.500000e-08
1.271654e-05 -1.240006e-05 7.500000e-08
-1.175649e-05 1.242342e-05 7.500000e-08
-1.182507e-05 -1.245260e-05 7.500000e-08
-6.373142e-06 -3.558991e-06 7.500000e-08
-8.324821e-06 1.300000e-05 -7.500000e-08
-1.280405e-05 1.280355e-05 7.500000e-08
6.135949e-06 1.050553e-05 7.500000e-08
-5.788472e-06 1.078108e-05 7.500000e-08
-1.281594e-05 -1.281533e-05 7.500000e-08
1.282894e-05 1.283009e-05 7.500000e-08
1.280601e-05 -1.280824e-05 7.500000e-08
-6.244168e-06 -6.277135e-06 7.500000e-08
-6.240035e-06 -8.208503e-06 7.500000e-08
-1.232740e-05 1.265352e-05 7.500000e-08
6.568467e-06 1.232460e-06 7.500000e-08
-9.228012e-06 1.300000e-05 -7.500000e-08
-8.513356e-06 6.316372e-06 7.500000e-08
-6.357366e-06 3.730792e-06 7.500000e-08
-9.485082e-06 -1.156023e-05 7.500000e-08
-6.191980e-06 4.934131e-07 7.500000e-08
-1.236390e-05 -1.266545e-05 7.500000e-08
1.064330e-05 1.467309e-07 7.500000e-08
-9.364748e-06 1.158946e-05 7.500000e-08
6.196231e-06 5.809756e-08 7.500000e-08
6.115057e-07 6.279488e-06 7.500000e-08
2.408578e-07 -6.364793e-06 7.500000e-08
-1.014685e-05 1.300000e-05 -7.500000e-08
1.093706e-05 1.218157e-05 7.500000e-08
-1.173660e-05 -9.610542e-06 7.500000e-08
-2.036581e-06 -1.067209e-05 7.500000e-08
1.269248e-05 1.241084e-05 7.500000e-08
-1.231668e-05 1.116838e-05 7.500000e-08
-8.202438e-06 -6.476196e-06 7.500000e-08
-1.174491e-05 9.469484e-06 7.500000e-08
4.434333e-06 -6.302690e-06 7.500000e-08
2.879047e-06 6.368715e-06 7.500000e-08
1.237949e-05 -1.267086e-05 7.500000e-08
-1.108161e-05 1.300000e-05 -7.500000e-08
-6.159686e-06 1.775531e-06 7.500000e-08
1.218085e-05 -1.086636e-05 7.500000e-08
-1.062912e-05 1.668354e-06 7.500000e-08
1.218982e-05 1.094252e-05 7.500000e-08
5.070444e-06 -1.062824e-05 7.500000e-08
1.794432e-06 6.152663e-06 7.500000e-08
-1.233930e-05 -1.125533e-05 7.500000e-08
-3.038931e-06 6.318254e-06 7.500000e-08
-1.861912e-06 6.223581e-06 7.500000e-08
-9.538761e-06 9.490334e-06 7.500000e-08
-1.203257e-05 1.300000e-05 -7.500000e-08
1.088883e-05 -1.216237e-05 7.500000e-08
-1.123740e-05 1.121597e-05 7.500000e-08
-9.775872e-06 -9.799421e-06 7.500000e-08
7.055573e-07 -1.054165e-05 7.500000e-08
1.121674e-05 -7.037230e-06 7.500000e-08
-2.214970e-06 1.056648e-05 7.500000e-08
8.384560e-06 6.425618e-06 7.500000e-08
1.202705e-05 1.260870e-05 7.500000e-08
6.137401e-06 4.137057e-06 7.500000e-08
-6.565727e-06 9.078777e-06 7.500000e-08
-1.300000e-05 1.201006e-05 -7.500000e-08
1.259320e-05 -1.198499e-05 7.500000e-08
-6.290665e-06 -1.823000e-06 7.500000e-08
8.815003e-06 -1.145501e-05 7.500000e-08
6.270797e-06 -4.049825e-06 7.500000e-08
3.519029e-06 -1.100451e-05 7.500000e-08
-1.061249e-05 -1.545794e-06 7.500000e-08
2.949242e-06 1.073882e-05 7.500000e-08
-5.305105e-06 6.180506e-06 7.500000e-08
-6.136741e-06 -4.481407e-06 7.500000e-08
-3.351031e-06 -6.272857e-06 7.500000e-08
-1.300000e-05 1.101799e-05 -7.500000e-08
1.098854e-05 1.105908e-05 7.500000e-08
-1.279112e-05 1.252297e-05 7.500000e-08
-2.394597e-06 -6.097251e-06 7.500000e-08
1.271118e-05 1.212587e-05 7.500000e-08
1.081343e-05 3.322757e-06 7.500000e-08
6.094140e-06 -5.966585e-06 7.500000e-08
-1.282234e-05 -1.255585e-05 7.500000e-08
2.336064e-06 -6.362249e-06 7.500000e-08
1.258866e-05 1.283531e-05 7.500000e-08
-1.119043e-05 -7.149256e-06 7.500000e-08
-1.300000e-05 1.002380e-05 -7.500000e-08
1.282553e-05 -1.255477e-05 7.500000e-08
-1.288132e-05 1.288126e-05 7.500000e-08
1.136093e-05 1.256299e-05 7.500000e-08
1.285223e-05 1.269366e-05 7.500000e-08
1.207095e-05 -1.271515e-05 7.500000e-08
6.118062e-06 5.680393e-06 7.500000e-08
-1.288851e-05 -1.288837e-05 7.500000e-08
-2.616155e-07 1.096267e-05 7.500000e-08
1.255361e-05 -1.130376e-05 7.500000e-08
1.266729e-05 -1.285799e-05 7.500000e-08
-1.300000e-05 9.027488e-06 -7.500000e-08
1.288789e-05 1.289799e-05 7.500000e-08
1.099608e-05 -1.095029e-05 7.500000e-08
-1.265600e-05 1.283371e-05 7.500000e-08
-1.137116e-05 -1.136867e-05 7.500000e-08
-4.481081e-06 -1.052759e-05 7.500000e-08
-3.997495e-06 1.084633e-05 7.500000e-08
-1.097216e-05 -4.177635e-06 7.500000e-08
8.894129e-06 9.516976e-06 7.500000e-08
-1.267532e-05 -1.284295e-05 7.500000e-08
9.306906e-06 1.177669e-05 7.500000e-08
-1.300000e-05 -1.300000e-05 7.500000e-08
-1.300000e-05 8.029037e-06 -7.500000e-08
1.289000e-05 -1.287962e-05 7.500000e-08
-1.099316e-05 4.359110e-06 7.500000e-08
7.804284e-06 -6.616688e-06 7.500000e-08
-1.234322e-05 -1.024585e-05 7.500000e-08
1.177355e-05 -9.182039e-06 7.500000e-08
-1.141101e-05 -1.259557e-05 7.500000e-08
1.211089e-05 1.208605e-05 7.500000e-08
-1.185294e-05 7.479573e-06 7.500000e-08
-1.208656e-05 -1.275044e-05 7.500000e-08
-1.236192e-05 1.008606e-05 7.500000e-08
-1.300000e-05 7.014680e-06 -7.500000e-08
6.092844e-06 -1.885201e-06 7.500000e-08
5.967936e-06 2.537587e-06 7.500000e-08
-1.288408e-05 1.266493e-05 7.500000e-08
6.672770e-06 8.676668e-06 7.500000e-08
-7.309584e-06 -1.174857e-05 7.500000e-08
-1.288830e-05 -1.270911e-05 7.500000e-08
-1.203210e-05 1.273289e-05 7.500000e-08
1.205716e-05 -1.207150e-05 7.500000e-08
-1.133054e-05 1.257952e-05 7.500000e-08
-5.281967e-06 8.061391e-06 7.500000e-08
-1.300000e-05 5.951829e-06 -7.500000e-08
1.273061e-05 1.289683e-05 7.500000e-08
1.287333e-05 -1.269512e-05 7.500000e-08
-6.038233e-06 4.773856e-06 7.500000e-08
1.142105e-05 -4.302753e-06 7.500000e-08
9.478308e-06 -8.810149e-06 7.500000e-08
1.214178e-05 9.576032e-06 7.500000e-08
-7.134749e-06 1.171746e-05 7.500000e-08
-9.875410e-06 -7.557240e-06 7.500000e-08
-9.693095e-06 7.462282e-06 7.500000e-08
7.132293e-06 -8.960076e-06 7.500000e-08
-1.300000e-05 4.836851e-06 -7.500000e-08
1.044891e-05 1.248269e-05 7.500000e-08
-4.016859e-06 5.963737e-06 7.500000e-08
1.248984e-05 -1.038348e-05 7.500000e-08
-4.809258e-06 -6.034225e-06 7.500000e-08
1.049999e-05 -1.771222e-06 7.500000e-08
-1.142004e-05 1.208755e-05 7.500000e-08
-1.015002e-05 1.234286e-05 7.500000e-08
-1.255843e-05 -1.086473e-05 7.500000e-08
-1.076978e-05 -9.768692e-06 7.500000e-08
4.132440e-06 5.901629e-06 7.500000e-08
-1.300000e-05 3.667191e-06 -7.500000e-08
-1.025609e-05 -1.236037e-05 7.500000e-08
7.252219e-06 1.124618e-05 7.500000e-08
-9.592780e-06 1.056734e-05 7.500000e-08
-1.066095e-05 9.574841e-06 7.500000e-08
9.730885e-06 7.616303e-06 7.500000e-08
-1.256356e-05 1.074618e-05 7.500000e-08
9.920702e-06 -7.357042e-06 7.500000e-08
1.261756e-05 1.142375e-05 7.500000e-08
-5.785381e-07 5.893601e-06 7.500000e-08
-8.453911e-06 1.205493e-05 7.500000e-08
-1.300000e-05 2.440632e-06 -7.500000e-08
1.137077e-05 -1.260809e-05 7.500000e-08
-5.871545e-06 -6.144602e-07 7.500000e-08
-1.214221e-05 -8.802550e-06 7.500000e-08
-5.717799e-06 -2.981306e-06 7.500000e-08
7.597455e-06 9.888905e-06 7.500000e-08
-7.137670e-06 -9.355007e-06 7.500000e-08
-8.630564e-06 -1.209654e-05 7.500000e-08
9.731219e-06 1.106118e-05 7.500000e-08
-1.219370e-05 8.662694e-06 7.500000e-08
-1.268266e-05 1.153764e-05 7.500000e-08
-1.300000e-05 1.189977e-06 -7.500000e-08
-1.023327e-06 -5.909234e-06 7.500000e-08
1.179688e-05 7.373047e-06 7.500000e-08
-1.152997e-05 -1.213498e-05 7.500000e-08
-1.269935e-05 -1.161710e-05 7.500000e-08
3.450776e-06 -5.934542e-06 7.500000e-08
1.176527e-05 1.272599e-05 7.500000e-08
-1.176796e-05 1.127428e-05 7.500000e-08
1.103244e-05 -9.674254e-06 7.500000e-08
4.494025e-06 1.123884e-05 7.500000e-08
1.105246e-05 9.564262e-06 7.500000e-08
-1.300000e-05 -6.334891e-08 -7.500000e-08
1.271695e-05 -1.171896e-05 7.500000e-08
-1.280310e-05 1.214224e-05 7.500000e-08
7.487890e-06 -1.183081e-05 7.500000e-08
-2.341252e-06 -8.854239e-06 7.500000e-08
-1.281904e-05 -1.219853e-05 7.500000e-08
1.209693e-05 -8.078834e-06 7.500000e-08
1.222646e-05 1.280920e-05 7.500000e-08
1.245571e-05 1.041065e-05 7.500000e-08
9.249415e-06 -1.011964e-05 7.500000e-08
1.280163e-05 -1.219231e-05 7.500000e-08
-1.300000e-05 -1.319352e-06 -7.500000e-08
-6.592987e-07 -1.157694e-05 7.500000e-08
-6.240253e-06 5.870716e-06 7.500000e-08
-1.222280e-05 1.199969e-05 7.500000e-08
-1.218954e-05 1.160223e-05 7.500000e-08
5.949634e-06 3.239095e-06 7.500000e-08
1.281405e-05 1.292498e-05 7.500000e-08
4.522471e-06 -7.726734e-06 7.500000e-08
1.118016e-05 1.164453e-05 7.500000e-08
5.862269e-06 -2.904811e-06 7.500000e-08
-8.843663e-06 -2.001587e-06 7.500000e-08
-1.300000e-05 -2.578038e-06 -7.500000e-08
1.029094e-05 -1.238074e-05 7.500000e-08
-9.906545e-06 -1.076645e-05 7.500000e-08
9.370068e-06 -1.230472e-05 7.500000e-08
-5.430091e-06 -5.610426e-06 7.500000e-08
5.952353e-06 -5.002507e-06 7.500000e-08
8.765003e-06 -7.894523e-07 7.500000e-08
-1.020641e-05 1.137440e-05 7.500000e-08
1.170153e-05 4.675875e-06 7.500000e-08
-1.146644e-05 2.493718e-07 7.500000e-08
5.532987e-06 1.232101e-06 7.500000e-08
1.300000e-05 -1.300000e-05 7.500000e-08
-1.300000e-05 -3.805171e-06 -7.500000e-08
-1.251968e-05 1.249138e-05 7.500000e-08
5.266899e-06 7.920770e-06 7.500000e-08
-5.761636e-06 2.956921e-06 7.500000e-08
1.163308e-05 1.112225e-05 7.500000e-08
-1.227087e-05 -1.205724e-05 7.500000e-08
-1.227180e-05 -1.168141e-05 7.500000e-08
-1.149083e-05 -5.742244e-06 7.500000e-08
8.994274e-07 -5.716520e-06 7.500000e-08
-2.364690e-06 5.664118e-06 7.500000e-08
1.241477e-05 1.214394e-05 7.500000e-08
-1.300000e-05 -4.966482e-06 -7.500000e-08
1.162782e-05 1.838279e-06 7.500000e-08
9.865957e-06 2.016690e-06 7.500000e-08
5.602754e-06 4.654562e-06 7.500000e-08
1.160890e-05 -1.103996e-05 7.500000e-08
1.208144e-05 -1.239933e-05 7.500000e-08
-5.633327e-06 -4.127390e-06 7.500000e-08
1.187604e-05 -5.891218e-06 7.500000e-08
-1.254842e-05 -1.252237e-05 7.500000e-08
1.486470e-06 -8.847148e-06 7.500000e-08
1.255416e-05 1.257595e-05 7.500000e-08
[...]
POINT_DATA 1745
VECTORS 10.000GHz_fone_imag double
-3.454289e+12 4.132174e+12 -5.644723e+07
4.043623e+10 4.665377e+10 3.372066e+08
5.671077e+11 1.722505e+10 7.895011e+08
-4.746919e+10 1.626955e+11 -1.418687e+09
8.245032e+10 -2.498473e+11 6.100754e+07
7.964173e+10 2.465961e+11 6.016522e+07
2.677981e+10 1.632031e+11 -5.282002e+09
-2.844139e+10 1.635737e+11 5.876009e+09
1.420564e+11 -3.142456e+10 -1.379182e+09
-3.230160e+10 -1.375509e+11 -1.657359e-08
1.435359e+11 4.878085e+10 -1.250574e+09
-1.540582e+11 4.740834e+10 1.980535e+09
-1.945972e+11 9.691379e+11 1.593768e-06
5.189417e+11 1.963407e+10 1.536054e+09
7.503363e+10 7.281872e+10 -3.076389e+08
2.519925e+11 -8.922893e+10 2.663807e+08
2.614699e+11 7.957151e+10 1.735869e+08
-7.483489e+10 8.164257e+10 -4.699550e+08
7.913844e+10 -7.703336e+10 9.425987e+08
-7.847324e+10 -7.429130e+10 3.505130e+07
-4.280855e+11 4.289003e+11 1.628355e+09
-2.992946e+11 1.962348e+11 2.850837e+08
1.464640e+11 3.902090e+10 2.577825e+09
4.465411e+10 -8.611719e+11 3.982274e+07
4.666518e+11 1.211233e+10 -8.243341e+08
1.698775e+11 2.710737e+11 1.146940e+09
2.236375e+11 1.040808e+12 -1.714776e+09
-1.638675e+11 7.183515e+10 2.068970e+08
1.743997e+10 1.083261e+12 3.039970e+09
-1.576853e+11 3.047732e+10 -4.210294e+09
2.352741e+09 -3.669258e+11 -5.094309e+07
1.731690e+11 6.688551e+10 -8.512611e+07
4.599563e+09 -9.699248e+11 7.457786e+08
1.012474e+12 -1.719292e+10 1.754131e+09
-9.546611e+11 -1.018833e+10 7.497206e+08
4.084704e+11 1.586020e+10 -1.647020e+09
1.448126e+11 -5.290809e+10 -2.247424e+08
-6.423945e+10 1.689979e+11 2.052643e+08
-3.533015e+11 3.045997e+10 -1.952666e+08
4.310874e+10 -1.276905e+11 1.066076e-07
4.479559e+10 1.625569e+11 6.864421e+08
-2.155007e+11 2.903320e+11 -1.235330e+09
6.278202e+10 1.730974e+11 1.598959e+08
-9.746572e+11 -3.322398e+11 3.291907e+09
1.036701e+12 -1.108533e+11 -7.789333e+06
-1.625060e+11 -2.893125e+10 3.654829e+09
3.146367e+11 1.684633e+10 6.256515e+08
5.602321e+10 1.128745e+12 -3.776203e+09
-5.081923e+10 -1.446698e+11 1.300463e+07
3.098925e+10 3.597175e+11 4.462821e+07
5.534003e+10 -1.436726e+11 9.305340e-07
-2.838376e+11 -8.238667e+10 5.304343e+07
1.221054e+12 -5.726091e+10 5.151752e+08
-4.717085e+10 1.426319e+11 2.009922e-08
9.978765e+11 1.396316e+11 4.870624e+08
1.057268e+12 6.937490e+10 -1.752555e+08
1.340184e+11 1.384848e+11 2.067050e+08
2.373969e+11 2.084955e+10 1.800672e+09
-1.458669e+11 -5.032712e+10 1.124276e+08
8.987922e+10 9.820635e+10 -2.255671e-07
-1.199001e+11 1.243554e+11 3.772338e+07
-3.623947e+11 -1.010897e+10 4.220084e+08
-7.398483e+10 -2.370187e+11 -4.333034e+08
3.379784e+11 3.653844e+10 -1.604862e+08
1.818091e+11 -2.895584e+11 -8.984401e+07
1.764154e+11 -3.946904e+10 1.435831e+09
2.776962e+11 -1.079779e+12 4.227189e+09
2.496503e+11 1.454663e+11 4.100156e+08
1.835481e+10 2.516480e+11 -2.246998e+09
-4.185700e+10 -1.776631e+11 2.181088e+09
-6.437401e+10 1.037682e+12 3.251681e+06
-1.797948e+11 -7.500384e+10 -7.493187e+07
-2.733101e+11 -1.051683e+12 3.029408e+08
-3.217833e+11 -4.898250e+10 -1.090030e+08
-2.072340e+10 3.541715e+11 6.721744e+08
3.314528e+11 -4.421571e+10 1.462118e+08
7.888977e+11 5.376992e+11 1.939771e+08
-3.420830e+11 1.176485e+12 3.415480e+09
-9.935201e+11 1.729293e+11 9.791704e+08
1.627925e+10 3.435150e+11 1.129671e+09
1.022204e+11 -9.364477e+10 -7.964081e+08
4.226159e+10 1.312170e+11 -1.578011e-07
-1.106371e+12 9.581619e+10 4.024687e+08
3.855063e+10 -1.607847e+11 -2.089643e+08
4.752183e+10 -3.267222e+11 1.240891e+08
-5.614999e+11 -5.891331e+11 3.325374e+09
-3.829073e+10 1.415401e+11 8.438284e+06
-9.413263e+11 -8.938660e+10 -3.768389e+09
1.321253e+11 -3.072463e+10 -3.565034e-06
-7.803043e+10 2.221889e+11 7.847971e+07
1.843922e+10 3.922070e+11 -5.106194e+08
-3.136157e+10 -1.543142e+11 -7.099074e+08
7.107880e+10 7.412121e+10 -8.815962e+08
1.929082e+11 -3.459298e+10 -3.199842e+08
4.707908e+10 -1.219114e+11 4.908594e-06
-2.378606e+11 -2.872306e+10 2.756016e-06
5.259622e+11 -6.450017e+11 1.929816e+09
-7.001637e+10 7.527985e+10 5.446262e+08
3.735301e+11 2.783722e+09 -7.038485e+07
-3.579692e+10 -1.895903e+11 2.897657e+08
-1.393609e+11 -4.193602e+10 5.202138e-06
1.164180e+10 5.025861e+11 -1.237237e+09
8.112632e+10 -6.744211e+10 -1.061493e+08
-9.802280e+10 -9.834076e+10 -4.311198e+08
1.113586e+11 3.854444e+10 3.610901e-06
-9.304948e+10 9.256402e+10 1.352494e+08
-3.008539e+11 7.469009e+10 -3.215604e+07
3.099035e+11 6.565095e+10 -9.453739e+07
-5.664645e+10 3.124675e+11 -1.960617e+07
1.599613e+11 -1.355073e+11 -5.535371e+08
-1.274074e+11 4.528324e+10 1.359283e+08
1.802929e+11 -6.412643e+10 2.149820e+08
-4.037985e+10 4.439039e+10 -5.003615e+08
1.456467e+10 4.989631e+11 -4.770713e+08
-7.205736e+10 -7.351548e+10 1.146394e+09
6.296920e+10 3.025692e+11 -2.447581e+08
-2.126480e+11 -2.939281e+11 -8.160134e+08
-4.689873e+10 1.965658e+11 4.468432e+08
-6.116555e+10 -1.846427e+11 2.673672e+07
-1.974836e+11 3.137130e+10 -8.468098e+08
7.816050e+10 -7.947304e+10 -3.459945e-07
5.383010e+10 2.578951e+11 -1.487669e+08
-2.543566e+11 2.590762e+10 -3.351922e-06
4.316899e+10 2.093062e+11 2.413914e+07
2.353300e+10 5.499458e+11 -4.282299e+08
-6.193054e+10 -1.170588e+12 -9.748029e+08
8.875866e+10 -1.235815e+12 -1.948682e+09
3.645993e+10 1.439398e+11 3.719303e+08
2.552330e+11 -1.665833e+11 -2.025017e+07
-2.682393e+11 5.149073e+10 2.351738e+08
-3.516838e+10 1.369222e+11 -1.169947e+09
2.434097e+11 1.395216e+10 2.481598e-06
-7.681469e+10 -7.823676e+10 4.958942e-08
2.059849e+11 3.084808e+10 -1.240652e+09
3.936165e+11 1.997009e+11 6.795275e+07
1.642056e+10 6.248269e+11 -3.000007e+08
1.367952e+11 -3.568634e+10 9.970302e+08
-3.948591e+10 -1.293343e+11 -7.483521e-06
4.733828e+11 1.102265e+12 5.367825e+08
-5.042411e+10 -3.329038e+11 -2.809693e+08
-1.361586e+11 -1.611604e+11 -1.699692e+08
4.867387e+10 -2.080384e+11 -7.878805e+07
2.663542e+11 5.497500e+10 -1.473635e+08
-1.153440e+11 2.021191e+11 -4.543114e+07
1.266376e+11 2.122394e+11 2.797183e+08
-2.382619e+11 -1.542082e+11 -9.214442e+07
5.109354e+09 6.662418e+11 4.548390e+08
2.138217e+11 -3.798361e+10 -1.375291e+08
1.342162e+12 2.527806e+11 6.421511e+08
-3.417714e+10 -2.299675e+11 -1.376822e+09
-1.196045e+12 4.779211e+11 -1.564652e+09
-2.942926e+10 -3.519194e+11 5.748662e+07
1.183355e+11 6.227683e+10 7.929961e+08
2.028325e+11 4.315396e+10 1.978895e+08
-3.519999e+10 2.154240e+11 -2.711299e+08
-9.062768e+10 1.370140e+11 6.528544e+07
1.653160e+12 -3.253192e+11 -4.938404e+09
1.611770e+10 7.300312e+11 1.462244e+09
-2.129662e+11 4.207342e+10 -3.930199e+08
2.272066e+11 -7.345506e+10 -6.563120e+08
1.369925e+11 1.051775e+11 2.016719e+08
9.421702e+10 1.427227e+11 1.235067e+08
1.253594e+11 -2.038252e+11 -2.880507e+08
3.272198e+10 2.251702e+11 5.112336e+08
-1.160562e+11 -2.034082e+11 -1.242787e+08
4.022576e+10 -1.762879e+11 -8.303422e+07
1.478278e+12 1.755275e+10 -4.091917e+09
2.586745e+11 4.605413e+10 1.294984e+09
3.264792e+09 7.933324e+11 -1.151565e+09
-2.019833e+11 -3.131460e+10 7.525717e+08
-1.815183e+10 1.401097e+12 -6.637910e+08
-4.514615e+10 2.401716e+11 4.487712e+08
-1.288878e+11 1.706711e+12 7.375766e+08
2.032338e+11 -1.190420e+11 -1.960624e+08
-2.268706e+11 1.365164e+11 -2.018249e+08
-2.472144e+11 4.965816e+10 -6.440401e+08
1.373812e+11 -9.035544e+10 2.491330e+08
4.190408e+10 2.466091e+11 -4.281938e+08
2.761529e+10 2.132788e+11 -2.053535e+09
7.203914e+09 7.387395e+11 -5.723602e+08
-1.423780e+12 1.686359e+10 3.990505e+09
5.389607e+10 -2.645110e+11 -2.155700e+07
-1.090284e+11 6.535837e+10 -5.420005e+07
-3.335226e+10 2.083713e+11 -2.276144e+09
-1.427939e+12 -1.831078e+11 -6.378747e+09
2.314394e+11 -2.587872e+10 3.042935e+09
7.301115e+10 1.082547e+11 -2.623121e+08
-8.716168e+10 -1.448094e+11 -2.613067e+08
3.207424e+11 -4.982607e+10 2.932908e+08
8.437564e+10 -1.466190e+11 -1.404935e+08
-4.664322e+09 8.018528e+11 2.198982e+09
-3.224340e+10 -2.128623e+11 1.925598e+09
2.731421e+10 2.798565e+11 -4.196191e-06
-2.674005e+11 -5.179772e+10 5.719765e+08
-4.517569e+11 6.706902e+10 -1.717975e+08
-2.817925e+10 2.725327e+11 6.008664e-06
-4.651342e+10 -2.711373e+11 -4.422539e+08
2.499458e+11 -1.964649e+10 -1.115564e+09
3.547898e+10 -2.268845e+11 7.735865e+08
-1.452345e+11 -1.146878e+11 -1.643595e+08
-1.561409e+10 -2.418363e+11 -6.319743e+09
2.091912e+09 7.952529e+11 -2.132610e+09
-3.921505e+11 8.930373e+09 5.720739e+08
4.869137e+11 5.910427e+11 3.122766e+08
7.629574e+10 8.483756e+10 1.183866e-06
6.031422e+10 1.158269e+11 -1.001746e+09
1.546335e+11 -1.273621e+12 -2.417842e+09
1.245282e+11 -4.016314e+10 -5.474846e-06
-4.902813e+11 -1.903775e+11 1.370312e+09
1.116472e+11 -7.525180e+10 7.197233e+07
-1.080112e+11 -1.614266e+12 -1.986940e+09
-5.186515e+10 4.474046e+11 -1.716682e+08
-1.748800e+10 7.018462e+11 -1.440805e+08
-2.146711e+11 -4.384953e+10 3.273154e+08
-1.286662e+11 9.371950e+10 6.586625e+07
-2.383964e+11 -4.170271e+10 -6.023032e+08
-1.323390e+12 1.085398e+12 -4.443763e+09
-5.845168e+11 -1.164844e+12 -1.468622e+09
-2.416714e+10 -4.679455e+11 -2.847227e+08
1.346145e+11 7.673948e+10 -6.187474e+07
4.466597e+10 -3.340577e+11 -2.100163e+08
5.754989e+09 3.904245e+11 3.891864e+08
4.470217e+10 -1.797732e+12 -8.573684e+08
-4.704018e+10 -5.194926e+10 -2.442001e+09
-1.057069e+10 7.416414e+11 4.241902e+09
5.083586e+10 9.350173e+10 2.340915e-07
4.145668e+11 -2.260301e+11 -1.655197e+08
1.154605e+11 1.568391e+12 1.495240e+09
7.662036e+10 -1.126428e+11 2.210207e+08
-7.343843e+10 8.446063e+10 -2.719231e-07
-6.013771e+10 1.124348e+11 1.158121e+09
-6.046525e+10 2.824005e+11 -6.980680e+04
-1.614859e+12 -2.294767e+10 -7.155534e+09
1.780869e+12 6.880523e+10 8.818475e+08
7.385839e+10 -9.068128e+10 -4.497272e-07
-9.999652e+09 6.929416e+11 -2.561722e+09
1.649686e+10 -3.902893e+11 -1.384637e+08
4.213668e+10 -3.667985e+11 -1.263381e+08
4.977611e+11 -1.986961e+12 -9.143537e+09
-7.597657e+10 -1.126899e+11 -3.874118e+07
-1.311137e+11 -5.649581e+10 5.748657e+08
-2.971119e+11 1.931672e+12 -1.211664e+10
-4.170357e+10 -3.369275e+11 -6.519347e+08
-7.171008e+10 7.916415e+10 9.307451e+07
-4.386254e+11 -4.372047e+10 -6.588054e+08
9.356548e+10 -6.471467e+10 -4.312837e+08
-3.914450e+09 6.681040e+11 -1.799614e+09
-1.440449e+09 -1.562254e+12 -3.019536e+09
3.169489e+10 -1.975862e+11 -2.311677e+09
-1.304272e+11 5.669605e+11 -1.488255e+08
2.899826e+10 -1.649511e+11 -4.456015e+08
1.871009e+11 2.083610e+10 3.535786e+09
4.564731e+10 -2.635354e+11 3.065634e+08
-1.134873e+11 -7.544311e+10 1.097655e+08
1.946025e+11 3.907260e+10 -1.040208e+09
4.102412e+10 1.234058e+11 -1.005346e-05
-1.557372e+11 2.620631e+10 -1.450907e-06
-1.690776e+10 5.801163e+11 1.088872e+09
-1.994339e+11 3.530117e+10 9.139601e+08
-1.318975e+11 7.346993e+10 3.065337e+08
2.606029e+11 -4.638409e+10 -5.157156e+08
-1.900829e+12 9.773406e+10 8.251345e+09
-2.368928e+11 -2.467314e+10 -2.613791e+09
-1.798069e+11 -2.256810e+10 -1.622001e+08
8.098807e+11 -6.225713e+11 8.473730e+09
2.541997e+10 2.422829e+11 2.561013e+09
7.713217e+10 -5.380013e+11 2.468144e+08
-2.955810e+10 2.560349e+11 -9.651903e+08
-1.433816e+10 5.535945e+11 3.081329e+08
-3.789072e+11 -2.138022e+10 1.284911e+09
-7.689665e+10 1.293676e+11 8.572923e+07
-3.464117e+10 1.281083e+11 8.395925e-06
1.199321e+11 3.675323e+10 -9.708715e+08
-7.321837e+10 1.036792e+11 -4.913280e+08
4.113756e+11 -4.866803e+10 -3.613218e+08
2.503355e+11 -3.553415e+10 -1.092204e+09
-3.416429e+10 -2.739659e+11 2.571238e+08
7.799031e+10 1.400472e+11 3.240076e+07
1.131701e+11 -2.929460e+11 1.924350e+08
-1.267924e+10 4.719424e+11 2.781258e+08
-2.787262e+11 2.757419e+11 5.809138e+08
-7.667485e+10 -8.052706e+10 3.437820e+08
-1.234582e+11 3.910943e+10 1.111108e+09
3.808217e+11 -1.807668e+10 -2.776147e+08
4.314557e+10 1.957194e+12 -1.491028e+09
4.238085e+11 7.665231e+10 -4.779332e+08
4.294844e+10 1.495035e+11 -5.255429e+08
1.214829e+11 -5.795002e+10 3.838589e-07
1.882508e+11 1.339821e+11 -3.867964e+08
-3.652971e+10 -1.252293e+11 1.251740e+09
-1.610408e+10 4.355186e+11 -1.632301e+08
-1.465690e+11 3.198205e+11 2.766077e+08
1.138355e+11 -1.469502e+11 2.478123e+08
-3.262600e+11 -4.592446e+10 4.766692e+08
1.737882e+12 -6.238516e+10 -1.056306e+10
1.801966e+12 -3.327258e+10 1.175039e+10
6.672805e+10 -1.086795e+11 6.436038e+08
4.402596e+10 -1.188647e+11 -5.576978e+08
-4.409134e+10 1.516953e+11 7.968016e+08
-1.451501e+11 -7.998008e+10 -5.323124e+08
-6.530644e+10 -1.157164e+11 6.513757e+08
-1.333747e+10 3.551851e+11 1.887828e+09
3.341399e+11 2.030135e+12 4.639928e+09
-1.312540e+11 -3.889562e+10 -4.825817e+08
1.914982e+12 5.395261e+11 5.109110e+09
2.419247e+11 2.010543e+10 -1.527787e+09
2.057225e+12 1.563042e+11 3.068571e+09
-3.511284e+11 -4.028974e+10 -8.343161e+08
1.742499e+12 3.351900e+10 8.524800e+09
1.751670e+12 -1.209195e+10 -5.254798e+09
-1.988451e+12 2.369167e+11 3.448559e+09
-2.457297e+10 1.679702e+12 1.038667e+10
-1.883447e+10 2.584044e+11 1.409138e+09
1.959719e+12 -7.698920e+11 -1.460972e+10
3.669963e+09 1.765347e+12 -2.328593e+09
1.401077e+11 4.631554e+10 -9.040818e+08
-1.172054e+11 -6.428715e+10 -7.103623e+08
-2.423142e+11 2.265298e+10 2.242403e+09
-1.768491e+12 3.560723e+10 3.840666e+09
3.306188e+11 -4.252629e+10 -7.723007e+08
-3.543346e+11 3.918399e+10 -1.405543e+08
-1.703748e+11 -3.559901e+11 5.059753e+08
-1.630175e+11 1.281643e+11 -2.565336e+08
-2.503590e+11 2.037011e+10 -5.520921e+08
-1.764872e+12 -4.231483e+08 3.367249e+09
3.410421e+11 4.349580e+10 3.815540e+08
5.890192e+11 -1.520248e+10 1.222704e+08
-3.923609e+10 2.870954e+11 3.119883e+08
-7.520885e+10 1.780573e+12 -2.431365e+09
-2.272465e+12 -2.779430e+11 -4.858270e+09
-1.798723e+12 -6.980665e+10 5.776822e+09
6.257453e+10 4.619649e+11 7.069816e+08
4.408163e+10 -3.239373e+11 9.126623e+08
5.362653e+11 -1.500287e+11 -4.690058e+08
-4.227922e+12 3.325499e+12 -3.874342e+09
-3.489846e+11 1.132836e+10 -4.416963e+08
5.083395e+10 -1.597076e+12 2.619184e+09
8.481735e+10 -7.645561e+10 -2.551227e-07
1.272930e+10 -1.671917e+12 8.384654e+08
-1.239133e+11 1.597350e+11 3.719893e+07
5.386041e+11 3.149241e+10 1.581395e+08
2.744898e+11 3.861766e+11 -4.763791e+08
2.273971e+11 2.557537e+11 -8.035601e+08
2.265126e+11 -3.517220e+10 1.622855e+09
-1.810371e+11 -1.493680e+11 3.564112e+08
-1.430036e+11 4.614668e+10 -9.408000e+08
-3.980077e+11 1.663450e+10 5.568266e+07
2.627246e+11 -2.165203e+12 2.480538e+09
1.284574e+12 1.471685e+12 -9.356106e+09
-1.230526e+12 -6.851908e+11 1.412181e+10
1.728205e+12 -1.719848e+11 9.037600e+09
-1.980769e+11 1.919830e+12 4.372982e+09
-4.263563e+11 2.971151e+11 -1.535455e+09
-4.142942e+10 -2.028163e+12 7.045839e+09
3.764949e+10 3.423509e+11 4.949074e+08
-1.488354e+11 -1.904458e+12 -1.482267e+10
4.187421e+11 1.295405e+10 9.009196e+08
-4.658270e+11 1.509166e+10 -6.996799e+08
2.063572e+12 6.808881e+10 -1.518706e+08
1.984749e+12 1.069140e+11 1.638318e+09
-6.584375e+10 1.929811e+12 2.417008e+09
-3.281322e+10 2.625303e+11 -5.467852e+08
-1.861540e+12 2.073079e+07 -5.426388e+09
-7.282148e+10 -8.378406e+10 1.551971e-06
-2.448718e+11 3.876677e+10 5.395013e+08
-2.057258e+12 1.161164e+11 -4.283538e+09
1.894734e+09 -1.842581e+12 -1.493857e+09
-1.769303e+12 -3.901653e+10 8.311080e+09
-5.391928e+11 1.706017e+10 9.067759e+07
-3.170922e+10 -2.141884e+11 7.142617e+08
1.515274e+11 6.032107e+11 -7.473738e+08
2.668438e+11 3.511525e+10 -7.163290e+08
6.872165e+10 1.915088e+12 6.888908e+09
7.493024e+09 1.850208e+12 1.015575e+10
-2.155694e+12 -4.542890e+11 8.338936e+08
3.088501e+11 -4.295658e+11 6.082313e+08
2.400541e+11 -2.584250e+11 -1.274153e+08
2.559771e+10 2.822254e+11 -2.819224e-06
1.422760e+11 -5.193897e+10 -2.227079e+08
-5.924417e+11 1.438290e+10 -4.941344e+07
-3.043709e+11 -1.439470e+11 2.300316e+06
-4.107150e+11 1.965058e+10 -3.320480e+08
-1.953970e+12 -4.968215e+10 -1.659343e+10
1.896390e+12 -1.481925e+10 4.144312e+09
1.149527e+11 2.813301e+11 -5.146142e+08
3.627741e+10 6.689664e+11 8.321682e+08
2.478395e+10 2.111974e+11 -5.984866e+09
1.006456e+11 7.920969e+10 1.852677e+08
-3.236519e+10 -1.819338e+12 -5.089391e+09
5.424130e+11 1.640361e+11 1.548672e+09
-6.528063e+11 1.781729e+10 1.418594e+09
2.842465e+10 2.046506e+12 -2.529936e+09
1.635963e+11 1.989414e+12 -1.570329e+10
3.388840e+10 2.766525e+11 7.564866e+08
-2.504302e+10 2.124990e+11 6.971608e+09
-2.549766e+11 -2.184000e+12 -4.633287e+09
3.974508e+11 2.807981e+10 -9.925899e+08
-4.816434e+10 -1.280502e+11 -1.148193e+09
2.085666e+11 -1.824381e+10 -5.169415e+09
8.237615e+10 8.120742e+10 -4.294656e-07
1.887684e+12 -4.798852e+10 -1.916138e+08
-7.423714e+11 1.173927e+10 -3.419939e+09
4.425325e+10 3.371081e+11 -8.010822e+07
-4.084972e+11 2.062895e+11 1.098914e+09
2.668177e+10 -1.779981e+11 6.019761e-06
-2.088092e+10 -1.848768e+11 -1.603706e-06
1.939838e+12 -1.277818e+11 8.329659e+09
2.604768e+11 1.591035e+10 1.650459e+09
-2.802978e+10 -3.837909e+11 5.248400e+08
-2.855753e+11 4.421040e+11 -1.054345e+09
-2.719217e+10 2.304563e+11 1.614794e+09
8.973484e+10 -1.152929e+11 -1.985043e+07
-6.815386e+11 8.634408e+09 -4.723185e+08
-2.281237e+11 1.735878e+10 -4.387619e+09
1.615799e+11 -5.318631e+11 -1.508364e+09
2.994351e+10 -2.257294e+11 -1.646886e+09
-2.217010e+11 -1.795195e+10 4.398230e+09
-1.145493e+11 7.714505e+10 -9.198168e+06
9.595896e+10 -6.955167e+10 -1.490180e+09
-3.503043e+11 3.856115e+10 -2.670197e+08
1.173589e+11 1.693259e+11 -1.067850e+08
-5.525084e+11 -3.692779e+11 1.221554e+09
-3.588084e+11 3.655825e+10 2.864691e+07
-7.546768e+11 1.185325e+10 2.264496e+08
-2.259297e+11 -3.029214e+10 5.145633e+08
1.211531e+11 -9.048699e+10 -5.619571e+07
-2.580943e+11 -2.350593e+11 5.779712e+08
2.961959e+11 -9.409169e+09 -2.716746e-06
7.858729e+10 5.780259e+10 -2.510189e+09
-3.009793e+11 1.310017e+11 -2.922944e+08
-2.262885e+10 -2.885402e+11 2.687484e+09
-8.470565e+10 7.494617e+10 3.568844e-07
-9.081336e+10 -3.188628e+11 -2.709174e+08
-2.786319e+11 -4.162748e+10 -9.601848e+08
-7.203138e+11 3.837428e+09 1.421402e+09
2.985231e+10 3.687731e+11 -4.531846e+08
7.588285e+10 1.228550e+11 -1.691589e+08
-4.135964e+11 -8.905706e+09 -1.113876e+09
-3.216232e+08 -4.432227e+11 -5.356011e+07
1.117541e+11 1.249200e+11 3.599981e+08
7.430469e+10 -8.437157e+10 -1.680377e-07
-9.313578e+10 8.933250e+10 2.327615e-06
-1.206538e+11 -9.061321e+10 2.145387e+08
-7.197157e+11 2.027691e+12 1.696555e+10
-3.108609e+10 3.652848e+11 -4.975530e+07
3.060043e+12 3.405972e+12 -1.708072e+10
-8.191628e+11 5.713543e+09 -8.028187e+08
9.085615e+10 2.003531e+11 1.646166e+08
-1.117327e+11 4.645279e+10 -4.707172e-07
-3.754868e+11 1.776093e+10 1.845381e+08
3.031738e+11 1.166187e+11 1.661405e+08
-7.340880e+10 -9.650748e+10 -4.144081e+08
-8.572771e+10 -5.391844e+11 3.900026e+07
3.598786e+11 3.963991e+10 -3.011662e+08
1.095714e+12 -1.638882e+12 -7.576650e+09
4.889744e+10 -1.145504e+11 1.090253e+09
-2.004519e+12 5.933553e+10 -1.169652e+10
-6.963911e+11 -1.105982e+10 7.932700e+08
-5.709656e+11 -5.082141e+09 -2.943080e+08
2.903300e+11 -3.423003e+10 2.442152e+09
-8.435040e+10 1.062617e+11 5.150786e+08
8.709174e+10 -8.460849e+11 4.937139e+08
-3.459763e+10 -2.888829e+11 2.925729e+09
1.373516e+11 -1.130953e+11 -3.393543e+08
-3.403506e+11 -3.368821e+11 9.935300e+08
8.106021e+10 -2.939928e+11 -2.562001e+07
-5.050110e+11 7.686189e+11 3.043519e+09
-9.001441e+10 -1.210359e+11 -3.720108e+07
-7.212126e+11 -1.174012e+10 4.309200e+08
-2.425750e+11 -9.227119e+10 -1.670604e+08
5.708049e+10 6.416787e+10 5.642613e-07
5.483910e+10 -1.063084e+11 -2.190806e+09
-4.945211e+10 6.654601e+11 -3.966131e+08
1.123719e+11 8.303009e+10 -8.782142e+07
-3.166360e+11 -4.493292e+11 -1.781610e+09
-4.155895e+10 3.277975e+11 -3.327172e+08
-5.782237e+10 6.229285e+10 -6.803591e-07
-1.275095e+11 -3.794918e+10 2.533330e+09
6.303888e+10 -4.947216e+10 -2.526776e-06
-7.362767e+11 -1.411331e+10 7.903873e+08
4.153685e+10 1.096978e+11 -1.163087e-07
-5.399167e+10 -6.904125e+10 -1.671737e+09
2.169617e+11 1.011310e+11 4.329040e+07
-3.477957e+11 6.275458e+10 -4.211951e+08
-9.643867e+10 -7.275691e+10 5.510259e+08
1.635257e+11 1.310119e+11 -9.497694e+08
-1.429441e+11 -4.035177e+10 1.771205e+09
9.594075e+10 -2.109062e+12 -2.291301e+09
-4.021882e+11 -2.215471e+12 2.789614e+10
-5.972306e+11 4.560170e+10 1.060436e+09
-6.542917e+11 -1.639757e+10 -7.546073e+08
-1.126181e+11 -1.363950e+11 -2.114870e+08