# vtk DataFile Version 2.0
Electric current density generated by TTH
ASCII
DATASET UNSTRUCTURED_GRID
POINTS 797 double
-5.000000e-06 -5.000000e-06 -7.500000e-08
-5.000000e-06 -3.839935e-06 -7.500000e-08
-5.000000e-06 -2.097811e-06 7.500000e-08
-5.000000e-06 -2.684992e-06 7.500000e-08
-5.000000e-06 -3.268782e-06 7.500000e-08
-5.000000e-06 -3.849200e-06 7.500000e-08
-5.000000e-06 -4.426267e-06 7.500000e-08
-4.409857e-06 -5.000000e-06 7.500000e-08
-3.812049e-06 -5.000000e-06 7.500000e-08
-3.206476e-06 -5.000000e-06 7.500000e-08
-2.593038e-06 -5.000000e-06 7.500000e-08
-1.971632e-06 -5.000000e-06 7.500000e-08
-5.000000e-06 -3.256429e-06 -7.500000e-08
-1.342154e-06 -5.000000e-06 7.500000e-08
-7.045003e-07 -5.000000e-06 7.500000e-08
-5.856422e-08 -5.000000e-06 7.500000e-08
5.902730e-07 -5.000000e-06 7.500000e-08
1.234361e-06 -5.000000e-06 7.500000e-08
1.873682e-06 -5.000000e-06 7.500000e-08
2.508270e-06 -5.000000e-06 7.500000e-08
3.138162e-06 -5.000000e-06 7.500000e-08
3.763391e-06 -5.000000e-06 7.500000e-08
4.383992e-06 -5.000000e-06 7.500000e-08
-5.000000e-06 -2.670596e-06 -7.500000e-08
5.000000e-06 -4.399522e-06 7.500000e-08
5.000000e-06 -3.800487e-06 7.500000e-08
5.000000e-06 -3.202891e-06 7.500000e-08
5.000000e-06 -2.606731e-06 7.500000e-08
5.000000e-06 -2.012004e-06 7.500000e-08
5.000000e-06 -1.418706e-06 7.500000e-08
5.000000e-06 -8.268334e-07 7.500000e-08
5.000000e-06 -2.363831e-07 7.500000e-08
5.000000e-06 3.525782e-07 7.500000e-08
5.000000e-06 9.397658e-07 7.500000e-08
-5.000000e-06 -2.082426e-06 -7.500000e-08
5.000000e-06 1.525154e-06 7.500000e-08
5.000000e-06 2.108748e-06 7.500000e-08
5.000000e-06 2.690554e-06 7.500000e-08
5.000000e-06 3.270576e-06 7.500000e-08
5.000000e-06 3.848821e-06 7.500000e-08
5.000000e-06 4.425294e-06 7.500000e-08
1.129168e-08 -2.258157e-08 -7.500000e-08
2.070928e-06 2.070801e-06 -7.500000e-08
-2.035536e-06 -1.972734e-06 -7.500000e-08
-2.071581e-06 2.071663e-06 -7.500000e-08
-5.000000e-06 -1.491909e-06 -7.500000e-08
2.070882e-06 -2.070659e-06 -7.500000e-08
-5.243514e-08 -2.876533e-06 -7.500000e-08
-2.814865e-06 -2.382632e-08 -7.500000e-08
8.340172e-10 2.827828e-06 -7.500000e-08
2.658965e-06 -4.480752e-09 -7.500000e-08
3.310802e-06 3.326126e-06 -7.500000e-08
-3.317828e-06 -3.224993e-06 -7.500000e-08
-3.312609e-06 3.227509e-06 -7.500000e-08
3.203020e-06 -3.262496e-06 -7.500000e-08
3.457020e-06 1.472997e-06 -7.500000e-08
-5.000000e-06 -8.990377e-07 -7.500000e-08
1.300584e-06 -3.332839e-06 -7.500000e-08
3.440819e-06 -1.455368e-06 -7.500000e-08
-1.433032e-06 -3.448782e-06 -7.500000e-08
1.453184e-06 3.572840e-06 -7.500000e-08
-1.416925e-06 3.439652e-06 -7.500000e-08
6.384047e-07 -1.431652e-06 -7.500000e-08
-3.506169e-06 -1.477717e-06 -7.500000e-08
1.271921e-06 7.293825e-07 -7.500000e-08
-7.645619e-07 1.394063e-06 -7.500000e-08
-3.482275e-06 1.465847e-06 -7.500000e-08
-5.000000e-06 -3.038004e-07 -7.500000e-08
-1.351865e-06 -7.749248e-07 -7.500000e-08
1.675099e-06 -5.121065e-07 -7.500000e-08
9.688300e-07 1.728183e-06 -7.500000e-08
-1.727329e-06 9.434214e-07 -7.500000e-08
-6.290479e-07 -1.693446e-06 -7.500000e-08
3.967882e-06 2.665411e-08 -7.500000e-08
3.881702e-06 2.482690e-06 -7.500000e-08
3.282274e-07 -3.893718e-06 -7.500000e-08
8.824668e-09 3.974029e-06 -7.500000e-08
-3.971766e-06 4.386360e-09 -7.500000e-08
-5.000000e-06 2.932717e-07 -7.500000e-08
2.408722e-06 3.939061e-06 -7.500000e-08
-2.328631e-06 3.828515e-06 -7.500000e-08
-3.939343e-06 -2.416195e-06 -7.500000e-08
-2.355316e-06 -3.838983e-06 -7.500000e-08
-3.932022e-06 2.394159e-06 -7.500000e-08
2.390641e-06 -3.945959e-06 -7.500000e-08
3.923355e-06 -2.392983e-06 -7.500000e-08
2.428560e-06 9.557103e-07 -7.500000e-08
1.059094e-06 -2.390931e-06 -7.500000e-08
-9.442837e-07 2.427859e-06 -7.500000e-08
-5.000000e-06 8.888367e-07 -7.500000e-08
-2.444488e-06 -1.040045e-06 -7.500000e-08
4.058578e-06 4.071378e-06 -7.500000e-08
-3.966462e-06 -3.981532e-06 -7.500000e-08
-3.964842e-06 3.982347e-06 -7.500000e-08
4.004411e-06 -4.003542e-06 -7.500000e-08
-6.249596e-07 -4.051596e-06 -7.500000e-08
2.506638e-06 -1.107117e-06 -7.500000e-08
2.886225e-07 9.880365e-07 -7.500000e-08
-1.151426e-06 -2.529622e-06 -7.500000e-08
-9.711195e-07 2.338287e-07 -7.500000e-08
-5.000000e-06 1.482324e-06 -7.500000e-08
2.926496e-06 2.305038e-06 -7.500000e-08
-2.319056e-06 -2.942258e-06 -7.500000e-08
-2.306587e-06 2.923980e-06 -7.500000e-08
2.255790e-06 2.963538e-06 -7.500000e-08
2.917322e-06 -2.306553e-06 -7.500000e-08
-3.017044e-06 -2.237880e-06 -7.500000e-08
2.240675e-06 -2.934790e-06 -7.500000e-08
-2.962182e-06 2.248357e-06 -7.500000e-08
-1.348238e-07 -8.259908e-07 -7.500000e-08
7.503170e-07 -5.227002e-07 -7.500000e-08
-5.000000e-06 5.000000e-06 -7.500000e-08
-5.000000e-06 2.073739e-06 -7.500000e-08
1.308868e-06 2.564268e-06 -7.500000e-08
4.135526e-06 -7.963309e-07 -7.500000e-08
-2.554357e-06 1.299197e-06 -7.500000e-08
-8.222387e-07 4.137716e-06 -7.500000e-08
8.588905e-07 4.154274e-06 -7.500000e-08
4.161812e-06 8.682887e-07 -7.500000e-08
-4.186414e-06 8.763463e-07 -7.500000e-08
-4.210422e-06 -8.953166e-07 -7.500000e-08
1.521371e-06 -1.443082e-06 -7.500000e-08
4.158491e-06 3.197841e-06 -7.500000e-08
-5.000000e-06 2.663090e-06 -7.500000e-08
1.188194e-06 -4.225046e-06 -7.500000e-08
-4.447759e-09 1.946221e-06 -7.500000e-08
-3.125607e-06 4.217364e-06 -7.500000e-08
-4.153206e-06 -3.191774e-06 -7.500000e-08
3.196169e-06 4.179036e-06 -7.500000e-08
3.204618e-06 -4.216960e-06 -7.500000e-08
-4.150499e-06 3.191652e-06 -7.500000e-08
-1.448148e-06 -1.507449e-06 -7.500000e-08
-3.143080e-06 -4.225082e-06 -7.500000e-08
4.191770e-06 -3.171523e-06 -7.500000e-08
-5.000000e-06 3.250385e-06 -7.500000e-08
-1.918179e-06 -3.487331e-08 -7.500000e-08
4.225340e-06 -1.749255e-06 -7.500000e-08
2.056105e-06 -4.599823e-09 -7.500000e-08
1.009239e-07 -2.046690e-06 -7.500000e-08
1.438701e-06 1.354432e-06 -7.500000e-08
-1.619526e-06 4.204077e-06 -7.500000e-08
-1.585517e-06 -4.316292e-06 -7.500000e-08
3.354483e-06 5.937926e-07 -7.500000e-08
3.338597e-06 -6.062821e-07 -7.500000e-08
-1.355079e-06 1.453529e-06 -7.500000e-08
-5.000000e-06 3.835630e-06 -7.500000e-08
1.754338e-06 4.139897e-06 -7.500000e-08
-5.888931e-07 3.346512e-06 -7.500000e-08
5.997474e-07 3.372318e-06 -7.500000e-08
4.249182e-06 1.685954e-06 -7.500000e-08
-4.106415e-06 1.633257e-06 -7.500000e-08
-3.364822e-06 5.945621e-07 -7.500000e-08
-3.362237e-06 -6.056368e-07 -7.500000e-08
-4.168055e-06 -1.636699e-06 -7.500000e-08
-7.453860e-07 -3.366716e-06 -7.500000e-08
8.234804e-07 2.711167e-07 -7.500000e-08
-5.000000e-06 4.418833e-06 -7.500000e-08
6.878205e-07 -3.109988e-06 -7.500000e-08
2.844247e-06 1.621541e-06 -7.500000e-08
-7.356602e-07 -5.023446e-07 -7.500000e-08
-1.608296e-06 2.838110e-06 -7.500000e-08
-4.258311e-07 7.550099e-07 -7.500000e-08
1.799499e-06 -4.339058e-06 -7.500000e-08
7.043415e-07 2.520990e-06 -7.500000e-08
2.291048e-06 -5.218552e-07 -7.500000e-08
-2.497310e-06 6.648903e-07 -7.500000e-08
8.762888e-07 1.149426e-06 -7.500000e-08
-4.410826e-06 5.000000e-06 -7.500000e-08
-5.211122e-07 -2.365001e-06 -7.500000e-08
-1.128436e-06 8.475049e-07 -7.500000e-08
-7.012742e-08 -4.415319e-06 -7.500000e-08
1.349198e-06 -2.087898e-08 -7.500000e-08
1.592820e-06 -2.804346e-06 -7.500000e-08
2.845319e-06 -1.639300e-06 -7.500000e-08
-2.591242e-06 -1.709194e-06 -7.500000e-08
-1.671015e-06 -2.878813e-06 -7.500000e-08
-9.250817e-07 -1.105911e-06 -7.500000e-08
-9.615583e-08 -3.463210e-06 -7.500000e-08
-3.821204e-06 5.000000e-06 -7.500000e-08
-1.061453e-06 -4.471577e-06 -7.500000e-08
6.519403e-07 -4.419646e-06 -7.500000e-08
4.414289e-06 4.414262e-06 -7.500000e-08
3.392355e-06 -2.037929e-06 -7.500000e-08
3.426362e-06 2.069389e-06 -7.500000e-08
-2.008201e-06 3.413162e-06 -7.500000e-08
-4.392862e-06 -4.393838e-06 -7.500000e-08
-2.924773e-07 2.400870e-06 -7.500000e-08
4.382649e-06 -2.551322e-07 -7.500000e-08
-4.415575e-06 4.421149e-06 -7.500000e-08
-3.231134e-06 5.000000e-06 -7.500000e-08
2.677744e-06 3.404792e-06 -7.500000e-08
-2.039432e-06 -3.416634e-06 -7.500000e-08
2.631436e-06 -3.381066e-06 -7.500000e-08
5.611689e-07 -2.545725e-06 -7.500000e-08
1.161374e-06 -9.861224e-07 -7.500000e-08
-3.413598e-06 -2.651945e-06 -7.500000e-08
4.557957e-06 -2.213650e-06 -7.500000e-08
4.396389e-06 3.524696e-07 -7.500000e-08
-3.397381e-06 2.651838e-06 -7.500000e-08
4.440327e-06 2.304719e-06 -7.500000e-08
-2.640615e-06 5.000000e-06 -7.500000e-08
-2.689757e-07 4.374749e-06 -7.500000e-08
3.388394e-06 2.702396e-06 -7.500000e-08
-2.345131e-06 4.503211e-06 -7.500000e-08
-2.848744e-06 4.566446e-06 -7.500000e-08
3.350592e-07 4.393798e-06 -7.500000e-08
-2.368895e-06 -4.509480e-06 -7.500000e-08
-2.872371e-06 -4.572986e-06 -7.500000e-08
1.926216e-06 -3.524115e-06 -7.500000e-08
2.363204e-06 4.509237e-06 -7.500000e-08
4.415741e-06 -4.415059e-06 -7.500000e-08
-2.049646e-06 5.000000e-06 -7.500000e-08
1.616755e-06 -2.061697e-06 -7.500000e-08
-2.081076e-06 -1.435532e-06 -7.500000e-08
-4.501350e-06 2.320406e-06 -7.500000e-08
-2.740230e-06 -3.415272e-06 -7.500000e-08
-2.310921e-06 -4.233867e-07 -7.500000e-08
4.460743e-06 3.594273e-06 -7.500000e-08
-2.726338e-06 3.414034e-06 -7.500000e-08
6.472504e-09 -1.393268e-06 -7.500000e-08
-4.381058e-06 2.913054e-07 -7.500000e-08
-4.414439e-06 -3.382086e-07 -7.500000e-08
5.000000e-06 5.000000e-06 -7.500000e-08
-1.458228e-06 5.000000e-06 -7.500000e-08
2.696546e-06 -4.419792e-06 -7.500000e-08
2.013365e-06 3.515073e-06 -7.500000e-08
2.381891e-06 3.856463e-07 -7.500000e-08
-4.411311e-06 -3.593192e-06 -7.500000e-08
3.321106e-06 -2.663821e-06 -7.500000e-08
3.596267e-06 4.481441e-06 -7.500000e-08
-4.512423e-06 -2.327747e-06 -7.500000e-08
-4.413606e-06 3.595029e-06 -7.500000e-08
-2.645642e-06 -4.244514e-06 -7.500000e-08
3.112050e-06 1.007562e-06 -7.500000e-08
-8.663604e-07 5.000000e-06 -7.500000e-08
-3.660433e-06 4.361989e-06 -7.500000e-08
-9.952811e-07 3.091729e-06 -7.500000e-08
-3.668349e-06 -4.362018e-06 -7.500000e-08
-2.617731e-06 4.233699e-06 -7.500000e-08
-3.474987e-06 2.013549e-06 -7.500000e-08
1.819205e-06 1.017899e-06 -7.500000e-08
[...]
POINT_DATA 797
VECTORS 10.000GHz_fone_imag double
-2.951344e-01 -3.000688e-01 -6.505911e-01
-1.950700e-01 -5.619794e-03 -3.793305e-01
1.751137e-01 3.684506e-03 -3.298012e-01
1.799776e-01 4.954344e-04 -3.391018e-01
1.847458e-01 3.262206e-03 -3.535888e-01
1.962287e-01 5.079087e-03 -3.798556e-01
2.155994e-01 1.684650e-02 -4.317285e-01
1.446741e-02 2.141897e-01 -4.315615e-01
5.155201e-03 1.947447e-01 -3.792742e-01
2.149636e-03 1.912543e-01 -3.539584e-01
2.687459e-03 1.813481e-01 -3.379777e-01
1.034647e-03 1.761860e-01 -3.284076e-01
-1.838493e-01 -3.432081e-03 -3.536389e-01
4.957311e-04 1.679954e-01 -3.197724e-01
2.655556e-04 1.685801e-01 -3.134210e-01
-4.279998e-04 1.708964e-01 -3.148579e-01
-1.369780e-03 1.706574e-01 -3.154035e-01
1.491962e-03 1.751164e-01 -3.193912e-01
-1.595769e-03 1.768188e-01 -3.255800e-01
2.145434e-03 1.805352e-01 -3.356894e-01
-3.667261e-03 1.761222e-01 -3.459661e-01
-6.696453e-03 1.939998e-01 -3.739174e-01
-1.112172e-02 2.187315e-01 -4.279802e-01
-1.796754e-01 -4.311018e-04 -3.392460e-01
-2.153966e-01 1.609557e-02 -4.300472e-01
-1.861667e-01 5.237491e-03 -3.759497e-01
-1.860732e-01 2.002220e-03 -3.493844e-01
-1.832955e-01 1.082823e-03 -3.368061e-01
-1.772872e-01 2.585714e-03 -3.303996e-01
-1.690127e-01 2.560312e-03 -3.232039e-01
-1.599233e-01 -2.630181e-04 -3.161035e-01
-1.700825e-01 -1.252834e-03 -3.165959e-01
-1.719528e-01 3.576330e-04 -3.172172e-01
-1.678780e-01 -1.446950e-03 -3.183138e-01
-1.753015e-01 -2.335714e-03 -3.284576e-01
-1.741797e-01 -1.640640e-04 -3.221203e-01
-1.673922e-01 -1.190073e-03 -3.272812e-01
-1.819679e-01 -4.091376e-03 -3.420844e-01
-1.903919e-01 -1.757171e-03 -3.574566e-01
-1.917263e-01 -5.371508e-03 -3.815589e-01
-2.214246e-01 -1.710665e-02 -4.354521e-01
-1.426606e-04 1.403468e-04 -7.226430e-02
4.732995e-04 4.774339e-04 -8.381756e-02
-4.554700e-04 -4.261427e-04 -8.298702e-02
-4.691897e-04 4.743258e-04 -8.381930e-02
-1.626623e-01 -1.367605e-03 -3.193301e-01
4.736144e-04 -4.696614e-04 -8.379574e-02
1.101018e-04 -9.715735e-04 -8.541662e-02
-9.168983e-04 1.191986e-04 -8.465946e-02
-1.168987e-04 9.446556e-04 -8.481440e-02
8.046682e-04 1.212523e-04 -8.291340e-02
1.445468e-03 1.478550e-03 -1.121666e-01
-1.438986e-03 -1.381324e-03 -1.104407e-01
-1.433469e-03 1.402802e-03 -1.103645e-01
1.352504e-03 -1.429502e-03 -1.089564e-01
1.632772e-03 2.681335e-04 -9.770179e-02
-1.661044e-01 -1.623007e-04 -3.183846e-01
2.138991e-04 -1.429474e-03 -9.451662e-02
1.616075e-03 -2.631183e-04 -9.726138e-02
-2.589592e-04 -1.619376e-03 -9.735635e-02
2.624379e-04 1.874958e-03 -1.002858e-01
-2.473717e-04 1.606566e-03 -9.710852e-02
2.207396e-05 -2.451742e-04 -7.533443e-02
-1.725263e-03 -2.687634e-04 -9.879527e-02
1.971147e-04 4.646375e-05 -7.492253e-02
-5.571475e-05 2.369747e-04 -7.540572e-02
-1.693572e-03 2.715892e-04 -9.821307e-02
-1.684854e-01 1.986520e-03 -3.177065e-01
-2.177524e-04 -5.555279e-05 -7.527442e-02
3.183182e-04 7.324932e-06 -7.618240e-02
1.133077e-04 3.412762e-04 -7.727021e-02
-3.353778e-04 1.075781e-04 -7.719760e-02
-1.969780e-05 -3.218544e-04 -7.644076e-02
3.120429e-03 -1.086734e-04 -1.101646e-01
2.793140e-03 7.086975e-04 -1.160437e-01
-3.166248e-05 -2.791212e-03 -1.074166e-01
-9.875695e-05 3.155543e-03 -1.103966e-01
-3.138930e-03 -9.573366e-05 -1.102840e-01
-1.698540e-01 -5.150954e-04 -3.162561e-01
6.635424e-04 3.046767e-03 -1.175217e-01
-6.142488e-04 2.593016e-03 -1.128423e-01
-3.032217e-03 -6.639368e-04 -1.176253e-01
-6.305445e-04 -2.629402e-03 -1.133948e-01
-3.007639e-03 6.508052e-04 -1.171296e-01
6.505753e-04 -3.052821e-03 -1.176514e-01
2.970719e-03 -6.433172e-04 -1.167964e-01
6.557379e-04 1.131365e-04 -8.184286e-02
1.397295e-04 -6.293162e-04 -8.177434e-02
-1.076312e-04 6.564156e-04 -8.180293e-02
-1.662868e-01 9.119919e-04 -3.169761e-01
-6.578664e-04 -1.322296e-04 -8.218670e-02
3.844090e-03 3.902031e-03 -1.587595e-01
-3.318464e-03 -3.391274e-03 -1.501556e-01
-3.328094e-03 3.424610e-03 -1.501636e-01
3.509599e-03 -3.476128e-03 -1.526548e-01
-3.956284e-05 -3.509297e-03 -1.142680e-01
7.000041e-04 -1.531249e-04 -8.290085e-02
-6.708370e-05 1.167300e-04 -7.357205e-02
-1.651989e-04 -7.074516e-04 -8.327121e-02
-1.093631e-04 -8.018264e-05 -7.348653e-02
-1.749929e-01 2.371248e-03 -3.218231e-01
1.026579e-03 5.929110e-04 -9.342921e-02
-5.976395e-04 -1.032824e-03 -9.375609e-02
-5.859205e-04 1.023196e-03 -9.339503e-02
5.626847e-04 1.070723e-03 -9.354322e-02
1.014997e-03 -5.854240e-04 -9.328893e-02
-1.115552e-03 -5.519557e-04 -9.414875e-02
5.562969e-04 -1.030112e-03 -9.302282e-02
-1.052491e-03 5.614996e-04 -9.347256e-02
1.126225e-04 -6.881941e-05 -7.311689e-02
5.039449e-05 9.234759e-06 -7.328578e-02
-2.624791e-01 2.456302e-01 -6.588678e-01
-1.760998e-01 -1.030710e-04 -3.262054e-01
2.135827e-04 7.473283e-04 -8.408471e-02
4.052294e-03 -9.977802e-05 -1.187302e-01
-7.255773e-04 2.114319e-04 -8.395352e-02
-9.522844e-05 4.047697e-03 -1.189241e-01
1.087007e-04 4.212216e-03 -1.198667e-01
4.231996e-03 1.059914e-04 -1.203914e-01
-4.446477e-03 1.260773e-04 -1.217529e-01
-4.587767e-03 -1.214323e-04 -1.231754e-01
2.757070e-04 -2.493641e-04 -7.779084e-02
4.438183e-03 1.378473e-03 -1.380497e-01
-1.750148e-01 6.924146e-04 -3.374531e-01
2.081209e-04 -4.754525e-03 -1.250164e-01
1.304759e-04 4.249004e-04 -7.729641e-02
-1.304386e-03 4.947345e-03 -1.405177e-01
-4.377363e-03 -1.374085e-03 -1.375474e-01
1.360993e-03 4.619872e-03 -1.391175e-01
1.390626e-03 -4.883155e-03 -1.415325e-01
-4.346131e-03 1.389322e-03 -1.373562e-01
-2.489934e-04 -2.668091e-04 -7.776417e-02
-1.330938e-03 -5.000575e-03 -1.412423e-01
4.676416e-03 -1.344609e-03 -1.394361e-01
-1.807202e-01 3.307033e-03 -3.534665e-01
-4.043302e-04 1.287751e-04 -7.713599e-02
4.838208e-03 -3.847651e-04 -1.274188e-01
4.670384e-04 1.298794e-04 -7.796033e-02
-1.111149e-04 -4.601833e-04 -7.793135e-02
2.491972e-04 2.245929e-04 -7.714894e-02
-3.477090e-04 4.604911e-03 -1.254463e-01
-3.686443e-04 -5.751475e-03 -1.328469e-01
1.465678e-03 2.617934e-05 -9.328938e-02
1.447758e-03 -3.243849e-05 -9.298925e-02
-2.200737e-04 2.554444e-04 -7.720292e-02
-1.893138e-01 7.751234e-03 -3.753937e-01
3.749975e-04 4.132724e-03 -1.223762e-01
-2.317410e-05 1.459147e-03 -9.312028e-02
3.186857e-05 1.504589e-03 -9.363776e-02
4.997995e-03 3.593443e-04 -1.286346e-01
-3.915573e-03 3.495953e-04 -1.200516e-01
-1.489754e-03 3.544120e-05 -9.347492e-02
-1.475103e-03 -2.590726e-05 -9.344069e-02
-4.312881e-03 -3.578899e-04 -1.233399e-01
-6.615369e-05 -1.481220e-03 -9.376177e-02
7.038224e-05 -7.557068e-05 -7.319050e-02
-2.237487e-01 1.559654e-02 -4.308623e-01
5.044961e-05 -1.214852e-03 -8.919567e-02
9.512532e-04 3.164657e-04 -8.832614e-02
-4.396100e-05 1.672616e-05 -7.323310e-02
-3.059277e-04 9.445951e-04 -8.817839e-02
3.356327e-05 5.407057e-05 -7.318420e-02
4.131299e-04 -6.042041e-03 -1.357833e-01
5.075586e-05 7.186838e-04 -8.217016e-02
5.786246e-04 -3.707525e-07 -7.993943e-02
-6.917961e-04 4.149985e-05 -8.188062e-02
8.619783e-05 1.624586e-04 -7.483098e-02
-1.209324e-02 2.247153e-01 -4.338971e-01
1.499710e-06 -6.121858e-04 -8.054698e-02
-1.531107e-04 7.990311e-05 -7.470333e-02
1.109000e-04 -7.107707e-03 -1.374913e-01
2.209576e-04 1.347606e-04 -7.452822e-02
3.046902e-04 -9.136058e-04 -8.770697e-02
9.495356e-04 -3.185415e-04 -8.838996e-02
-7.517740e-04 -3.303785e-04 -8.595719e-02
-3.239258e-04 -9.713652e-04 -8.898692e-02
-9.523366e-05 -1.446412e-04 -7.480898e-02
8.954521e-05 -1.652848e-03 -9.511542e-02
-7.183846e-03 1.961780e-01 -3.809862e-01
-2.243088e-04 -8.085992e-03 -1.445671e-01
4.767229e-05 -7.139976e-03 -1.385314e-01
8.144546e-03 7.994330e-03 -2.099436e-01
1.538754e-03 -4.636316e-04 -9.916376e-02
1.584306e-03 4.805846e-04 -1.000978e-01
-4.513146e-04 1.569039e-03 -9.944350e-02
-7.686686e-03 -7.722933e-03 -2.056442e-01
5.458888e-05 6.447252e-04 -8.061375e-02
6.568510e-03 5.165127e-05 -1.346698e-01
-8.263043e-03 8.346575e-03 -2.110073e-01
-2.311952e-03 1.909666e-01 -3.564403e-01
8.235595e-04 1.574343e-03 -1.046966e-01
-4.709344e-04 -1.573983e-03 -9.969399e-02
7.907912e-04 -1.514707e-03 -1.037041e-01
1.171726e-05 -7.226148e-04 -8.217893e-02
1.638896e-04 -1.141758e-04 -7.510733e-02
-1.578411e-03 -7.996476e-04 -1.046225e-01
1.077509e-02 -6.124848e-04 -1.617198e-01
6.781482e-03 -2.499997e-05 -1.360190e-01
-1.554025e-03 8.114628e-04 -1.042675e-01
7.744057e-03 7.052137e-04 -1.484551e-01
-3.416054e-03 1.818577e-01 -3.417332e-01
7.951427e-05 6.434806e-03 -1.339864e-01
1.532524e-03 8.456701e-04 -1.046506e-01
-7.236790e-04 9.152311e-03 -1.558835e-01
-1.140456e-03 1.131220e-02 -1.701973e-01
3.555681e-06 6.781573e-03 -1.356424e-01
-7.067716e-04 -9.336414e-03 -1.568032e-01
-1.134307e-03 -1.151808e-02 -1.714131e-01
4.203548e-04 -1.762938e-03 -1.013719e-01
7.353451e-04 9.289877e-03 -1.563879e-01
8.076072e-03 -7.979223e-03 -2.097225e-01
-1.695697e-03 1.737419e-01 -3.305941e-01
3.087352e-04 -4.659278e-04 -8.130487e-02
-4.744864e-04 -2.452840e-04 -8.069515e-02
-9.138004e-03 6.320095e-04 -1.551450e-01
-8.798068e-04 -1.584878e-03 -1.056170e-01
-5.837866e-04 2.694181e-05 -7.999818e-02
8.731628e-03 2.097854e-03 -1.711826e-01
-8.612900e-04 1.583499e-03 -1.054630e-01
-1.441101e-04 -2.331656e-04 -7.469689e-02
-6.566825e-03 -5.815269e-06 -1.345297e-01
-7.022071e-03 6.079191e-05 -1.375087e-01
2.785944e-01 2.614981e-01 -6.615530e-01
-1.255393e-03 1.653172e-01 -3.215239e-01
8.805576e-04 -7.450526e-03 -1.502881e-01
4.554012e-04 1.763205e-03 -1.016837e-01
6.282729e-04 -3.365541e-05 -8.053119e-02
-7.649517e-03 -2.091617e-03 -1.658113e-01
1.432769e-03 -8.132323e-04 -1.028702e-01
2.041748e-03 9.147098e-03 -1.735355e-01
-9.393366e-03 -6.874790e-04 -1.566244e-01
-7.691500e-03 2.148573e-03 -1.660123e-01
-8.456888e-04 -5.101594e-03 -1.357616e-01
1.223510e-03 1.333377e-04 -8.989078e-02
-3.211111e-04 1.667505e-01 -3.207597e-01
-2.262211e-03 6.890576e-03 -1.633497e-01
-1.262191e-04 1.198679e-03 -8.953279e-02
-2.274088e-03 -6.844104e-03 -1.634736e-01
-8.319125e-04 4.999504e-03 -1.347915e-01
-1.683014e-03 4.591093e-04 -1.007730e-01
3.715282e-04 1.265332e-04 -7.784916e-02
2.770699e-04 4.487679e-04 -8.053996e-02
3.740609e-05 -4.478902e-04 -7.830636e-02
-1.765779e-03 -4.500226e-04 -1.018152e-01
4.861569e-04 2.915946e-04 -8.129956e-02
1.617488e-03 1.690912e-01 -3.183548e-01
1.456065e-03 -1.129886e-04 -9.260066e-02
3.166305e-04 1.139505e-03 -9.083479e-02
4.870138e-04 -2.906817e-04 -8.134737e-02
-4.421698e-04 2.751868e-04 -8.052094e-02
-2.844006e-04 4.869479e-04 -8.129026e-02
1.023216e-04 2.434446e-04 -7.479050e-02
1.058741e-04 -2.238509e-03 -1.028299e-01
-1.261676e-04 3.866382e-04 -7.804339e-02
-1.375979e-04 -4.609706e-04 -7.935611e-02
2.297702e-03 -8.446320e-03 -1.721238e-01
-9.142620e-04 1.695359e-01 -3.147042e-01
-1.177006e-03 -1.721721e-04 -8.982142e-02
7.914532e-03 -2.353932e-03 -1.697229e-01
-9.868598e-04 -9.256518e-04 -9.780596e-02
-1.090348e-03 3.185190e-04 -9.044172e-02
-1.058370e-04 1.513259e-03 -9.328140e-02
9.033539e-03 2.398281e-04 -1.496278e-01
9.006899e-03 -2.713803e-04 -1.488792e-01
2.237353e-04 9.560728e-03 -1.515208e-01
1.176984e-03 -1.429594e-04 -8.940962e-02
6.484513e-04 6.820354e-04 -8.939553e-02
-7.567290e-05 1.671750e-01 -3.155056e-01
-2.685844e-04 8.533274e-03 -1.471420e-01
9.557807e-04 9.858286e-04 -9.807677e-02
-1.183564e-02 -3.101368e-04 -1.616671e-01
-1.148602e-02 3.039662e-04 -1.598225e-01
-6.827074e-04 -6.153294e-04 -8.908404e-02
6.560185e-04 -6.787207e-04 -8.958249e-02
-2.713240e-04 -4.037723e-05 -7.533643e-02
-5.389431e-04 -1.216380e-02 -1.656843e-01
2.750473e-03 1.844743e-03 -1.305439e-01
-9.806618e-04 -2.866179e-03 -1.203948e-01
1.283033e-03 1.684998e-01 -3.222427e-01
-1.497790e-03 1.143244e-04 -9.315708e-02
1.432179e-04 1.202066e-03 -8.950783e-02
-3.370120e-05 -1.011046e-04 -7.357893e-02
-6.756524e-04 6.532525e-04 -8.950900e-02
-5.139059e-04 1.122982e-02 -1.620534e-01
-3.985630e-04 -1.033631e-04 -7.811309e-02
-2.551787e-03 -1.772803e-03 -1.277928e-01
-9.624085e-04 9.284597e-04 -9.753007e-02
-1.162269e-03 1.368140e-04 -8.924758e-02
-2.552263e-03 1.791406e-03 -1.277693e-01
3.615036e-04 1.715800e-01 -3.292081e-01
-9.611293e-04 2.846239e-03 -1.199710e-01
-1.866017e-04 -2.801796e-03 -1.091184e-01
9.020365e-04 -9.603959e-04 -9.708387e-02
-1.695360e-04 -1.100394e-03 -8.882647e-02
1.872685e-05 -1.102263e-02 -1.569994e-01
1.840361e-03 -2.422675e-03 -1.274846e-01
1.010309e-02 -8.979949e-04 -1.637124e-01
3.926564e-04 -1.266115e-04 -7.815602e-02
-8.583767e-05 -3.387978e-05 -7.256359e-02
-3.414624e-05 2.883043e-04 -7.551523e-02
3.625141e-03 1.711906e-01 -3.353498e-01
-9.740879e-05 2.122493e-05 -7.259753e-02
-1.715241e-03 1.439253e-02 -1.892408e-01
-2.902252e-04 -5.492365e-04 -8.237783e-02
-1.726217e-03 -1.443602e-02 -1.900213e-01
-8.857727e-04 -9.263801e-03 -1.587378e-01
1.255026e-03 1.305687e-02 -1.778833e-01
1.313131e-02 1.252787e-03 -1.787610e-01
-1.263853e-02 1.208717e-03 -1.771290e-01
-1.280887e-02 -1.228536e-03 -1.776963e-01
9.488525e-04 -1.464694e-06 -8.527998e-02
2.581543e-03 1.885939e-01 -3.532939e-01
-8.893211e-04 9.028668e-03 -1.573980e-01
-2.291944e-04 9.273157e-05 -7.472969e-02
3.470172e-05 -9.899871e-05 -7.252679e-02
2.694765e-04 -2.661199e-03 -1.087471e-01
2.439002e-03 5.660241e-06 -1.040182e-01
-5.114598e-04 4.552681e-03 -1.273868e-01
3.790531e-04 7.045430e-04 -8.574462e-02
-5.317874e-04 -4.779689e-03 -1.291431e-01
1.434846e-04 -3.267771e-04 -7.744215e-02
3.027679e-03 -2.339724e-04 -1.114892e-01
4.128644e-03 1.969398e-01 -3.828057e-01
7.694190e-06 4.027910e-04 -7.729483e-02
1.122005e-03 2.539408e-03 -1.191373e-01
-6.887766e-04 3.782492e-04 -8.567909e-02
2.074792e-03 1.217224e-04 -1.012436e-01
1.541399e-04 -9.782385e-04 -8.689093e-02
1.362659e-05 2.482930e-03 -1.045021e-01
8.713604e-05 -3.058350e-03 -1.096884e-01
-5.586365e-05 -9.091944e-04 -8.519786e-02
6.962808e-06 2.552827e-03 -1.050814e-01
-2.165711e-04 2.922764e-03 -1.105654e-01
2.976967e-01 -2.728771e-01 -6.580418e-01
1.450037e-02 2.165628e-01 -4.353837e-01
2.750445e-05 4.574507e-05 -7.344891e-02
1.218801e-04 2.092675e-03 -1.011795e-01
2.185221e-05 -1.559743e-04 -7.416011e-02
2.561165e-03 6.593407e-06 -1.054104e-01
-2.520348e-03 1.073928e-03 -1.183299e-01
-1.943517e-05 1.156015e-04 -7.256862e-02
-9.879911e-04 -9.103474e-06 -8.601533e-02
1.365220e-05 1.013384e-03 -8.601460e-02
6.833071e-04 -1.075378e-02 -1.621755e-01
-2.548488e-03 9.416321e-06 -1.050855e-01
2.215466e-01 1.486760e-02 -4.324779e-01
1.711958e-04 2.764945e-05 -7.423875e-02
-2.558278e-03 6.805832e-06 -1.053898e-01
4.399507e-04 -6.744335e-04 -8.632244e-02
1.446042e-02 4.793464e-04 -1.740803e-01
-2.543681e-03 -1.065288e-03 -1.186028e-01
-1.522513e-03 -2.519765e-03 -1.245153e-01
-2.097356e-03 1.402943e-04 -1.013868e-01
-2.072784e-03 -1.248455e-04 -1.012582e-01
4.652271e-04 1.462046e-02 -1.739122e-01
-1.070638e-05 1.038885e-03 -8.629173e-02
1.932662e-01 5.932277e-03 -3.777961e-01
-1.246311e-03 -3.420367e-04 -9.281474e-02
-1.447292e-02 -5.455261e-04 -1.732084e-01
1.056297e-03 -2.615986e-03 -1.192617e-01
-1.478067e-02 4.921268e-04 -1.736415e-01
-1.520102e-03 2.464419e-03 -1.237252e-01
2.532524e-03 1.114331e-03 -1.191184e-01
6.894164e-04 -4.472357e-04 -8.664992e-02
-2.693503e-05 -1.589230e-03 -9.456467e-02
-4.525906e-04 -6.936272e-04 -8.685878e-02
3.917466e-04 -5.148389e-06 -7.721276e-02
1.905203e-01 2.294269e-03 -3.559579e-01
1.227992e-04 5.391462e-04 -8.013919e-02
1.537887e-02 -4.777030e-04 -1.757930e-01
-3.510581e-04 1.897003e-05 -7.663124e-02
4.535379e-03 9.529212e-04 -1.332561e-01
-1.010360e-03 -1.265340e-05 -8.611682e-02
1.868401e-03 3.043452e-03 -1.335829e-01
3.028516e-03 2.405566e-04 -1.118815e-01
3.607137e-06 4.735450e-04 -7.833608e-02
1.115062e-02 1.077513e-04 -1.576264e-01
1.020365e-03 -1.413166e-05 -8.618847e-02
1.827252e-01 2.994859e-03 -3.397576e-01
2.178217e-03 -1.267203e-03 -1.174532e-01
2.872058e-04 -1.390950e-02 -1.691371e-01
7.010850e-04 4.588454e-04 -8.690723e-02
2.440321e-03 -3.734521e-04 -1.078222e-01
9.312500e-04 4.867104e-03 -1.350320e-01
-5.185606e-04 1.180725e-04 -7.992876e-02
-4.866539e-03 -9.057602e-04 -1.350596e-01
1.936638e-03 -1.245736e-04 -9.953344e-02
1.017611e-04 1.131818e-02 -1.575584e-01
-4.535107e-04 7.021437e-04 -8.691276e-02
1.666788e-01 2.168922e-03 -3.279472e-01
-7.342018e-05 6.648184e-04 -8.086039e-02
-4.668751e-03 9.198329e-04 -1.339469e-01
-6.312131e-04 -8.603924e-05 -8.047737e-02
-8.812408e-05 1.131740e-02 -1.585228e-01
-3.643026e-04 2.535498e-03 -1.087595e-01
-9.981714e-04 -2.304040e-02 -2.045353e-01
-6.693119e-04 -1.899178e-02 -1.905379e-01
1.161497e-02 -1.027412e-04 -1.592018e-01
-1.155203e-02 -9.575878e-05 -1.594736e-01
-1.131259e-04 1.955756e-03 -9.977388e-02
1.727858e-01 -1.093635e-03 -3.247517e-01
-1.162103e-02 1.072351e-04 -1.590011e-01
7.194219e-07 1.655951e-02 -1.755826e-01
2.837179e-03 4.454835e-04 -1.128065e-01
8.681429e-05 5.838413e-05 -7.247633e-02
-1.012718e-03 2.269172e-02 -2.033395e-01
-7.436185e-04 1.822671e-02 -1.884575e-01
2.125036e-04 3.322811e-03 -1.138657e-01
-3.753713e-04 -2.605184e-03 -1.094441e-01
-4.561052e-04 -1.316325e-06 -7.817221e-02
-1.698350e-02 2.193897e-04 -1.770609e-01
1.668862e-01 1.387730e-03 -3.200477e-01
1.559929e-02 4.108722e-03 -2.152728e-01
9.612276e-05 1.004013e-04 -7.332685e-02
-2.265557e-02 -2.271252e-02 -3.115894e-01
4.094849e-03 1.552763e-02 -2.165238e-01
1.702542e-02 -8.293822e-05 -1.772195e-01
2.271663e-02 2.235367e-02 -3.118051e-01
3.271021e-03 -1.890077e-03 -1.357079e-01
1.561851e-04 -1.603178e-04 -7.230267e-02
-4.973009e-04 -4.927566e-04 -8.397224e-02
4.988900e-04 -4.935375e-04 -8.383520e-02
1.710042e-01 -1.101385e-03 -3.190208e-01
4.810465e-04 4.750307e-04 -8.304815e-02
-4.876419e-04 4.916563e-04 -8.360959e-02
1.369113e-04 -8.300635e-04 -8.443174e-02
-9.743248e-04 -1.293997e-04 -8.674162e-02
8.759833e-04 1.331405e-04 -8.490560e-02
1.340026e-04 8.297914e-04 -8.412428e-02
-1.427306e-03 -1.431882e-03 -1.124077e-01
1.299426e-03 -1.231966e-03 -1.095535e-01
1.247160e-03 1.402144e-03 -1.103342e-01
-1.232206e-03 1.405065e-03 -1.100313e-01
1.696404e-01 1.635568e-03 -3.177124e-01
3.176448e-04 -1.642996e-03 -9.741962e-02
-3.288689e-04 -1.600364e-03 -9.733110e-02
-1.658923e-03 -3.212455e-04 -9.771345e-02
-3.246451e-04 -2.111025e-04 -7.539491e-02
3.256625e-04 -2.054301e-04 -7.531450e-02
1.500938e-03 -2.946511e-04 -9.552664e-02
-1.595794e-03 3.010036e-04 -9.674950e-02
1.626492e-03 3.331064e-04 -9.754480e-02
2.190168e-04 3.207870e-04 -7.528787e-02
3.827594e-04 1.727488e-03 -9.971070e-02
-2.792583e-01 -2.563853e-01 -6.599552e-01
1.608500e-01 -7.133837e-04 -3.148198e-01
-3.010940e-04 2.483993e-04 -7.549988e-02
-3.476069e-04 2.051233e-03 -1.027623e-01
-1.630325e-04 -3.283412e-04 -7.502882e-02
3.912729e-04 1.998318e-04 -7.630175e-02
2.309861e-04 -4.652245e-04 -7.840138e-02
-2.432725e-04 4.402143e-04 -7.797918e-02
-6.172438e-04 2.418675e-04 -8.149065e-02
-1.043059e-04 -3.056492e-03 -1.103667e-01
-2.753163e-03 1.479438e-04 -1.075027e-01
-6.437458e-04 -2.980753e-03 -1.174218e-01
1.706710e-01 -1.935031e-03 -3.200236e-01
6.290138e-04 -2.509481e-03 -1.124022e-01
3.072116e-03 1.321943e-04 -1.103961e-01
-3.067819e-03 -6.553246e-04 -1.181425e-01
2.967395e-03 -6.387884e-04 -1.170915e-01
3.022838e-03 6.526439e-04 -1.176056e-01
-2.367557e-04 -5.589872e-04 -8.050465e-02
-3.253938e-03 6.622570e-04 -1.197816e-01
1.807539e-04 2.584852e-03 -1.058974e-01
-6.401249e-04 -2.536868e-04 -8.220668e-02
6.097467e-04 -2.585988e-04 -8.160109e-02
1.774697e-01 -2.532185e-03 -3.297897e-01
-3.445980e-03 -3.952566e-03 -1.562026e-01
3.451785e-03 3.363262e-03 -1.520555e-01
3.359827e-03 -3.908694e-03 -1.558721e-01
-3.500306e-03 -2.019454e-04 -1.143514e-01
2.585459e-04 7.194534e-04 -8.352533e-02
-3.436886e-03 3.508749e-03 -1.529107e-01
-1.859932e-04 2.807292e-03 -1.080413e-01
-6.782990e-04 3.125163e-03 -1.191409e-01
7.249130e-04 3.042682e-03 -1.190375e-01
-1.748270e-04 2.529583e-04 -7.354165e-02
1.808830e-01 5.777306e-04 -3.414619e-01
-9.459268e-04 -5.783900e-04 -9.366927e-02
5.884964e-04 -9.840249e-04 -9.426943e-02
7.049891e-04 2.475687e-04 -8.311103e-02
-4.594151e-04 1.494046e-04 -7.732169e-02
-5.737813e-04 -9.892287e-04 -9.434753e-02
1.013930e-03 6.036760e-04 -9.505364e-02
1.017465e-03 -5.478483e-04 -9.405325e-02
1.940400e-04 -2.278028e-04 -7.338331e-02