# vtk DataFile Version 2.0
Electric current density generated by TTH
ASCII
DATASET UNSTRUCTURED_GRID
POINTS 3207 double
3.037839e-05 -7.440560e-21 -2.896074e-22
2.964597e-05 6.630465e-06 -2.896074e-22
-2.281416e-05 2.005893e-05 -2.896074e-22
8.419290e-06 -2.749667e-05 1.097809e-06
-2.831275e-05 3.992216e-06 -1.017008e-06
-2.585260e-05 1.523920e-05 -8.577532e-07
-2.228145e-05 -1.703192e-05 2.728971e-07
2.230204e-05 -1.996763e-05 9.232395e-07
2.230204e-05 1.996763e-05 9.232395e-07
8.628952e-06 -2.875346e-05 8.476694e-07
-8.750241e-06 -2.701390e-05 -8.704552e-07
2.985797e-05 2.018413e-06 9.300545e-07
-6.608225e-06 -2.927558e-05 8.555637e-07
-2.329770e-05 1.949523e-05 -2.896074e-22
2.193646e-05 1.806313e-05 8.889076e-07
2.193646e-05 -1.806313e-05 8.889076e-07
2.589535e-05 -1.520331e-05 8.396657e-07
-2.833084e-05 -3.188952e-06 9.629056e-07
5.922735e-06 -2.941262e-05 -8.641719e-07
-2.727596e-05 -1.247619e-05 8.726007e-07
2.668471e-05 1.375740e-05 8.457249e-07
-1.085920e-05 -2.634165e-05 9.501458e-07
-1.230897e-05 -2.738550e-05 8.435004e-07
-2.831225e-05 2.787144e-06 -9.166695e-07
-2.376731e-05 1.891987e-05 -2.896074e-22
-2.928695e-05 -6.564168e-06 8.542054e-07
1.524499e-05 -2.591145e-05 -8.034538e-07
-2.806988e-05 -5.112038e-06 9.780939e-07
-6.635959e-06 -2.776448e-05 -9.880587e-07
1.546550e-05 -2.431391e-05 -1.119613e-06
1.539943e-05 2.434382e-05 -1.116118e-06
-2.840767e-05 -6.381116e-06 -1.179673e-06
-2.889106e-05 -8.011664e-06 8.839226e-07
2.789049e-05 -1.094847e-05 9.003457e-07
1.012740e-05 -2.824423e-05 8.623021e-07
-2.422272e-05 1.833321e-05 -2.896074e-22
1.955013e-05 -2.275391e-05 8.677830e-07
1.955013e-05 2.275391e-05 8.677830e-07
2.838665e-05 -4.560549e-06 -1.095350e-06
-1.589026e-05 -2.545063e-05 8.633341e-07
-2.848831e-05 -7.803971e-07 -9.551510e-07
-2.782981e-05 -6.028764e-06 9.374191e-07
2.302391e-05 -1.604863e-05 3.457962e-07
2.302391e-05 1.604863e-05 3.457962e-07
7.381471e-06 -2.905835e-05 8.840199e-07
2.080445e-05 2.162332e-05 8.608585e-07
-2.466365e-05 1.773559e-05 -2.896074e-22
2.080445e-05 -2.162332e-05 8.608585e-07
2.956833e-05 -4.911614e-06 8.908284e-07
-1.080305e-05 -2.684861e-05 -1.154486e-06
-2.983671e-05 3.665544e-06 -8.060946e-07
-1.440857e-05 2.460850e-05 9.676145e-07
-1.188945e-05 -2.631467e-05 1.138280e-06
2.537740e-05 1.595972e-05 8.862189e-07
1.646782e-05 2.506223e-05 8.775858e-07
1.639393e-05 -2.510830e-05 8.793379e-07
1.709776e-05 -2.302417e-05 -1.063073e-06
-2.508984e-05 1.712737e-05 -2.896074e-22
1.709776e-05 2.302417e-05 -1.063073e-06
1.098867e-05 2.627777e-05 9.431474e-07
6.615213e-06 2.777101e-05 9.890688e-07
1.248488e-05 -2.729956e-05 -8.489956e-07
2.892736e-05 -3.124211e-06 1.178142e-06
-1.660812e-05 2.322276e-05 9.906287e-07
-2.241388e-05 -1.995507e-05 8.578067e-07
-2.735575e-05 -8.021132e-06 9.612740e-07
1.129160e-05 2.786050e-05 8.053372e-07
9.071521e-06 2.707749e-05 9.946736e-07
-2.550103e-05 1.650891e-05 -2.896074e-22
2.457372e-05 -1.350788e-05 -2.558575e-07
2.717323e-05 -8.054382e-06 8.176023e-07
6.820960e-06 -2.798755e-05 1.116509e-06
5.800440e-06 -2.812311e-05 1.080192e-06
-1.351352e-05 -2.454611e-05 1.242794e-07
2.564135e-05 -1.340429e-05 1.152936e-06
2.916233e-05 1.029983e-06 -1.182311e-06
2.951688e-05 5.555877e-06 -8.329388e-07
2.707747e-05 1.287918e-05 -8.812100e-07
1.573529e-05 2.393945e-05 1.047664e-06
-2.589699e-05 1.588058e-05 -2.896074e-22
1.574141e-05 -2.385707e-05 1.010729e-06
2.540434e-05 -1.600923e-05 8.402273e-07
-1.740842e-05 -2.452353e-05 7.917433e-07
-8.223069e-06 -2.889774e-05 8.230213e-07
3.688286e-06 2.783264e-05 -3.790050e-07
-1.865040e-05 2.105053e-05 -4.990629e-07
2.649301e-05 -9.418814e-06 4.847463e-07
2.479013e-05 1.306632e-05 -1.477202e-07
-2.460834e-05 -1.373804e-05 6.105663e-07
2.762058e-05 8.134324e-06 -1.111792e-06
-2.627746e-05 1.524276e-05 -2.896074e-22
-3.712112e-07 3.001329e-05 -8.522615e-07
-1.144006e-05 2.774996e-05 -8.522630e-07
-1.850503e-05 2.194966e-05 1.077607e-06
1.411077e-05 2.541550e-05 -1.175676e-06
4.439180e-06 2.836448e-05 1.077816e-06
-2.848441e-05 -2.174326e-06 1.001412e-06
-2.492958e-05 -1.661160e-05 9.048496e-07
-6.259971e-06 -2.755003e-05 7.124153e-07
1.566153e-05 2.563640e-05 -8.262669e-07
2.528570e-05 1.621034e-05 -8.324694e-07
-2.664223e-05 1.459584e-05 -2.896074e-22
2.528570e-05 -1.621034e-05 -8.324694e-07
2.942064e-05 -5.953584e-06 8.509106e-07
3.712038e-06 -2.969961e-05 -9.264483e-07
-2.687254e-05 -1.070517e-05 1.151260e-06
-2.595276e-05 -1.130123e-05 7.791656e-07
-2.456631e-05 -1.486800e-05 -1.080240e-06
-3.636684e-06 -2.980664e-05 -8.404617e-07
1.964344e-05 2.106325e-05 -1.114662e-06
1.964344e-05 -2.106325e-05 -1.114662e-06
-2.839260e-05 1.035558e-06 -8.846817e-07
2.947503e-05 7.353202e-06 -2.896074e-22
-2.699107e-05 1.394019e-05 -2.896074e-22
-2.883432e-05 1.854596e-06 -1.143175e-06
-4.816752e-06 -2.846778e-05 -1.137274e-06
-2.622411e-05 1.204208e-05 1.132724e-06
-7.985801e-06 2.779127e-05 1.148755e-06
-2.383761e-05 1.621724e-05 1.124696e-06
-2.791283e-05 7.549937e-06 1.148755e-06
-3.564466e-06 2.869535e-05 1.148759e-06
4.840538e-06 -2.774282e-05 5.734608e-07
2.796681e-05 7.483751e-06 1.156714e-06
-1.592233e-06 2.867213e-05 -1.080747e-06
-2.732378e-05 1.327620e-05 -2.896074e-22
-9.741110e-06 2.701820e-05 -1.082637e-06
-2.462370e-05 1.478051e-05 -1.082007e-06
-2.535498e-05 1.348003e-05 -1.080436e-06
-2.813185e-05 5.803973e-06 -1.084271e-06
1.435933e-05 2.405744e-05 8.963546e-08
2.134277e-05 2.113583e-05 -8.308705e-07
2.134277e-05 -2.113583e-05 -8.308705e-07
2.904442e-05 -7.754859e-06 -8.051899e-07
-2.664725e-05 -9.750829e-06 8.511704e-07
-2.147588e-05 -1.929902e-05 1.137522e-06
-2.764017e-05 1.260428e-05 -2.896074e-22
2.539559e-05 -1.309065e-05 -1.003734e-06
-2.761157e-05 -5.645703e-06 -6.096347e-07
-1.881994e-05 2.097661e-05 6.077430e-07
3.496373e-06 2.796427e-05 6.082205e-07
-2.051238e-05 -2.194677e-05 8.277990e-07
-2.131134e-05 -1.819752e-05 -1.537979e-07
-2.731656e-05 -6.213472e-06 4.205740e-08
-9.166380e-07 -2.888640e-05 -1.145011e-06
-7.819020e-06 -2.781748e-05 -1.143592e-06
2.786099e-05 3.042972e-06 1.755511e-07
-2.794003e-05 1.192483e-05 -2.896074e-22
-1.255962e-06 -2.884558e-05 1.137419e-06
2.420062e-05 -1.582866e-05 -1.149129e-06
2.420062e-05 1.582866e-05 -1.149129e-06
2.946693e-05 -5.926121e-06 -8.104690e-07
-1.427791e-05 -2.512608e-05 -1.144628e-06
-1.836197e-05 -2.117327e-05 1.725505e-07
1.239569e-05 2.735887e-05 8.321510e-07
4.874268e-06 2.969489e-05 -7.712024e-07
-1.499592e-05 2.608688e-05 -7.739387e-07
-2.025949e-05 2.223769e-05 -7.823218e-07
-2.822319e-05 1.123825e-05 -2.896074e-22
1.203865e-05 2.621260e-05 1.129095e-06
-1.251575e-05 -2.731146e-05 -8.253945e-07
-2.480673e-05 -1.357338e-05 -7.445055e-07
-2.947857e-06 2.858963e-05 -1.091458e-06
-8.561045e-06 2.744339e-05 -1.094146e-06
-2.395297e-05 1.588502e-05 -1.091615e-06
-2.598568e-05 1.227809e-05 -1.091094e-06
-2.789458e-05 6.924601e-06 -1.091463e-06
-2.626899e-05 -1.221979e-05 1.161026e-06
-2.402628e-05 -1.623701e-05 -1.165773e-06
-2.848948e-05 1.054496e-05 -2.896074e-22
1.955620e-05 -2.282777e-05 -8.081115e-07
1.955620e-05 2.282777e-05 -8.081115e-07
1.874286e-05 2.083870e-05 1.815925e-07
1.874286e-05 -2.083870e-05 1.815925e-07
-2.800015e-05 -8.670327e-07 1.072256e-09
1.069769e-05 -2.812897e-05 -7.685977e-07
2.923383e-05 6.572078e-06 8.994824e-07
1.062407e-05 -2.653696e-05 1.012100e-06
9.616528e-06 2.845752e-05 8.296716e-07
2.848281e-05 9.828319e-06 -7.239978e-07
-2.873875e-05 9.845360e-06 -2.896074e-22
2.562295e-05 1.330194e-05 1.136590e-06
-2.885531e-05 8.342239e-06 -8.311230e-07
-2.763585e-05 1.177590e-05 -8.279119e-07
-2.437409e-05 1.754371e-05 -8.368802e-07
-4.226462e-06 2.974137e-05 -8.279112e-07
-7.790879e-06 2.901286e-05 -8.273679e-07
-2.888257e-05 -1.569871e-06 -1.150991e-06
2.727382e-05 -7.105860e-06 -6.120337e-07
-3.003691e-05 1.374024e-06 -7.981941e-07
-2.534343e-05 -1.196264e-05 -1.632242e-07
-2.897084e-05 9.139877e-06 -2.896074e-22
2.810238e-05 -5.848241e-06 1.075409e-06
-2.946172e-05 -5.440198e-06 9.026111e-07
2.894109e-05 8.294139e-06 -7.547952e-07
1.439901e-05 -2.403083e-05 4.689725e-08
2.984362e-05 -4.010829e-06 7.477535e-07
-6.381404e-06 2.851077e-05 1.182239e-06
-2.769815e-05 9.295113e-06 1.182239e-06
-2.517969e-05 1.481789e-05 1.182239e-06
-2.719653e-05 -7.251993e-06 -5.452826e-07
2.814760e-05 1.058467e-05 7.942053e-07
-2.918561e-05 8.428932e-06 -2.896074e-22
2.872513e-05 8.898863e-06 7.942053e-07
8.012576e-06 2.786197e-05 1.164548e-06
9.769326e-06 -2.671610e-05 -9.143406e-07
-2.322108e-05 -1.910953e-05 7.929196e-07
1.732715e-05 -2.457576e-05 7.964838e-07
1.732715e-05 2.457576e-05 7.964838e-07
9.845679e-06 2.845749e-05 -7.469821e-07
-9.598318e-06 2.632552e-05 -1.298196e-07
7.564747e-06 -2.737624e-05 8.763438e-07
2.175647e-06 -2.842457e-05 -9.614512e-07
-2.938294e-05 7.712949e-06 -2.896074e-22
2.633148e-05 -1.008937e-05 -6.345556e-07
-1.490872e-05 -2.614265e-05 -7.680441e-07
-1.353387e-05 2.454584e-05 1.946093e-07
-1.603554e-05 2.298188e-05 1.513816e-07
2.577683e-05 1.551077e-05 -7.810632e-07
6.768662e-06 2.719019e-05 1.233453e-07
2.619587e-05 1.060771e-05 7.252549e-07
-2.939297e-07 -2.801214e-05 1.616555e-08
-1.577154e-05 2.434486e-05 1.167233e-06
2.577632e-05 -1.551108e-05 -7.813733e-07
2.928646e-05 8.071543e-06 -2.896074e-22
-2.956271e-05 6.992356e-06 -2.896074e-22
8.323155e-06 -2.763703e-05 -1.134596e-06
1.337298e-05 2.697581e-05 -7.517510e-07
-1.984143e-05 1.989860e-05 -4.449472e-07
-2.038111e-05 1.932251e-05 -4.038538e-07
-2.794107e-05 -2.155105e-06 1.571670e-07
-8.680629e-06 2.723655e-05 1.013175e-06
-2.779760e-05 6.666213e-06 1.012776e-06
-2.705643e-06 2.845744e-05 1.012789e-06
-3.002496e-05 -1.188670e-06 -8.193588e-07
-1.557781e-05 2.413084e-05 -1.083349e-06
-2.972481e-05 6.267583e-06 -2.896074e-22
-1.021535e-05 -2.627591e-05 -6.242497e-07
-2.280581e-05 -1.964489e-05 -7.618065e-07
-2.632835e-05 -1.120636e-05 -1.029306e-06
-7.825291e-06 -2.793661e-05 1.167993e-06
-2.375521e-05 -1.852824e-05 -7.295511e-07
-2.750151e-05 -1.221607e-05 -7.708090e-07
-7.707920e-06 -2.696064e-05 2.524561e-07
[...]
POINT_DATA 3207
VECTORS 10.000GHz_fone_imag double
-1.848611e-05 -8.980592e-05 1.766432e-02
2.648368e-04 -1.162436e-04 1.789959e-02
3.313673e-04 3.931841e-04 1.735907e-02
-5.873165e-03 1.908117e-02 -8.704824e-03
-1.885111e-02 2.850487e-03 -1.135849e-02
-1.210230e-02 7.027813e-03 1.199589e-02
4.051385e-03 3.037878e-03 -2.320680e-02
-1.094143e-02 9.692465e-03 1.188692e-02
-1.093945e-02 -9.694674e-03 1.188612e-02
-3.844629e-03 1.308259e-02 1.234141e-02
-4.646842e-03 -1.503187e-02 -1.660296e-02
-1.515369e-02 -1.037870e-03 1.103297e-02
3.440187e-03 1.318595e-02 1.210199e-02
1.410341e-04 9.305755e-05 1.743089e-02
-1.300040e-02 -1.075060e-02 -1.512717e-02
-1.300853e-02 1.075599e-02 -1.513607e-02
-1.145431e-02 6.686417e-03 1.231025e-02
1.761188e-02 1.884728e-03 -1.337952e-02
2.829304e-03 -1.322283e-02 1.230939e-02
1.275483e-02 5.641744e-03 1.153977e-02
-1.258765e-02 -6.107290e-03 1.225556e-02
6.703232e-03 1.652222e-02 -1.367441e-02
5.243318e-03 1.227585e-02 1.199985e-02
-1.716127e-02 1.729451e-03 -1.479048e-02
-2.809612e-04 2.573083e-04 1.744564e-02
1.318475e-02 2.882847e-03 1.229157e-02
6.279098e-03 -1.055012e-02 1.352715e-02
1.753153e-02 3.363765e-03 -1.328033e-02
-4.177269e-03 -1.793083e-02 -1.246762e-02
1.069126e-02 -1.720056e-02 -7.363641e-03
1.047274e-02 1.689685e-02 -8.287322e-03
-2.007158e-02 -4.303876e-03 -2.054950e-03
1.397431e-02 4.197543e-03 1.143569e-02
-1.352017e-02 5.547356e-03 1.137689e-02
-4.656518e-03 1.266637e-02 1.240533e-02
-5.438704e-05 2.096140e-05 1.749216e-02
-9.248062e-03 1.030818e-02 1.207247e-02
-9.260687e-03 -1.029456e-02 1.214672e-02
1.922821e-02 -3.346637e-03 -9.237375e-03
6.637476e-03 1.181086e-02 1.219206e-02
-1.804023e-02 -3.475698e-04 -1.374642e-02
1.688865e-02 3.715887e-03 -1.412201e-02
-5.983757e-03 3.694456e-03 -2.263270e-02
-6.002066e-03 -3.632534e-03 -2.254163e-02
-3.652115e-03 1.331107e-02 1.235497e-02
-9.627056e-03 -9.987650e-03 1.252617e-02
-3.272974e-04 -1.594102e-04 1.760807e-02
-9.625855e-03 9.986385e-03 1.252404e-02
-1.399419e-02 2.320255e-03 1.169682e-02
-7.418946e-03 -1.891739e-02 -5.586088e-03
-1.269110e-02 1.419919e-03 1.318098e-02
9.242961e-03 -1.519136e-02 -1.360972e-02
8.104725e-03 1.858702e-02 -6.186398e-03
-1.180075e-02 -7.177274e-03 1.204247e-02
-7.788366e-03 -1.194166e-02 1.163891e-02
-7.705076e-03 1.212639e-02 1.153465e-02
1.147661e-02 -1.617470e-02 -1.015570e-02
2.436554e-04 -1.440460e-04 1.744153e-02
1.137463e-02 1.586643e-02 -1.026674e-02
-6.662300e-03 -1.594315e-02 -1.440798e-02
-4.326729e-03 -1.780958e-02 -1.265084e-02
5.774669e-03 -1.189515e-02 1.232800e-02
-2.051372e-02 2.417876e-03 -2.673479e-03
1.002030e-02 -1.495424e-02 -1.237687e-02
1.037271e-02 9.068738e-03 1.216443e-02
1.683634e-02 4.573008e-03 -1.430066e-02
-4.419414e-03 -1.121360e-02 1.354367e-02
-6.111126e-03 -1.745338e-02 -1.303595e-02
3.581187e-04 -2.306825e-04 1.759954e-02
4.764263e-03 -2.299214e-03 -2.326346e-02
-1.488764e-02 4.465855e-03 -1.671363e-02
-4.709638e-03 1.949602e-02 -7.944544e-03
-3.989902e-03 1.949686e-02 -9.863938e-03
1.059270e-03 2.249377e-03 -2.367801e-02
-1.807645e-02 9.576165e-03 -5.517261e-03
2.047314e-02 7.860691e-04 -1.609425e-03
1.343228e-02 2.487568e-03 1.260862e-02
1.315613e-02 6.146483e-03 1.150079e-02
-1.031630e-02 -1.590932e-02 -1.093969e-02
-1.125891e-04 1.171503e-04 1.761345e-02
-9.584534e-03 1.589647e-02 -1.141463e-02
-1.122064e-02 7.042275e-03 1.272953e-02
7.405708e-03 1.035103e-02 1.316004e-02
3.267029e-03 1.218153e-02 1.298733e-02
1.315147e-03 7.945228e-03 -2.222113e-02
-6.111567e-03 8.038723e-03 -2.122813e-02
-8.760584e-03 3.087477e-03 -2.117317e-02
2.267377e-03 1.047668e-03 -2.367500e-02
1.001854e-02 5.682483e-03 -2.031487e-02
1.926622e-02 5.779892e-03 -7.862738e-03
-2.756401e-05 -2.865176e-05 1.773774e-02
-2.649455e-05 1.387758e-02 1.204510e-02
-5.476287e-03 1.270177e-02 1.190567e-02
1.270869e-02 -1.480110e-02 -9.982403e-03
1.002357e-02 1.820026e-02 -3.318057e-03
-2.812426e-03 -1.925581e-02 -1.036603e-02
1.822387e-02 1.173199e-03 -1.228820e-02
1.239406e-02 8.139807e-03 1.130432e-02
3.091644e-03 1.328470e-02 -1.877645e-02
6.650022e-03 1.105429e-02 1.302009e-02
1.125592e-02 7.334883e-03 1.246427e-02
3.997652e-05 -2.572220e-05 1.766059e-02
1.131987e-02 -7.459883e-03 1.251098e-02
-1.314931e-02 2.574900e-03 1.280218e-02
1.823871e-03 -1.494404e-02 1.090308e-02
1.919729e-02 7.528826e-03 -5.393581e-03
1.350556e-02 5.872122e-03 -1.758751e-02
-1.636797e-02 -1.052283e-02 -9.278057e-03
-1.450345e-03 -1.355741e-02 1.228584e-02
1.335966e-02 1.487175e-02 -8.463242e-03
1.335935e-02 -1.487322e-02 -8.463138e-03
-1.669970e-02 4.010706e-04 -1.521489e-02
2.283364e-04 2.142735e-04 1.761666e-02
-1.320397e-04 1.498681e-04 1.770674e-02
-2.038341e-02 1.089921e-03 -5.955607e-03
-2.932951e-03 -1.986748e-02 -6.871665e-03
1.852866e-02 -8.222691e-03 -7.265795e-03
5.585494e-03 -1.952798e-02 -5.770324e-03
1.648899e-02 -1.147817e-02 -7.547192e-03
1.938357e-02 -5.693785e-03 -5.573017e-03
2.611861e-03 -2.018848e-02 -5.689899e-03
-1.088554e-03 1.018914e-02 -2.103136e-02
-1.950907e-02 -5.328057e-03 -5.532219e-03
-1.158591e-03 1.937042e-02 -9.794235e-03
-4.529125e-04 7.332002e-06 1.770845e-02
-6.312240e-03 1.842420e-02 -9.362484e-03
-1.669961e-02 1.008565e-02 -9.395679e-03
-1.677813e-02 9.358922e-03 -1.017936e-02
-1.900884e-02 3.780403e-03 -9.731034e-03
-1.062258e-03 -1.670554e-03 -2.388820e-02
9.855686e-03 9.447394e-03 1.235027e-02
9.852993e-03 -9.446540e-03 1.234790e-02
1.202012e-02 -3.163184e-03 1.337899e-02
1.522455e-02 5.261786e-03 -1.619121e-02
1.501930e-02 1.341139e-02 -6.976871e-03
-5.507263e-05 -3.220498e-05 1.759668e-02
1.596706e-02 -8.554312e-03 -1.254927e-02
-1.079454e-02 -1.784788e-03 -2.029053e-02
7.671144e-03 -8.990303e-03 -2.021533e-02
-1.427756e-03 -1.202250e-02 -1.995658e-02
8.765828e-03 9.549128e-03 1.263386e-02
-2.293113e-03 -1.986859e-03 -2.364334e-02
2.801866e-04 2.591677e-04 -2.354182e-02
-7.657245e-04 -2.044052e-02 -6.681850e-03
-5.318297e-03 -1.975146e-02 -6.472202e-03
-3.604415e-03 -2.718773e-04 -2.340605e-02
3.013395e-04 1.300161e-05 1.749160e-02
1.064096e-03 2.011574e-02 -6.369676e-03
1.658856e-02 -1.139878e-02 -6.417152e-03
1.723432e-02 1.091891e-02 -6.074308e-03
1.230671e-02 -2.381490e-03 1.308454e-02
-1.000237e-02 -1.782788e-02 -5.855686e-03
2.587705e-03 2.296824e-03 -2.354549e-02
-5.443673e-03 -1.184354e-02 1.303523e-02
1.712115e-03 1.218453e-02 1.360634e-02
-6.470073e-03 1.068001e-02 1.320011e-02
-8.307996e-03 9.103280e-03 1.338434e-02
-5.877105e-04 1.505289e-04 1.744193e-02
-8.666122e-03 -1.877229e-02 -6.926258e-03
-5.662691e-03 -1.213097e-02 1.268387e-02
-1.215016e-02 -7.024500e-03 -1.813576e-02
-2.128935e-03 1.955404e-02 -9.194515e-03
-5.789253e-03 1.884890e-02 -8.930507e-03
-1.623657e-02 1.091979e-02 -9.357592e-03
-1.806054e-02 7.806381e-03 -9.075510e-03
-1.889392e-02 4.947728e-03 -9.138826e-03
1.857775e-02 8.854766e-03 -5.301011e-03
-1.736059e-02 -1.143971e-02 -4.145825e-03
2.121362e-04 -4.478462e-04 1.762604e-02
8.157219e-03 -9.602162e-03 1.308997e-02
8.176338e-03 9.614787e-03 1.307680e-02
-2.143217e-03 -2.404817e-03 -2.350068e-02
-2.145064e-03 2.408207e-03 -2.350511e-02
4.813088e-04 -2.016384e-04 -2.398470e-02
4.190207e-03 -1.087536e-02 1.410035e-02
-1.421631e-02 -3.159595e-03 1.214408e-02
-6.445971e-03 1.732375e-02 -1.191158e-02
-5.094139e-03 -1.283856e-02 1.182969e-02
1.116122e-02 3.449109e-03 1.367084e-02
3.473304e-04 6.308044e-04 1.733585e-02
-1.802112e-02 -9.257296e-03 -7.545397e-03
-1.262852e-02 3.662184e-03 1.290296e-02
-1.187696e-02 4.991765e-03 1.319099e-02
-1.076256e-02 7.620900e-03 1.290276e-02
-1.786860e-03 1.295537e-02 1.290244e-02
-3.332313e-03 1.274722e-02 1.291822e-02
-2.065872e-02 -1.056908e-03 -4.957019e-03
1.195493e-02 -3.014249e-03 -1.997868e-02
-1.234816e-02 5.253355e-04 1.349123e-02
-2.541248e-03 -7.690424e-04 -2.363459e-02
-1.986032e-04 -7.702932e-06 1.742280e-02
-1.925237e-02 4.120355e-03 -9.611179e-03
1.414057e-02 2.310187e-03 1.203945e-02
1.136521e-02 3.748173e-03 1.352962e-02
-6.428426e-04 8.239754e-04 -2.397618e-02
-1.161105e-02 1.581621e-03 1.409863e-02
4.738612e-03 -1.996447e-02 -8.178184e-05
1.950358e-02 -6.290580e-03 -6.983467e-05
1.757131e-02 -1.047112e-02 -3.765930e-04
-9.842418e-03 -2.679707e-03 -2.110274e-02
-1.161069e-02 -4.592184e-03 1.337697e-02
-3.606676e-06 -4.165342e-05 1.762393e-02
-1.212477e-02 -3.945376e-03 1.297145e-02
-5.862760e-03 -1.989433e-02 -4.660472e-03
6.002239e-03 -1.624142e-02 -1.476532e-02
9.698176e-03 7.898866e-03 1.366828e-02
-7.257228e-03 1.003015e-02 1.340985e-02
-7.215886e-03 -1.009997e-02 1.342946e-02
4.033687e-03 1.121126e-02 1.352823e-02
-7.338339e-04 2.273126e-03 -2.356828e-02
-4.282218e-03 1.565691e-02 -1.569795e-02
1.639284e-03 -1.769454e-02 -1.347326e-02
5.119715e-05 -1.493399e-05 1.737538e-02
1.066543e-02 -4.046521e-03 -2.032436e-02
-5.996337e-03 -1.032962e-02 1.361216e-02
1.464199e-03 -2.987283e-03 -2.338187e-02
1.918897e-03 -2.400474e-03 -2.370066e-02
1.053880e-02 6.553272e-03 1.345923e-02
-6.155200e-04 -2.036097e-03 -2.351858e-02
-1.238871e-02 -5.323796e-03 -1.881551e-02
1.272600e-04 4.029491e-04 -2.386302e-02
1.111592e-02 -1.742046e-02 -4.368312e-03
1.097274e-02 -6.180620e-03 1.333475e-02
1.702980e-04 -7.361727e-05 1.771229e-02
2.730387e-05 1.159418e-04 1.746956e-02
6.082178e-03 -1.929044e-02 -6.524562e-03
5.572676e-03 1.071168e-02 1.333742e-02
-5.801897e-03 5.863785e-03 -2.246328e-02
-5.659525e-03 5.321920e-03 -2.236231e-02
2.394368e-03 1.704734e-04 -2.370926e-02
5.409754e-03 -1.783017e-02 -1.194833e-02
1.787848e-02 -4.391049e-03 -1.183158e-02
2.034591e-03 -1.841032e-02 -1.189216e-02
-1.246961e-02 -4.951037e-04 1.331608e-02
-1.085072e-02 1.649680e-02 -9.710148e-03
2.636947e-04 -4.849405e-04 1.750238e-02
-4.292958e-03 -1.069453e-02 -2.053838e-02
-9.318477e-03 -7.655593e-03 1.368809e-02
-1.746807e-02 -7.005734e-03 -1.155656e-02
5.565480e-03 1.979762e-02 -3.971819e-03
-8.860079e-03 -7.170576e-03 1.404251e-02
-1.098786e-02 -5.034844e-03 1.391902e-02
1.343863e-03 4.797863e-03 -2.344844e-02
5.100896e-03 1.866403e-02 -1.033023e-02
1.177358e-02 -1.329997e-03 1.381190e-02
2.186022e-03 -1.287039e-02 1.266659e-02
1.089091e-04 2.759716e-04 1.744089e-02
1.192643e-02 -4.571004e-03 1.284792e-02
1.189919e-02 -6.415300e-03 1.257891e-02
4.362118e-03 -1.967332e-02 -7.650102e-03
4.971498e-03 1.989643e-02 -5.193370e-03
6.357576e-03 -1.821245e-02 -1.029369e-02
1.905103e-02 -3.486633e-03 -1.033793e-02
1.167304e-03 -1.917898e-02 -1.051483e-02
1.736109e-02 -8.854870e-03 -9.534624e-03
5.879807e-03 -5.643463e-03 -2.210331e-02
5.876730e-03 5.644271e-03 -2.210175e-02
1.272279e-05 -4.397706e-05 1.755464e-02
-1.142346e-02 -1.066796e-03 -2.055520e-02
1.299872e-04 7.793839e-03 -2.225244e-02
3.656195e-04 7.953590e-03 -2.236730e-02
-7.559408e-03 -1.965783e-02 -1.769147e-03
5.599523e-03 1.068469e-02 1.343669e-02
-8.054710e-03 -9.020350e-03 1.381354e-02
6.705720e-03 -1.133410e-02 -1.926532e-02
7.099528e-03 1.076971e-02 -1.916691e-02
-1.364095e-03 1.284148e-02 1.309453e-02
2.056402e-02 1.046703e-03 -3.738771e-03
-1.595866e-04 2.204796e-05 1.744923e-02
1.093282e-02 -5.012653e-03 -1.974688e-02
1.143627e-02 -1.659069e-03 1.416714e-02
1.732642e-02 9.953970e-03 -8.048090e-03
1.742581e-02 -1.021360e-02 -8.053701e-03
-1.231315e-03 -3.704447e-03 -2.396018e-02
-1.472007e-03 -2.257637e-03 -2.388987e-02
-9.526684e-03 4.965709e-03 -2.054749e-02
-2.063856e-02 1.844239e-03 -1.035036e-03
-1.973065e-02 -5.982431e-03 -2.205642e-03
-1.824768e-02 -5.277724e-03 -1.110562e-02
-1.441138e-04 7.612873e-06 1.736981e-02
1.034452e-04 -1.249200e-02 1.314750e-02
1.709974e-03 1.282196e-02 1.278020e-02
-8.596616e-03 -5.404092e-03 1.470014e-02
9.130751e-03 -2.629724e-03 -2.162515e-02
1.591363e-02 -1.305655e-02 -3.034418e-03
-1.091436e-02 -4.036449e-03 1.357550e-02
1.307879e-03 -2.267518e-03 -2.356358e-02
1.563088e-02 1.268636e-02 -7.862849e-03
-1.435923e-03 -1.267705e-02 -1.915773e-02
4.937847e-03 1.167937e-02 1.299749e-02
-1.789823e-05 -3.206404e-04 1.724511e-02
-6.802707e-03 -1.286458e-02 -1.757957e-02
7.717282e-03 -9.434529e-03 1.361777e-02
-2.321520e-03 -1.205307e-02 1.368835e-02
6.290710e-03 -7.415181e-03 -2.131266e-02
6.264528e-03 7.405666e-03 -2.133954e-02
-7.606697e-03 -9.096239e-03 1.397351e-02
3.405197e-03 -2.019622e-02 -3.826837e-03
1.924639e-02 -7.640340e-03 -3.395088e-03
1.215996e-02 1.141520e-03 1.330543e-02
-9.674080e-04 -2.531391e-03 -2.348059e-02
1.201279e-04 8.958219e-05 1.739119e-02
1.316225e-02 1.526056e-02 2.212136e-03
1.316914e-02 -1.525876e-02 2.227338e-03
-1.395421e-02 -1.503861e-02 -6.648661e-03
-1.851818e-02 -1.720022e-03 -1.226616e-02
-1.862756e-02 6.781992e-04 -1.182002e-02
1.209045e-03 -1.276023e-02 1.319216e-02
1.260321e-02 -2.544918e-03 1.310257e-02
9.937692e-03 -7.779034e-03 1.322104e-02
-1.856629e-03 -3.178396e-03 -2.334079e-02
-1.917009e-03 2.682563e-03 -2.380963e-02
-1.270451e-05 -1.982104e-04 1.721949e-02
-1.714987e-02 6.689445e-03 -1.278820e-02
3.142229e-04 -8.080805e-03 -2.231800e-02
3.064872e-04 1.025063e-03 -2.368586e-02
1.103765e-02 4.811950e-03 1.355295e-02
-3.608543e-03 -1.206341e-02 1.361804e-02
8.246823e-03 1.003049e-03 -2.232370e-02
-3.142226e-03 -1.085017e-02 1.426940e-02
-1.569122e-03 2.007795e-02 -7.158137e-03
1.954396e-02 4.808624e-03 1.839521e-03
2.042534e-02 1.772520e-03 -5.493455e-04
2.999437e-04 -6.785847e-05 1.723718e-02
-6.842317e-03 -2.100732e-03 -2.269575e-02
-1.161565e-02 -1.129075e-02 -1.574146e-02
-1.161667e-02 1.129331e-02 -1.574583e-02
1.799365e-02 9.119378e-03 -7.323167e-03
-1.918083e-02 -7.074157e-03 -2.043724e-03
6.249595e-03 1.928686e-02 -6.691409e-03
-1.294071e-02 1.509564e-02 -7.957135e-03
-1.226705e-02 1.560650e-02 -8.047423e-03
3.351085e-03 1.950409e-02 -8.105634e-03
3.585052e-03 1.952461e-02 -8.547961e-03
1.031458e-04 3.168388e-04 1.751161e-02
1.045279e-04 1.273277e-04 1.764650e-02
-9.856623e-03 -5.829932e-03 1.448277e-02
-3.160254e-03 -1.073550e-02 1.440829e-02
-6.030198e-03 1.034382e-02 1.363696e-02
-3.970487e-03 8.154951e-03 -2.169664e-02
7.110197e-03 1.866637e-02 -8.172223e-03
6.708422e-03 -8.271078e-03 -2.073298e-02
6.679446e-03 9.264894e-03 -2.041924e-02
1.351805e-02 1.292354e-02 -1.145003e-02
1.351818e-02 -1.292263e-02 -1.144988e-02
2.794198e-03 1.992059e-02 -7.691286e-03
2.047078e-04 -1.104837e-04 1.749632e-02
7.956652e-03 1.160747e-03 -2.232989e-02
1.050805e-02 1.713391e-02 -7.970792e-03
3.742810e-03 1.195795e-02 1.353231e-02
8.435324e-03 1.772681e-02 -8.814963e-03
8.684313e-03 1.771966e-02 -8.627588e-03
1.347334e-02 -2.213716e-03 -1.845214e-02
-1.203832e-02 -5.858163e-03 1.269136e-02
-1.953186e-02 3.180379e-03 -8.636532e-03
7.313631e-03 -1.465542e-03 -2.241910e-02
-1.012463e-02 1.747859e-02 1.437497e-03
-2.917589e-04 4.208973e-04 1.723340e-02
-1.364329e-02 1.509360e-02 1.101906e-03
1.005643e-02 5.539992e-03 1.415344e-02
1.687643e-02 3.985718e-03 -1.456603e-02
3.082857e-03 1.229633e-02 1.320383e-02
2.029692e-02 -1.153907e-03 -6.843980e-03
7.046486e-03 1.872502e-02 -7.794527e-03
-1.957944e-02 -6.220713e-03 -3.124031e-03
-1.252354e-02 -1.645452e-02 -2.878234e-03
-1.242653e-02 1.663058e-02 -2.986078e-03
2.596591e-03 1.239026e-02 1.297734e-02
-9.540545e-05 1.223247e-05 1.742941e-02
-9.259174e-03 1.778061e-02 -8.383105e-03
-1.973824e-02 5.841837e-03 -2.125994e-03
3.618388e-03 -1.109180e-02 1.416845e-02
-5.243811e-03 1.097462e-02 1.333222e-02
-5.573559e-03 1.109511e-02 1.321583e-02
-8.355597e-03 8.183449e-03 1.364191e-02
-9.188471e-03 8.564172e-03 1.319316e-02
-7.936861e-03 9.904815e-03 1.310941e-02
-7.302523e-03 1.046205e-02 1.319804e-02
4.169008e-04 1.224014e-02 1.347732e-02
-3.063378e-04 8.293792e-05 1.730529e-02
1.235469e-02 -3.948637e-03 1.296402e-02
9.060135e-03 1.752422e-02 2.211957e-03
8.795532e-04 1.247760e-02 1.318671e-02
2.046156e-02 2.589034e-03 -1.604223e-03
-9.699605e-03 -1.343024e-02 9.411939e-03
-3.436568e-03 8.818134e-03 -2.174563e-02
1.161805e-02 1.664660e-02 -4.290408e-03
-5.615218e-03 6.592614e-03 -2.173966e-02
5.334065e-03 -1.043002e-02 1.406074e-02
-3.497110e-03 4.684686e-03 -2.337779e-02
-2.030161e-04 -7.335944e-05 1.746568e-02
-3.387518e-03 -4.892825e-03 -2.299788e-02
1.291670e-02 -3.657781e-03 1.271972e-02
1.108511e-02 -6.952986e-03 1.298981e-02
3.884530e-03 -1.318893e-02 1.241999e-02
4.911608e-03 1.933849e-02 -7.412751e-03
4.904023e-03 1.171498e-02 1.334411e-02
-1.981464e-04 -1.136081e-02 1.424119e-02
8.685675e-03 -7.251381e-03 1.388202e-02
-9.312234e-03 6.117142e-03 1.461000e-02
-1.206210e-02 -1.755489e-03 1.356792e-02
1.390773e-05 -2.647764e-04 1.759855e-02
1.138297e-02 -1.134351e-02 -1.571454e-02
1.138265e-02 1.134274e-02 -1.571368e-02
-1.125589e-02 1.653955e-02 -7.467033e-03
-8.973569e-03 7.538704e-03 1.393608e-02
-7.490887e-03 9.266229e-03 1.365570e-02
-6.533618e-03 1.041812e-02 1.392107e-02
4.357253e-03 -1.015452e-02 1.432227e-02
1.612285e-02 1.271802e-02 -3.432382e-03
1.612273e-02 -1.269417e-02 -3.423777e-03
2.006617e-02 -7.012658e-04 -1.847638e-03
6.395185e-04 4.252012e-04 1.762758e-02
6.266944e-03 -1.070105e-02 1.357740e-02
1.692255e-03 -1.188693e-02 1.377385e-02
1.526061e-02 -1.300836e-02 -7.100243e-03
1.526011e-02 1.301459e-02 -7.102168e-03
1.104482e-03 1.167403e-02 1.383295e-02
2.185984e-03 -1.247449e-03 -2.367193e-02
1.131164e-02 -4.719239e-03 1.355902e-02
1.156044e-02 -5.317202e-03 1.319073e-02
1.196738e-02 6.403570e-04 1.352231e-02
4.241201e-03 1.017880e-02 1.419163e-02
-2.966957e-04 8.330798e-07 1.755311e-02
-4.391388e-03 -1.392419e-02 -1.750745e-02
8.062527e-03 1.880655e-02 -2.076086e-03
-1.906252e-04 -2.037367e-05 -2.379942e-02
1.149025e-03 9.470624e-03 -2.130860e-02
-5.907719e-03 -4.033864e-03 -2.258593e-02
-3.759784e-04 -7.337227e-04 -2.380132e-02
8.506726e-03 9.347278e-04 1.564425e-02
1.122240e-02 2.389672e-03 1.407231e-02
-9.734932e-04 1.241052e-02 1.344402e-02
-3.965482e-03 1.182166e-02 1.333301e-02
2.407161e-04 -3.102376e-04 1.752566e-02
-1.106422e-02 5.811586e-03 1.341398e-02
-5.136867e-03 1.508721e-02 -1.664476e-02
-5.545400e-03 4.039952e-03 -2.286387e-02
-5.545352e-03 -4.032906e-03 -2.282297e-02
-1.493310e-04 2.027370e-02 1.378182e-03
-8.124920e-03 1.824374e-02 1.451432e-03
-6.783007e-03 1.193177e-03 -2.221565e-02
3.791577e-03 -4.239190e-04 -2.381727e-02
-6.510954e-04 -1.279452e-02 -1.937934e-02
-4.865038e-04 1.208606e-02 1.342763e-02
4.018824e-04 -4.310660e-04 1.747304e-02
2.425417e-04 2.560873e-04 1.768771e-02
9.533577e-03 -8.943980e-03 -1.948274e-02
-1.032583e-02 -1.594496e-03 -2.086901e-02
9.629328e-03 6.710801e-04 -2.149469e-02
3.410545e-03 2.030479e-03 -2.382038e-02
1.215769e-02 -1.598775e-02 -5.434288e-03
2.175207e-03 -6.593129e-03 -2.274646e-02
1.258050e-02 1.622183e-02 -3.674605e-03
-5.067691e-03 -3.611475e-03 -2.282367e-02
-1.050321e-02 1.053200e-03 1.446774e-02
-1.648843e-03 1.223692e-02 1.373369e-02
-4.124522e-04 4.457317e-04 1.737030e-02
7.507157e-04 9.983932e-05 -2.361271e-02
7.514281e-04 -9.941318e-05 -2.361619e-02
-4.805272e-04 9.359917e-03 -2.174652e-02
1.027414e-02 -1.822973e-02 -2.411160e-03
-3.276782e-03 4.294597e-03 -2.317200e-02
-3.318007e-03 -4.417501e-03 -2.323299e-02
-1.616039e-03 9.225948e-04 -2.361495e-02
-1.916438e-03 -1.340564e-03 -2.364211e-02
-8.070333e-03 -2.252665e-03 -2.185763e-02
4.840492e-04 -9.812128e-03 -2.144936e-02
-4.779366e-04 -6.554622e-06 1.762222e-02
3.554208e-03 1.010118e-02 -2.054893e-02
-1.724093e-02 -1.115413e-02 -4.610056e-03
-1.696168e-02 1.155402e-02 -4.747728e-03
1.821097e-02 9.524816e-03 3.234669e-04
3.959948e-03 1.176995e-02 1.311152e-02
1.137305e-03 1.396240e-03 -2.369988e-02
-1.052216e-02 4.935285e-03 1.397773e-02
3.053663e-03 2.016271e-02 -2.217573e-03
-4.614775e-03 -1.999092e-02 -4.527208e-03
1.884117e-03 1.190824e-02 1.363359e-02
-2.595002e-04 -3.188248e-04 1.748620e-02
-7.318677e-03 9.596254e-03 1.385089e-02
-7.152949e-03 -9.559385e-03 1.377071e-02
-1.774958e-02 1.044461e-02 -3.615047e-03
-7.652995e-03 -1.401773e-03 -2.223272e-02
-1.708607e-03 -9.207016e-04 -2.364158e-02
6.464596e-03 8.778259e-03 1.430195e-02
-4.275284e-03 -1.019254e-03 -2.348076e-02
-9.407810e-03 2.566284e-03 -2.157375e-02
-6.693290e-03 -1.964186e-02 -6.955319e-04
8.263113e-04 1.633242e-02 -1.542680e-02
-1.146626e-04 4.245670e-05 1.739288e-02
5.389932e-05 8.442272e-03 -2.220099e-02