# vtk DataFile Version 2.0
Electric current density generated by TTH
ASCII
DATASET UNSTRUCTURED_GRID
POINTS 5279 double
3.543518e-05 -8.679115e-21 -2.075130e-22
3.511295e-05 4.767863e-06 -2.075130e-22
3.051617e-06 3.530353e-05 -2.075130e-22
-3.338707e-05 5.682222e-06 4.452837e-07
3.362743e-05 -2.765378e-06 2.017338e-08
3.362743e-05 2.765378e-06 2.017338e-08
3.407822e-05 8.942067e-07 -6.854285e-07
3.407822e-05 -8.942067e-07 -6.854285e-07
1.187083e-05 -3.277267e-05 -8.035976e-07
1.282415e-05 -3.241349e-05 -8.029806e-07
9.239999e-06 -3.256988e-05 4.253305e-07
1.492229e-05 3.038280e-05 -4.153702e-07
1.678643e-05 -3.055803e-05 -8.006077e-07
2.521894e-06 3.534532e-05 -2.075130e-22
3.292237e-05 -7.591990e-06 2.744727e-07
3.292237e-05 7.591990e-06 2.744727e-07
3.476355e-05 -2.504427e-06 -8.044931e-07
3.476355e-05 2.504427e-06 -8.044931e-07
1.626837e-05 3.097507e-05 -7.471793e-07
9.970938e-06 -3.307636e-05 -8.462253e-07
3.326844e-05 -5.708312e-06 -1.529061e-07
3.326844e-05 5.708312e-06 -1.529061e-07
2.317957e-05 2.607903e-05 -7.910358e-07
-1.281340e-05 -3.241774e-05 -8.029801e-07
1.991603e-06 3.537916e-05 -2.075130e-22
2.252182e-05 -2.667588e-05 -7.828877e-07
2.045173e-05 2.810023e-05 -8.306413e-07
2.204265e-05 -2.557204e-05 -1.845146e-07
2.788502e-05 -1.907110e-05 -2.639172e-07
2.788502e-05 1.907110e-05 -2.639172e-07
-8.311690e-06 -3.389463e-05 7.881247e-07
1.420990e-05 -3.082397e-05 -5.478777e-07
3.835104e-06 -3.470885e-05 7.794167e-07
1.131621e-06 -3.490174e-05 7.794167e-07
-5.558965e-06 -3.447486e-05 7.793821e-07
1.460865e-06 3.540505e-05 -2.075130e-22
2.829404e-05 -2.046522e-05 -7.796259e-07
2.829404e-05 2.046522e-05 -7.796259e-07
-9.705206e-06 -3.231789e-05 7.110017e-08
3.343207e-05 4.792713e-06 2.346734e-07
3.343207e-05 -4.792713e-06 2.346734e-07
2.866278e-05 -1.821557e-05 5.700747e-07
2.866278e-05 1.821557e-05 5.700747e-07
-3.090569e-05 -1.634527e-05 -7.602755e-07
-3.467428e-05 -4.474764e-06 -7.602755e-07
-3.362022e-05 -9.539076e-06 -7.672516e-07
9.297981e-07 3.542298e-05 -2.075130e-22
-2.501212e-05 2.433225e-05 -7.896154e-07
-3.278816e-05 1.209338e-05 -7.672516e-07
-2.232499e-05 2.681901e-05 -7.896154e-07
-1.939209e-05 2.901054e-05 -7.896154e-07
-2.776490e-05 -2.124711e-05 -7.602755e-07
-2.741509e-05 2.159501e-05 -7.881172e-07
-1.147893e-05 3.302368e-05 -7.602755e-07
-1.809563e-05 2.985009e-05 -7.849739e-07
-3.489013e-05 -7.811523e-07 -7.881172e-07
-4.283289e-06 3.463117e-05 -7.896154e-07
3.985222e-07 3.543293e-05 -2.075130e-22
-5.813243e-06 3.441926e-05 -7.849739e-07
3.027913e-06 3.476343e-05 -7.896153e-07
1.487390e-06 3.487502e-05 -7.849738e-07
8.675628e-06 3.382891e-05 -7.778866e-07
-1.180824e-05 3.161341e-05 1.009665e-07
-3.336131e-05 -5.085823e-06 1.009665e-07
2.663427e-05 2.162968e-05 8.006077e-07
2.663427e-05 -2.162968e-05 8.006077e-07
2.415989e-05 2.358112e-05 -1.819575e-07
8.949458e-06 -3.382213e-05 7.478303e-07
-1.328432e-07 3.543493e-05 -2.075130e-22
1.404830e-05 3.068779e-05 1.283846e-07
3.132926e-05 1.401534e-05 -8.041878e-07
3.132926e-05 -1.401534e-05 -8.041878e-07
-1.699721e-06 -3.425779e-05 -7.967820e-07
-1.976146e-05 -2.736587e-05 1.554772e-07
1.206864e-05 -3.154627e-05 2.420507e-07
1.564630e-05 2.991732e-05 1.874776e-07
-2.925792e-05 1.896501e-05 8.000100e-07
-3.369720e-05 8.954942e-06 8.000346e-07
2.760845e-05 2.001491e-05 -6.927573e-07
-6.641788e-07 3.542895e-05 -2.075130e-22
2.760845e-05 -2.001491e-05 -6.927573e-07
1.402146e-05 -3.203857e-05 7.549665e-07
6.527660e-06 -3.332301e-05 5.647044e-07
-3.443294e-05 -5.566080e-06 7.953343e-07
-3.251694e-05 -1.261971e-05 7.953343e-07
-1.249772e-05 3.256403e-05 7.953343e-07
-2.049030e-05 -2.833630e-05 7.569390e-07
6.546502e-06 -3.432191e-05 7.703178e-07
3.335293e-05 6.189787e-06 5.243135e-07
3.335293e-05 -6.189787e-06 5.243135e-07
-1.195365e-06 3.541501e-05 -2.075130e-22
1.744715e-05 3.026278e-05 7.742662e-07
3.196696e-05 1.088897e-05 2.232456e-07
3.196696e-05 -1.088897e-05 2.232456e-07
-2.710062e-05 -2.197310e-05 7.918410e-07
-3.485934e-05 2.382052e-06 7.703338e-07
-3.241118e-05 1.306015e-05 7.689902e-07
-3.388500e-05 -8.535755e-06 7.689902e-07
-1.528828e-05 3.141841e-05 7.703338e-07
-3.136215e-05 -1.540999e-05 7.689902e-07
9.647090e-06 3.352903e-05 7.918343e-07
-1.726282e-06 3.539310e-05 -2.075130e-22
-1.460212e-05 -3.045381e-05 2.338055e-07
-2.404890e-05 -2.367452e-05 9.974371e-08
1.727978e-05 -2.899404e-05 -1.420858e-07
3.316362e-05 -1.107873e-05 7.586163e-07
3.316362e-05 1.107873e-05 7.586163e-07
2.578690e-05 -2.361591e-05 -7.578193e-07
1.119983e-05 3.310535e-05 -7.666689e-07
-2.337569e-05 -2.606595e-05 -7.333360e-07
2.001440e-05 -2.775497e-05 7.625083e-07
-2.908871e-06 -3.363636e-05 1.883366e-07
3.503751e-05 5.293849e-06 -2.075130e-22
-2.256812e-06 3.536324e-05 -2.075130e-22
-1.320695e-06 -3.373671e-05 1.911549e-07
-3.424000e-05 -7.026292e-06 -7.643165e-07
-3.472420e-05 3.921895e-06 -7.683308e-07
-3.202393e-05 -1.400766e-05 -7.643165e-07
-3.180900e-05 1.448910e-05 -7.643165e-07
-1.388554e-05 3.206779e-05 -7.683308e-07
-2.610688e-05 -2.324172e-05 -7.643165e-07
-3.413094e-05 7.538636e-06 -7.642804e-07
-3.011759e-05 1.773930e-05 -7.642804e-07
-2.052467e-05 -2.678212e-05 5.221634e-08
-2.786834e-06 3.532542e-05 -2.075130e-22
-3.480700e-05 1.164192e-06 -8.129667e-07
-3.330711e-05 1.017442e-05 -8.129667e-07
-1.631844e-05 3.076672e-05 -8.129667e-07
-2.851790e-05 1.999030e-05 -8.129667e-07
-3.290934e-05 -1.139552e-05 -8.129667e-07
-8.381426e-06 -3.284352e-05 -4.890366e-07
1.252583e-05 -3.263772e-05 7.617601e-07
2.346275e-05 2.433144e-05 -3.143593e-07
1.592506e-05 -3.118490e-05 -7.312706e-07
-2.726265e-06 3.430525e-05 8.290644e-07
-3.316229e-06 3.527966e-05 -2.075130e-22
4.482818e-06 3.412018e-05 8.290638e-07
-2.832473e-06 -3.399666e-05 -7.025808e-07
6.318393e-06 -3.352589e-05 -7.036777e-07
-1.364505e-05 -3.094089e-05 3.492962e-07
-2.963231e-05 -1.745559e-05 8.241348e-07
-1.952024e-05 2.831487e-05 8.241348e-07
-2.237954e-05 2.611374e-05 8.241348e-07
-2.499248e-05 2.362514e-05 8.241348e-07
-3.439048e-05 -2.578589e-07 8.241348e-07
-1.482319e-05 -3.072306e-05 -7.009675e-07
-3.844878e-06 3.522596e-05 -2.075130e-22
-1.773554e-05 3.017128e-05 7.414284e-07
-2.806876e-05 -2.090455e-05 7.414284e-07
-6.295701e-06 3.442701e-05 7.414284e-07
1.017141e-06 3.498315e-05 7.414284e-07
8.285288e-06 3.400309e-05 7.414201e-07
2.943095e-05 -1.884928e-05 7.661534e-07
2.943095e-05 1.884928e-05 7.661534e-07
-3.969701e-06 -3.357288e-05 3.279747e-07
5.102723e-06 -3.341892e-05 3.267407e-07
-3.307793e-07 -3.381214e-05 3.441679e-07
-4.372663e-06 3.516435e-05 -2.075130e-22
3.384290e-05 -8.780899e-06 -7.594520e-07
3.384290e-05 8.780899e-06 -7.594520e-07
2.451943e-05 2.371284e-05 6.996509e-07
2.958193e-06 3.379332e-05 -5.244703e-07
-4.149307e-06 3.366783e-05 -5.244704e-07
-1.886389e-05 2.819385e-05 -5.244704e-07
-2.432532e-05 2.364357e-05 -5.244704e-07
-2.171412e-05 2.606216e-05 -5.244704e-07
-3.391478e-05 -7.260016e-07 -5.244704e-07
-2.666873e-05 2.096470e-05 -5.244704e-07
-4.899464e-06 3.509483e-05 -2.075130e-22
3.497792e-05 1.837498e-06 7.251038e-07
3.497792e-05 -1.837498e-06 7.251038e-07
3.032378e-05 1.745130e-05 7.474490e-07
3.032378e-05 -1.745130e-05 7.474490e-07
1.708010e-05 3.054069e-05 -7.444944e-07
3.276752e-05 -8.795308e-06 -5.305492e-07
3.276752e-05 8.795308e-06 -5.305492e-07
1.638131e-05 -2.961445e-05 -4.039662e-07
-1.207004e-05 -3.152839e-05 -1.789519e-07
-3.388200e-05 -2.780777e-06 -6.060679e-07
-5.425164e-06 3.501741e-05 -2.075130e-22
-2.014246e-05 2.738619e-05 -6.060679e-07
-2.290104e-05 2.512499e-05 -6.060679e-07
-2.792808e-05 -1.938414e-05 -6.060679e-07
-2.540750e-05 2.258719e-05 -6.060679e-07
-7.228880e-06 3.321845e-05 -6.060679e-07
-1.474134e-07 3.399560e-05 -6.060680e-07
6.940625e-06 3.327999e-05 -6.061794e-07
-2.452039e-05 -2.502540e-05 -7.190730e-07
1.747759e-05 -3.034222e-05 7.311772e-07
-2.976388e-06 -3.486281e-05 7.459580e-07
-5.949644e-06 3.493213e-05 -2.075130e-22
-1.548538e-06 -3.493245e-05 7.578299e-07
-2.189451e-05 -2.588705e-05 -5.005935e-07
-3.145261e-05 1.547449e-05 7.080587e-07
-3.472201e-05 5.043742e-06 6.850709e-07
-1.118886e-05 -3.195614e-05 -4.306500e-07
1.223945e-05 3.282668e-05 7.201805e-07
-3.199106e-05 -1.107530e-05 4.231784e-07
-2.316850e-05 -2.467392e-05 -4.098679e-07
-2.285589e-05 -2.491594e-05 3.382972e-07
-2.772349e-05 1.943060e-05 4.244466e-07
-6.472786e-06 3.483898e-05 -2.075130e-22
-3.237763e-05 9.888359e-06 4.231874e-07
1.885687e-05 2.802641e-05 -2.537632e-07
1.649000e-05 2.965557e-05 -5.361022e-07
3.040671e-05 -1.714410e-05 -7.849227e-07
3.040671e-05 1.714410e-05 -7.849227e-07
8.116890e-06 -3.407386e-05 7.244075e-07
-1.585199e-05 2.990471e-05 4.097604e-07
-3.382760e-05 1.138184e-06 4.104021e-07
-1.065261e-05 -3.336777e-05 7.246324e-07
3.370777e-05 1.988208e-06 2.068805e-07
-6.994473e-06 3.473801e-05 -2.075130e-22
3.370777e-05 -1.988208e-06 2.068805e-07
-1.696874e-05 -2.967744e-05 7.458731e-07
-1.711970e-05 -3.049935e-05 7.533306e-07
-3.339694e-05 1.053503e-05 7.292777e-07
-2.850056e-05 2.035545e-05 7.268686e-07
2.136107e-05 -2.773908e-05 -7.341997e-07
2.130841e-05 2.772112e-05 -7.590049e-07
1.957042e-05 2.872235e-05 8.304139e-07
-1.494204e-05 3.060890e-05 6.636353e-07
-3.398490e-05 2.279335e-06 6.636353e-07
3.495419e-05 5.818645e-06 -2.075130e-22
-7.514586e-06 3.462922e-05 -2.075130e-22
3.407306e-05 7.986080e-06 -7.422501e-07
3.407306e-05 -7.986080e-06 -7.422501e-07
-3.480964e-05 -3.982691e-06 7.186057e-07
-3.320009e-05 -1.115219e-05 7.269447e-07
3.486210e-05 -3.258237e-06 -7.322975e-07
3.486210e-05 3.258237e-06 -7.322975e-07
1.443096e-05 -3.191104e-05 -7.273749e-07
-1.103549e-05 3.325677e-05 7.166125e-07
-1.929111e-05 -2.921014e-05 7.372398e-07
1.466250e-05 -3.069995e-05 6.302182e-07
-8.033010e-06 3.451264e-05 -2.075130e-22
3.270623e-05 1.237555e-05 7.565552e-07
3.270623e-05 -1.237555e-05 7.565552e-07
3.030511e-05 1.538797e-05 -5.983103e-07
3.030511e-05 -1.538797e-05 -5.983103e-07
2.603416e-05 2.343749e-05 7.228352e-07
3.240473e-06 3.401942e-05 7.388983e-07
-3.920336e-06 3.394779e-05 7.388965e-07
[...]
POINT_DATA 5279
VECTORS 10.000GHz_fone_imag double
1.082820e-04 4.153067e-07 1.905029e-02
-3.963562e-04 -1.136307e-04 1.902874e-02
1.677727e-04 -3.937570e-04 1.888604e-02
1.177476e-02 -2.172927e-03 -1.920784e-02
-6.843427e-04 -8.062807e-05 -2.312310e-02
-6.844101e-04 7.761617e-05 -2.313329e-02
1.765890e-02 5.122691e-04 -1.327188e-02
1.749095e-02 -4.749793e-04 -1.332063e-02
6.606695e-03 -1.816088e-02 5.922427e-03
6.962668e-03 -1.804383e-02 6.206445e-03
-2.835076e-03 1.057363e-02 -1.973694e-02
5.016168e-03 9.775866e-03 -1.963545e-02
9.229191e-03 -1.687881e-02 5.796416e-03
7.436266e-05 -1.534103e-04 1.874814e-02
-6.775126e-03 1.396122e-03 -2.171496e-02
-6.774824e-03 -1.395738e-03 -2.171466e-02
1.902241e-02 -1.865515e-03 6.101846e-03
1.901103e-02 1.845582e-03 6.100803e-03
8.170428e-03 1.549945e-02 8.789657e-03
5.982920e-03 -2.008410e-02 -2.086714e-03
3.661418e-03 -5.482402e-04 -2.266986e-02
3.660510e-03 5.479489e-04 -2.266969e-02
1.286226e-02 1.406835e-02 6.773395e-03
-6.778920e-03 -1.783014e-02 6.053167e-03
1.173142e-04 1.304249e-04 1.871848e-02
1.205847e-02 -1.439471e-02 7.232836e-03
1.196656e-02 1.644917e-02 3.288203e-03
3.164612e-03 -3.340785e-03 -2.226222e-02
5.395843e-03 -3.863482e-03 -2.183960e-02
5.396167e-03 3.863863e-03 -2.184163e-02
4.682127e-03 1.841162e-02 6.772018e-03
5.965280e-03 -1.301920e-02 -1.727382e-02
-1.850222e-03 1.863255e-02 7.228278e-03
-4.092042e-04 1.882724e-02 7.233027e-03
2.776451e-03 1.865865e-02 7.275154e-03
-2.353465e-04 2.644440e-05 1.877568e-02
1.494971e-02 -1.100087e-02 7.585665e-03
1.494946e-02 1.099999e-02 7.584015e-03
7.646769e-04 1.839367e-03 -2.267285e-02
-6.429942e-03 -8.598190e-04 -2.225050e-02
-6.430926e-03 8.602456e-04 -2.225094e-02
-1.248497e-02 7.915275e-03 -1.698556e-02
-1.248336e-02 -7.913747e-03 -1.698793e-02
-1.586753e-02 -8.481263e-03 8.685509e-03
-1.778122e-02 -1.988317e-03 8.564853e-03
-1.753882e-02 -5.219326e-03 8.010186e-03
-1.393473e-04 -1.122991e-04 1.888778e-02
-1.369370e-02 1.329165e-02 6.641794e-03
-1.723335e-02 6.115609e-03 8.013896e-03
-1.228642e-02 1.465206e-02 6.782586e-03
-1.077565e-02 1.590650e-02 6.658413e-03
-1.443916e-02 -1.088791e-02 8.549055e-03
-1.499722e-02 1.167811e-02 6.846009e-03
-5.542413e-03 1.697027e-02 8.614520e-03
-9.734194e-03 1.602351e-02 7.414243e-03
-1.913380e-02 -3.454503e-04 6.733496e-03
-2.321421e-03 1.899146e-02 6.887210e-03
5.338153e-05 -5.028493e-04 1.883563e-02
-3.079472e-03 1.852430e-02 7.339270e-03
1.693509e-03 1.906254e-02 6.879358e-03
6.870480e-04 1.884598e-02 7.319753e-03
4.303496e-03 1.775570e-02 7.805690e-03
1.193197e-03 -2.765978e-03 -2.282939e-02
2.846757e-03 3.969514e-05 -2.290296e-02
-1.564284e-02 -1.275615e-02 -7.585703e-03
-1.561321e-02 1.274682e-02 -7.544218e-03
3.001634e-03 2.918792e-03 -2.261238e-02
-4.515304e-03 1.748167e-02 8.688310e-03
2.107805e-04 -2.124377e-04 1.883875e-02
-1.730626e-03 -3.330257e-03 -2.260145e-02
1.857667e-02 8.139605e-03 -7.177828e-03
1.857603e-02 -8.139330e-03 -7.177724e-03
-1.160763e-03 -1.990842e-02 -7.910493e-03
2.486293e-03 3.471919e-03 -2.238411e-02
-2.067915e-03 5.756584e-03 -2.217820e-02
-2.301729e-03 -4.260782e-03 -2.235372e-02
1.618080e-02 -1.069890e-02 6.115165e-03
1.864955e-02 -5.144376e-03 6.019620e-03
1.424936e-02 1.056049e-02 -1.306196e-02
-3.996557e-05 1.596283e-04 1.883433e-02
1.424798e-02 -1.055920e-02 -1.306053e-02
-7.421294e-03 1.634428e-02 8.655510e-03
-2.913961e-03 1.463537e-02 -1.688761e-02
1.892689e-02 2.984237e-03 6.643721e-03
1.796371e-02 7.077787e-03 6.338926e-03
6.846755e-03 -1.798241e-02 6.329047e-03
1.075612e-02 1.458539e-02 8.090916e-03
-3.571252e-03 1.826325e-02 7.940762e-03
-1.307108e-02 -2.125263e-03 -1.796770e-02
-1.307106e-02 2.123878e-03 -1.796805e-02
1.194216e-04 7.291446e-06 1.874533e-02
-9.216443e-03 -1.591404e-02 7.826595e-03
-5.620391e-03 -2.038423e-03 -2.195581e-02
-5.618485e-03 2.036805e-03 -2.195657e-02
1.471335e-02 1.192669e-02 6.714203e-03
1.828348e-02 -1.197003e-03 7.992970e-03
1.685769e-02 -7.089508e-03 7.915975e-03
1.782339e-02 4.187724e-03 7.924793e-03
8.060500e-03 -1.647909e-02 7.987370e-03
1.658194e-02 8.046793e-03 7.680798e-03
-5.240522e-03 -1.817296e-02 6.740878e-03
-8.709658e-05 7.582937e-05 1.881302e-02
2.523273e-03 5.797058e-03 -2.215855e-02
1.692047e-03 1.515371e-03 -2.291172e-02
1.987656e-03 -3.517849e-03 -2.249548e-02
-1.696847e-02 5.684537e-03 8.012956e-03
-1.696725e-02 -5.683869e-03 8.011969e-03
1.347626e-02 -1.217331e-02 8.132954e-03
5.802598e-03 1.724565e-02 7.957984e-03
-1.165117e-02 -1.264081e-02 9.428680e-03
-1.109779e-02 1.554604e-02 -1.003810e-02
4.154705e-04 4.925984e-03 -2.253766e-02
1.157165e-04 -1.126221e-05 1.880400e-02
3.557595e-05 2.529997e-04 1.899280e-02
4.297374e-05 4.520953e-03 -2.255486e-02
-1.759176e-02 -3.786136e-03 8.038166e-03
-1.812233e-02 2.135212e-03 7.900798e-03
-1.643520e-02 -7.290899e-03 8.081276e-03
-1.644175e-02 7.395959e-03 8.121580e-03
-7.020429e-03 1.661051e-02 8.066889e-03
-1.353044e-02 -1.203672e-02 8.026491e-03
-1.778783e-02 4.007968e-03 7.949304e-03
-1.563375e-02 9.368429e-03 7.856084e-03
8.613352e-04 1.215652e-03 -2.287771e-02
-2.024905e-04 3.188818e-04 1.889640e-02
-1.968590e-02 6.222168e-04 5.314779e-03
-1.869956e-02 6.048259e-03 5.206688e-03
-9.257342e-03 1.740971e-02 5.301202e-03
-1.584366e-02 1.139794e-02 5.428580e-03
-1.863317e-02 -6.297302e-03 5.319370e-03
-3.212805e-03 -1.204507e-02 -1.873786e-02
-6.495937e-03 1.667684e-02 8.443881e-03
5.640722e-03 6.235764e-03 -2.131245e-02
7.973436e-03 -1.554218e-02 9.257826e-03
1.958153e-03 -2.040702e-02 -5.327385e-03
-2.502128e-04 -2.691966e-04 1.880883e-02
-2.359103e-03 -2.035691e-02 -5.289719e-03
-1.563703e-03 -1.809348e-02 -1.247720e-02
3.435507e-03 -1.779985e-02 -1.270655e-02
3.712070e-03 8.348487e-03 -2.101330e-02
1.767307e-02 1.019190e-02 -6.064802e-03
1.168657e-02 -1.675704e-02 -5.822513e-03
1.325785e-02 -1.547188e-02 -5.837141e-03
1.489761e-02 -1.408224e-02 -5.787920e-03
2.043288e-02 3.915903e-06 -5.838716e-03
-7.806816e-03 -1.591091e-02 -1.303759e-02
-8.068355e-05 -2.776485e-04 1.898631e-02
8.870536e-03 -1.517501e-02 8.998856e-03
1.426724e-02 1.031187e-02 9.089812e-03
3.185096e-03 -1.731344e-02 8.958830e-03
-2.234844e-04 -1.751176e-02 8.991890e-03
-4.034192e-03 -1.718861e-02 9.215658e-03
-1.515362e-02 9.773652e-03 8.099787e-03
-1.515265e-02 -9.773557e-03 8.097460e-03
1.206700e-03 8.484220e-03 -2.095885e-02
-1.033149e-03 8.021942e-03 -2.111436e-02
-1.917649e-04 8.842235e-03 -2.056971e-02
2.411522e-04 -3.525747e-04 1.887489e-02
1.762955e-02 -4.630580e-03 7.967388e-03
1.763007e-02 4.630593e-03 7.967071e-03
-1.282036e-02 -1.255021e-02 -1.280172e-02
1.091836e-03 1.387322e-02 -1.790138e-02
-1.825403e-03 1.381324e-02 -1.790678e-02
-7.410506e-03 1.147412e-02 -1.791317e-02
-9.787866e-03 9.750182e-03 -1.770713e-02
-8.751166e-03 1.071642e-02 -1.785123e-02
-1.377041e-02 -4.289259e-04 -1.778941e-02
-1.085983e-02 8.633413e-03 -1.790435e-02
8.823198e-05 -1.396326e-04 1.873678e-02
-1.724956e-02 -8.070735e-04 9.694135e-03
-1.729313e-02 8.649838e-04 9.643080e-03
-1.551618e-02 -8.950863e-03 8.673099e-03
-1.551668e-02 8.951088e-03 8.673532e-03
8.645729e-03 1.538738e-02 8.933853e-03
1.325318e-02 -3.444418e-03 -1.769580e-02
1.325313e-02 3.444375e-03 -1.769605e-02
5.239156e-03 -9.299991e-03 -1.988911e-02
-1.867943e-03 -4.594503e-03 -2.224083e-02
-1.563024e-02 -1.514158e-03 -1.554694e-02
2.769574e-05 8.895321e-05 1.872033e-02
-9.268923e-03 1.271123e-02 -1.550375e-02
-1.056573e-02 1.162958e-02 -1.552358e-02
-1.293941e-02 -9.022651e-03 -1.541750e-02
-1.163662e-02 1.043534e-02 -1.563264e-02
-3.278144e-03 1.546308e-02 -1.544437e-02
1.591517e-05 1.587449e-02 -1.547964e-02
3.300926e-03 1.540066e-02 -1.532715e-02
-1.173115e-02 -1.214213e-02 1.012949e-02
-8.617186e-03 1.532283e-02 9.274141e-03
1.420969e-03 1.752704e-02 9.390032e-03
5.080487e-05 -2.041088e-04 1.884615e-02
8.677018e-04 1.788480e-02 8.738653e-03
-8.089497e-03 -9.606905e-03 -1.861213e-02
1.516224e-02 -7.390026e-03 1.031097e-02
1.638905e-02 -2.165684e-03 1.082996e-02
-3.809916e-03 -1.060163e-02 -1.973374e-02
-6.101587e-03 -1.639090e-02 9.772642e-03
1.023464e-02 3.543960e-03 -1.983684e-02
-7.164538e-03 -7.999296e-03 -1.995990e-02
6.122052e-03 6.511655e-03 -2.104746e-02
8.983821e-03 -6.472806e-03 -1.993999e-02
-1.251635e-04 -3.534601e-05 1.885765e-02
1.031517e-02 -3.384581e-03 -1.975720e-02
4.190493e-03 5.659939e-03 -2.165336e-02
6.682858e-03 1.237060e-02 -1.747923e-02
1.653789e-02 -9.034505e-03 7.239444e-03
1.653789e-02 9.034474e-03 7.239278e-03
-3.840157e-03 1.691518e-02 9.540926e-03
4.746863e-03 -9.253457e-03 -2.016630e-02
1.043372e-02 -3.638154e-04 -2.015000e-02
5.045265e-03 1.639067e-02 9.651232e-03
-5.273476e-03 -5.466854e-04 -2.230260e-02
5.998233e-05 -4.247635e-04 1.879922e-02
-5.264951e-03 5.461822e-04 -2.227077e-02
9.371756e-03 1.634356e-02 -1.092049e-02
8.509016e-03 1.562197e-02 8.582374e-03
1.636304e-02 -5.147870e-03 9.725636e-03
1.378784e-02 -9.518380e-03 1.005900e-02
1.045739e-02 -1.399302e-02 9.518244e-03
1.096567e-02 1.425470e-02 8.221171e-03
-1.122898e-02 -1.657781e-02 3.731576e-03
7.654018e-03 -1.527736e-02 -1.397626e-02
1.706180e-02 -9.856448e-04 -1.396284e-02
1.926710e-04 -8.303341e-06 1.890222e-02
2.556573e-04 -7.178220e-05 1.880854e-02
1.694750e-02 3.784461e-03 9.191535e-03
1.694748e-02 -3.784487e-03 9.191627e-03
1.668273e-02 1.965596e-03 9.980769e-03
1.628937e-02 5.329350e-03 9.702083e-03
1.695905e-02 -1.286898e-03 9.481933e-03
1.695511e-02 1.282252e-03 9.478861e-03
7.071017e-03 -1.588193e-02 9.463685e-03
5.458598e-03 -1.574233e-02 1.022088e-02
9.687401e-03 1.482278e-02 9.149751e-03
-7.081426e-03 1.477181e-02 -1.515546e-02
-7.321966e-05 -8.704343e-05 1.875622e-02
-1.648441e-02 -6.241189e-03 8.258029e-03
-1.648569e-02 6.241660e-03 8.258663e-03
1.381825e-02 7.001444e-03 -1.625417e-02
1.381850e-02 -7.001348e-03 -1.625361e-02
-1.260859e-02 -1.143556e-02 9.767172e-03
-1.719932e-03 -1.863929e-02 -1.124424e-02
2.222951e-03 -1.859533e-02 -1.123816e-02
1.502425e-02 -1.167182e-02 -1.135478e-02
5.202830e-03 -1.795014e-02 -1.144008e-02
1.023482e-02 -9.426257e-03 -1.746372e-02
1.034444e-04 -6.249986e-06 1.877903e-02
-1.570057e-02 -4.693445e-03 1.022901e-02
-1.570101e-02 4.693735e-03 1.022927e-02
1.014320e-02 1.335020e-02 1.027782e-02
-1.592600e-02 9.149996e-03 -1.176280e-02
-1.592582e-02 -9.150289e-03 -1.176332e-02
-8.453773e-03 1.302222e-02 -1.549921e-02
-8.321621e-03 -1.289691e-02 -1.610905e-02
-1.626674e-02 1.586993e-03 1.042718e-02
-1.626334e-02 -1.568032e-03 1.042745e-02
1.228809e-02 1.194989e-02 1.019511e-02
-1.707843e-04 -1.258187e-04 1.881282e-02
7.396042e-03 8.551275e-03 -1.972371e-02
5.466651e-03 8.797831e-03 -2.003251e-02
1.147017e-02 1.325110e-02 9.119462e-03
1.114959e-02 1.025822e-02 -1.632082e-02
1.033721e-02 -1.117863e-02 -1.600282e-02
-7.025011e-03 -1.156444e-02 -1.775202e-02
1.318665e-02 -1.037364e-02 9.874428e-03
1.319396e-02 1.036483e-02 9.859092e-03
1.038237e-02 -1.174093e-02 1.147058e-02
-9.093625e-03 -1.783324e-02 -8.219034e-03
4.425667e-05 -3.055710e-04 1.903162e-02
-7.841211e-03 -1.456561e-02 1.019579e-02
7.531144e-03 1.378084e-02 -1.584974e-02
1.320040e-02 -1.087186e-02 9.616359e-03
1.305573e-02 1.126367e-02 9.456809e-03
1.479917e-02 -7.657351e-03 1.070626e-02
1.479965e-02 7.657461e-03 1.070545e-02
-1.293709e-02 8.756381e-03 1.145593e-02
-1.293605e-02 -8.756770e-03 1.145482e-02
4.100288e-03 -1.941941e-02 -8.601589e-03
3.860317e-03 -1.693087e-02 9.204053e-03
4.834589e-05 -8.448045e-05 1.901708e-02
1.118106e-02 -1.056074e-03 -1.959660e-02
1.118186e-02 1.054248e-03 -1.959842e-02
5.734420e-04 1.737499e-02 -1.356009e-02
-2.957343e-03 1.717121e-02 -1.348169e-02
-8.918165e-03 1.497153e-02 -1.347828e-02
8.418232e-03 1.228740e-02 -1.652044e-02
-9.186595e-03 1.434863e-02 9.773649e-03
-1.683820e-02 -2.694827e-03 9.770966e-03
-1.683552e-02 2.695391e-03 9.771560e-03
9.494933e-03 -1.386828e-02 1.040508e-02
1.941074e-04 -2.517073e-04 1.892998e-02
1.000264e-02 -1.428919e-02 9.809486e-03
1.194933e-02 1.161460e-02 1.007346e-02
5.359009e-03 -2.022175e-02 -2.136918e-03
6.912774e-03 1.541911e-02 1.004384e-02
-1.179468e-02 1.678575e-02 -9.205383e-04
-7.182945e-03 -1.681076e-02 8.595373e-03
1.566694e-02 -8.700711e-03 8.871275e-03
1.752226e-02 -3.330919e-03 8.846676e-03
-1.373417e-02 -5.030728e-03 -1.671852e-02
-1.373215e-02 5.030170e-03 -1.671999e-02
-4.666208e-05 2.605132e-04 1.884511e-02
8.487096e-03 1.418345e-02 1.052804e-02
1.529008e-02 -7.282511e-03 -1.425181e-02
1.529030e-02 7.283495e-03 -1.425264e-02
-1.524604e-02 -6.579559e-03 -1.484220e-02
-1.524523e-02 6.580058e-03 -1.484329e-02
1.168482e-02 -1.361190e-02 -1.254846e-02
-8.263349e-03 -1.894328e-02 -5.374695e-03
1.514009e-02 6.772927e-03 1.042405e-02
1.514004e-02 -6.773139e-03 1.042394e-02
1.395914e-02 6.382489e-03 1.173235e-02
1.188753e-04 1.786483e-04 1.866862e-02
6.481076e-03 -1.383357e-02 1.197498e-02
1.396580e-02 -6.192986e-03 1.186801e-02
1.162468e-02 1.002458e-02 1.180744e-02
1.494559e-02 3.211839e-03 1.189567e-02
1.515585e-02 -1.232018e-03 1.190099e-02
-4.592281e-03 -1.439301e-02 1.164473e-02
2.069886e-02 3.234284e-03 1.109446e-04
2.069887e-02 -3.234803e-03 1.113961e-04
1.589140e-02 -5.923628e-03 1.052734e-02
1.589189e-02 5.923494e-03 1.052864e-02
-4.620722e-04 -3.209494e-04 1.867222e-02
-6.770383e-03 -1.270741e-02 1.296302e-02
1.106972e-02 9.413225e-03 -1.711557e-02
1.096613e-02 -9.333336e-03 -1.716694e-02
-9.042931e-03 -1.344315e-02 1.114622e-02
-6.242427e-03 8.185930e-03 -1.991764e-02
4.553625e-03 1.696336e-02 -1.296124e-02
-2.563112e-03 -1.629671e-02 1.057829e-02
-4.158147e-03 -1.606260e-02 1.051624e-02
8.862083e-03 -1.519625e-02 9.340217e-03
2.183831e-03 -1.646850e-02 1.056297e-02
1.770396e-04 -8.676244e-05 1.878991e-02
3.824898e-04 -1.313947e-04 1.899567e-02
4.506450e-04 -1.650048e-02 1.063273e-02
6.753504e-03 1.522313e-02 1.007006e-02
-1.094755e-02 -1.255170e-02 1.036382e-02
-1.426064e-02 1.518207e-02 -7.458231e-04
-1.080609e-02 -1.406443e-02 9.062753e-03
5.460995e-03 4.380284e-03 -2.144268e-02
6.585269e-03 -2.582674e-03 -2.150176e-02
6.363935e-03 3.026740e-03 -2.113944e-02
6.822330e-03 1.822661e-03 -2.150995e-02
-1.151946e-02 -1.119803e-02 1.109338e-02
-3.100438e-05 4.148664e-04 1.896922e-02
4.116374e-03 1.459100e-02 1.178116e-02
1.267752e-02 1.130179e-02 1.014088e-02
8.808288e-04 1.537333e-02 1.199506e-02
-2.338730e-03 1.519360e-02 1.201619e-02
-1.367087e-02 -7.001103e-03 1.189232e-02
-5.338196e-03 1.452740e-02 1.204663e-02
-1.521123e-02 -1.989616e-03 1.188387e-02
-1.194839e-02 -9.641581e-03 1.202264e-02
-9.636189e-03 1.197205e-02 1.190686e-02
-1.071595e-02 1.083619e-02 1.198211e-02
-1.595467e-04 -2.276595e-04 1.883356e-02
-8.058659e-03 1.312950e-02 1.204763e-02
-1.191936e-02 9.511335e-03 1.181829e-02
-1.493087e-02 -3.584284e-03 1.194905e-02
-1.414900e-02 5.869153e-03 1.197738e-02
-1.541975e-02 -5.806487e-04 1.185892e-02
-9.532584e-03 -1.199749e-02 1.218044e-02
-1.626718e-02 6.290263e-05 1.093303e-02
-8.095049e-03 1.441740e-02 1.062049e-02
-1.306551e-02 9.748354e-03 1.084295e-02
-1.509860e-02 4.939990e-03 1.119397e-02
8.782402e-05 -2.188512e-04 1.889355e-02
-1.520649e-02 -4.838106e-03 1.112918e-02
-3.208563e-03 1.405747e-02 -1.726248e-02
-9.928684e-03 -1.165896e-02 1.226153e-02
-1.037304e-02 -1.331014e-02 -1.430093e-02
-8.513660e-04 4.271399e-03 -2.255857e-02
-1.201087e-02 1.184761e-02 9.999802e-03
-1.161622e-02 1.124815e-02 1.101191e-02
7.982207e-04 -1.532474e-02 1.219875e-02
1.341615e-03 -1.523802e-02 1.228863e-02
-3.460987e-03 -1.509459e-02 1.204983e-02
-4.621282e-05 2.016330e-04 1.885033e-02
-2.707742e-03 -1.507925e-02 1.225032e-02
-1.997209e-03 -6.655532e-03 -2.120065e-02
1.048998e-02 -1.604746e-02 -1.031970e-02
-7.712734e-03 -1.075269e-02 -1.826699e-02
-5.770351e-03 1.596144e-02 9.766401e-03
-7.660201e-03 1.468758e-02 1.071305e-02
9.138423e-03 1.387236e-02 1.058575e-02
-1.232441e-02 -9.103427e-03 1.191362e-02
-1.232608e-02 9.102837e-03 1.191522e-02
6.995961e-03 1.404912e-02 1.153568e-02
-1.682061e-04 7.454896e-05 1.882775e-02
-9.835104e-03 1.300661e-02 1.070530e-02
-9.396999e-03 1.186562e-02 1.212274e-02
8.468677e-03 3.963881e-03 -2.058106e-02
8.468655e-03 -3.963685e-03 -2.058080e-02
3.855344e-03 1.910957e-02 -8.363012e-03
-1.389267e-03 1.940019e-02 -8.282846e-03
-2.532333e-03 -2.073054e-02 -2.957468e-03
3.142173e-03 -2.053085e-02 -2.906301e-03
1.375452e-04 -2.075277e-02 -2.830007e-03
3.029673e-03 1.643065e-02 1.018130e-02
9.850323e-05 -1.407626e-04 1.875284e-02
-5.086140e-04 1.668091e-02 1.013424e-02
-4.042706e-03 1.622239e-02 1.024252e-02
-1.413503e-02 -9.319291e-03 1.017064e-02
1.223031e-02 1.503761e-02 -8.492242e-03
1.273708e-02 3.753635e-03 -1.792209e-02
1.251549e-02 -4.472102e-03 -1.793588e-02
1.221665e-02 6.500913e-03 -1.744736e-02
1.131404e-02 8.243678e-03 -1.743125e-02
-3.219446e-03 -1.351050e-02 -1.763168e-02
1.195446e-02 -9.377377e-03 -1.646068e-02
2.073097e-04 1.165478e-04 1.896963e-02
1.194476e-02 9.386675e-03 -1.645355e-02
1.646754e-03 1.657571e-02 1.030774e-02
-2.605577e-03 1.585013e-02 1.127254e-02
3.556157e-04 1.678463e-02 1.021183e-02
-1.207053e-02 1.081784e-02 1.120033e-02
-7.017075e-03 -1.280199e-02 1.277127e-02
7.574857e-03 1.462784e-02 1.064297e-02
4.338931e-03 1.500894e-02 1.150915e-02
-1.541533e-02 -8.028176e-03 -1.306710e-02
-1.541573e-02 8.028153e-03 -1.306681e-02
-9.936238e-05 2.063990e-04 1.887080e-02
-1.392719e-02 -5.683669e-03 1.193266e-02
-1.392797e-02 5.683947e-03 1.193458e-02
-9.831588e-03 -1.797997e-02 1.215981e-03
8.821875e-03 1.290451e-02 1.130257e-02
9.220400e-03 1.512026e-02 -1.316933e-02
1.049413e-02 -1.485859e-02 -1.235888e-02
9.704625e-03 1.211724e-02 1.154264e-02
3.627584e-03 -1.153680e-02 -1.869870e-02
-5.363139e-03 -1.406148e-02 1.201484e-02
-5.410728e-03 1.533454e-02 -1.495950e-02
-2.532878e-04 -9.960829e-05 1.902318e-02
1.531546e-02 1.036008e-02 -1.174277e-02
1.531513e-02 -1.035943e-02 -1.174149e-02
-3.321745e-03 -1.727203e-02 -1.318416e-02
1.454333e-03 -1.763487e-02 -1.319863e-02
8.153092e-04 -1.530476e-02 -1.593106e-02
-3.306261e-03 -1.632271e-02 -1.446730e-02
-1.436729e-02 -1.374757e-02 -8.685002e-03
6.033822e-03 1.582915e-02 9.996239e-03
9.764655e-03 -1.687813e-02 -9.249021e-03
3.680411e-03 -1.906270e-02 -9.273258e-03
8.782313e-05 -1.074252e-04 1.892807e-02
1.019382e-04 -5.777215e-04 1.887826e-02
-3.092622e-04 -1.955864e-02 -9.058552e-03
-1.129097e-02 -9.524892e-03 -1.670229e-02
-1.144105e-02 9.529006e-03 -1.664489e-02
1.332064e-02 1.590753e-03 -1.797032e-02
4.146951e-03 -1.282718e-02 -1.780145e-02
1.683250e-03 1.597951e-02 1.112221e-02
-1.691403e-03 1.596840e-02 1.111495e-02
-4.807620e-03 1.499246e-02 1.138717e-02
-1.404183e-02 -7.954806e-03 1.113178e-02
-1.240478e-02 -9.080351e-03 1.180629e-02
1.095126e-04 1.191035e-05 1.888629e-02
-1.179301e-02 1.081533e-02 1.122940e-02
-9.195042e-03 1.300240e-02 1.126615e-02
-1.052458e-02 1.200312e-02 1.128391e-02
-1.542915e-02 -1.450919e-03 1.166130e-02
-3.322766e-03 1.594379e-02 1.097717e-02
3.075528e-04 1.621857e-02 1.097831e-02
4.084092e-03 1.605896e-02 1.048526e-02
-1.813649e-02 -4.172822e-03 -1.133441e-02
-1.813737e-02 4.172699e-03 -1.133420e-02
-1.654134e-02 1.044752e-03 1.028630e-02
-4.562111e-06 -3.288403e-04 1.881980e-02
-1.660629e-02 2.822479e-03 1.007086e-02
-1.408961e-02 9.303458e-03 1.004488e-02
-1.637608e-02 4.383774e-03 1.030460e-02
-7.339928e-03 1.486247e-02 1.028098e-02
-1.494295e-02 7.749476e-03 1.012952e-02
-1.570997e-02 -5.837873e-03 1.002281e-02
-5.295359e-03 -2.023478e-02 -2.628721e-03
-1.138264e-02 -1.370565e-02 -1.296154e-02
-9.772420e-03 -1.238713e-02 -1.543658e-02
-1.227901e-02 -1.045947e-02 1.119767e-02
1.804829e-04 -1.888792e-04 1.877878e-02
-1.221411e-02 1.034399e-02 1.130075e-02
1.084176e-02 1.107262e-02 1.169711e-02
1.136591e-02 6.939321e-03 -1.785299e-02
1.137842e-02 -6.943396e-03 -1.784546e-02
1.371762e-02 4.605868e-03 1.297995e-02
1.447127e-02 1.925926e-03 1.258451e-02
-3.384873e-03 -1.572610e-02 -1.535067e-02
-1.442253e-02 9.872147e-03 -1.301219e-02
-1.442244e-02 -9.873843e-03 -1.301345e-02
-4.630624e-05 -1.534341e-02 -1.596365e-02
1.356970e-04 -2.082956e-05 1.884486e-02
3.236459e-03 -1.514542e-02 -1.590544e-02
1.037331e-02 -1.124471e-02 -1.594249e-02