# vtk DataFile Version 2.0
Electric current density generated by TTH
ASCII
DATASET UNSTRUCTURED_GRID
POINTS 3278 double
-1.140463e-05 2.777974e-05 -2.952691e-22
-2.804550e-05 9.604258e-06 8.834066e-07
-1.431202e-05 2.599196e-05 8.571598e-07
-5.906728e-06 2.907873e-05 8.563934e-07
1.569293e-05 2.518445e-05 8.553447e-07
7.338447e-06 2.763003e-05 -1.182169e-06
2.210696e-05 1.962094e-05 -9.561016e-07
2.210696e-05 -1.962094e-05 -9.561016e-07
-2.651696e-05 8.308036e-06 -6.162310e-07
1.363672e-05 -2.631375e-05 8.899078e-07
2.954738e-05 -1.126316e-06 9.479963e-07
-1.209914e-05 2.748437e-05 -2.952691e-22
2.954738e-05 1.126316e-06 9.479963e-07
-2.739655e-05 -5.958968e-06 -9.131946e-07
1.800591e-05 -2.094882e-05 1.103215e-07
1.800591e-05 2.094882e-05 1.103215e-07
2.549173e-05 -1.510640e-05 8.951433e-07
2.549173e-05 1.510640e-05 8.951433e-07
2.090172e-05 -2.121274e-05 -7.342658e-07
2.090172e-05 2.121274e-05 -7.342658e-07
-1.777556e-05 2.373244e-05 8.769707e-07
-2.763194e-05 2.522519e-06 -5.410885e-07
-1.278600e-05 2.717164e-05 -2.952691e-22
2.525854e-05 -1.250591e-05 -1.022133e-06
2.525854e-05 1.250591e-05 -1.022133e-06
-2.259793e-05 -1.916318e-05 8.972331e-07
-8.434086e-06 -2.840353e-05 8.972265e-07
2.901761e-05 6.098557e-06 -8.767404e-07
2.901761e-05 -6.098557e-06 -8.767404e-07
7.047747e-06 2.674056e-05 -2.889019e-07
1.862311e-06 -2.958059e-05 8.882694e-07
-1.380079e-05 2.494304e-05 1.162918e-06
-1.284865e-05 2.499740e-05 9.684381e-07
-1.346479e-05 2.684174e-05 -2.952691e-22
2.163232e-05 -2.028772e-05 8.713760e-07
2.163232e-05 2.028772e-05 8.713760e-07
1.014808e-05 -2.568774e-05 4.984260e-08
-2.083071e-05 -2.115111e-05 8.423866e-07
-1.096554e-05 -2.758704e-05 8.423863e-07
-7.863024e-07 -2.967616e-05 8.422968e-07
-2.936504e-05 -3.984244e-06 8.928824e-07
-1.750811e-06 -2.763452e-05 -4.085467e-07
2.842646e-05 -3.108433e-06 -1.183729e-06
2.842646e-05 3.108433e-06 -1.183729e-06
-1.413507e-05 2.649490e-05 -2.952691e-22
-1.116040e-05 -2.534395e-05 -4.153960e-07
-1.869923e-05 -2.042569e-05 -4.153972e-07
-2.387386e-05 1.760591e-05 8.652003e-07
2.918511e-05 -4.861702e-06 -9.332164e-07
2.918511e-05 4.861702e-06 -9.332164e-07
-5.618214e-06 2.799018e-05 1.173587e-06
5.544280e-07 -2.811870e-05 9.815067e-07
-9.170115e-06 -2.658580e-05 9.805818e-07
-2.063771e-05 -1.910445e-05 9.805784e-07
-2.333973e-05 1.843624e-05 -7.805189e-07
-1.479643e-05 2.613131e-05 -2.952691e-22
-2.572668e-05 1.008492e-05 1.840861e-07
2.763499e-05 -6.290301e-06 1.104859e-06
2.763499e-05 6.290301e-06 1.104859e-06
-2.182164e-05 1.693630e-05 -1.012279e-07
-1.923083e-05 2.266018e-05 8.060971e-07
2.358196e-05 1.471697e-05 6.318473e-07
2.358196e-05 -1.471697e-05 6.318473e-07
1.180330e-05 2.498592e-05 1.894515e-07
-1.029568e-05 2.784985e-05 8.367074e-07
-3.242921e-06 2.743744e-05 1.536432e-07
-1.544844e-05 2.575122e-05 -2.952691e-22
1.052200e-05 -2.774369e-05 -8.570138e-07
-2.966021e-05 -9.978533e-07 8.520035e-07
2.742990e-05 -3.239047e-06 -6.746432e-08
2.742990e-05 3.239047e-06 -6.746432e-08
-9.078397e-06 2.824495e-05 -8.608426e-07
1.238951e-05 2.534874e-05 1.040035e-06
2.244287e-05 1.632758e-05 5.546855e-07
2.244287e-05 -1.632758e-05 5.546855e-07
2.508187e-05 -1.594905e-05 8.030133e-07
2.508187e-05 1.594905e-05 8.030133e-07
-1.609069e-05 2.535487e-05 -2.952691e-22
7.679706e-06 -2.725436e-05 -1.093065e-06
1.099659e-05 -2.752466e-05 8.874568e-07
-6.370675e-06 2.740393e-05 9.889307e-07
1.042843e-05 -2.618861e-05 1.024388e-06
-1.528237e-05 2.301339e-05 1.286543e-07
-2.210869e-06 -2.838176e-05 -1.151647e-06
-1.185706e-05 -2.588108e-05 -1.151690e-06
-1.891015e-05 -2.127972e-05 -1.151690e-06
-2.495340e-05 -1.341927e-05 -1.100874e-06
-2.564240e-05 -1.204033e-05 -1.098923e-06
-1.672278e-05 2.494250e-05 -2.952691e-22
-8.901057e-06 2.614608e-05 5.106692e-08
-2.071746e-05 -2.123420e-05 -8.623254e-07
-1.108722e-05 -2.751687e-05 -8.623254e-07
-9.244023e-07 -2.965215e-05 -8.623205e-07
-6.033257e-06 2.808784e-05 -1.201730e-06
1.811547e-05 -2.353334e-05 8.301366e-07
1.811547e-05 2.353334e-05 8.301366e-07
1.928314e-05 2.056878e-05 -1.027873e-06
1.928314e-05 -2.056878e-05 -1.027873e-06
-2.825503e-05 -1.099924e-06 1.073934e-06
-1.734431e-05 2.451438e-05 -2.952691e-22
2.789001e-05 -4.591692e-06 -1.068268e-06
2.789001e-05 4.591692e-06 -1.068268e-06
1.675284e-05 2.451493e-05 8.362800e-07
1.675284e-05 -2.451493e-05 8.362800e-07
1.401617e-05 2.457135e-05 -1.079699e-06
1.411930e-05 -2.461714e-05 -1.120274e-06
1.439097e-05 -2.360327e-05 2.482455e-07
1.436176e-05 2.361774e-05 2.343721e-07
2.759014e-05 1.087321e-05 -8.730808e-07
2.759014e-05 -1.087321e-05 -8.730808e-07
-1.795488e-05 2.407077e-05 -2.952691e-22
-1.746619e-05 -2.258110e-05 1.173421e-06
-2.424397e-05 -1.490677e-05 1.149280e-06
-2.645280e-05 -1.056164e-05 1.156351e-06
-1.362991e-05 -2.508385e-05 1.173421e-06
2.671605e-05 9.960045e-06 -1.164495e-06
2.671605e-05 -9.960045e-06 -1.164495e-06
-3.844604e-06 -2.822228e-05 1.156242e-06
6.212382e-06 -2.785590e-05 1.171625e-06
-2.772771e-05 -4.227531e-06 -9.225785e-07
2.672982e-05 9.266035e-06 1.080909e-06
-1.855411e-05 2.361197e-05 -2.952691e-22
2.672982e-05 -9.266035e-06 1.080909e-06
-8.655114e-06 2.713981e-05 1.157284e-06
1.067323e-05 2.770581e-05 8.381919e-07
-2.716356e-05 5.833762e-06 6.076513e-07
2.818325e-05 8.787322e-07 -1.029535e-06
2.816005e-05 -8.618187e-07 -1.014714e-06
-2.291204e-05 1.704797e-05 1.175928e-06
-2.801880e-05 -2.366221e-06 -9.774703e-07
1.506647e-05 2.449809e-05 1.203837e-06
8.472345e-06 2.634829e-05 3.705040e-07
-1.914162e-05 2.313824e-05 -2.952691e-22
1.121869e-05 -2.611781e-05 -1.137654e-06
-2.807273e-05 -5.093816e-06 -1.169381e-06
-1.002672e-05 2.645736e-05 1.082511e-06
1.881396e-05 2.036004e-05 4.879578e-07
1.881396e-05 -2.036004e-05 4.879578e-07
2.688437e-05 1.275231e-05 7.653790e-07
2.688437e-05 -1.275231e-05 7.653790e-07
1.401520e-05 2.617840e-05 8.346167e-07
-7.104589e-07 2.865751e-05 1.195155e-06
5.509324e-06 2.730678e-05 -7.197118e-07
-1.971704e-05 2.264990e-05 -2.952691e-22
-2.211460e-05 1.980698e-05 8.409333e-07
2.538450e-05 -1.310936e-05 1.178376e-06
2.538450e-05 1.310936e-05 1.178376e-06
-2.961989e-05 -2.622791e-06 7.887750e-07
-2.450142e-05 1.424863e-05 1.105493e-06
-2.885426e-05 -7.037975e-06 -8.281230e-07
-2.210036e-05 1.974900e-05 -8.887410e-07
-1.608332e-05 2.352547e-05 -1.160505e-06
2.865320e-05 -7.843147e-06 -8.205958e-07
2.865320e-05 7.843147e-06 -8.205958e-07
-2.028001e-05 2.214726e-05 -2.952691e-22
-1.145662e-05 2.753392e-05 -6.759314e-07
2.414489e-05 -1.730888e-05 8.196497e-07
2.414489e-05 1.730888e-05 8.196497e-07
6.427564e-06 -2.765071e-05 -1.123855e-06
-3.524274e-06 -2.815609e-05 -1.119062e-06
-2.073434e-05 1.834418e-05 3.926224e-07
-1.300684e-05 -2.524242e-05 -1.127114e-06
-1.786237e-05 -2.207473e-05 -1.127114e-06
-2.434925e-05 -1.456436e-05 -1.117793e-06
-2.623055e-05 -1.081303e-05 -1.117483e-06
-2.083016e-05 2.163063e-05 -2.952691e-22
2.028643e-05 2.165274e-05 8.577580e-07
2.028643e-05 -2.165274e-05 8.577580e-07
2.810552e-05 4.398935e-06 1.145250e-06
2.810552e-05 -4.398935e-06 1.145250e-06
-2.785950e-05 -1.017310e-05 -8.698394e-07
-2.484193e-05 -1.624567e-05 -8.465819e-07
-1.773119e-05 -2.380692e-05 -8.445018e-07
-1.464433e-05 -2.581917e-05 -8.458545e-07
-4.864558e-06 -2.928455e-05 -8.430551e-07
2.033297e-05 -1.914018e-05 8.024538e-07
-2.136717e-05 2.110033e-05 -2.952691e-22
2.033297e-05 1.914018e-05 8.024538e-07
5.528222e-06 -2.916668e-05 -8.429254e-07
-2.850440e-05 4.457908e-06 -1.205230e-06
1.503615e-05 -2.445364e-05 1.199782e-06
-2.939170e-06 2.834580e-05 -1.160516e-06
-2.755839e-05 -1.904754e-06 1.154887e-07
-1.989509e-05 1.917872e-05 1.921146e-07
-9.869816e-06 2.666477e-05 -1.140244e-06
-7.113246e-06 2.679660e-05 -4.944334e-07
-2.836831e-05 -8.766914e-06 -8.366222e-07
-2.189067e-05 2.055671e-05 -2.952691e-22
-3.225426e-06 2.953832e-05 -8.133883e-07
-2.933559e-05 -4.745537e-06 -8.100351e-07
2.740566e-05 4.779317e-06 6.660267e-07
2.740566e-05 -4.779317e-06 6.660267e-07
1.924132e-05 -1.985574e-05 -2.699564e-07
1.924132e-05 1.985574e-05 -2.699564e-07
2.299127e-05 -1.876966e-05 8.490445e-07
2.299127e-05 1.876966e-05 8.490445e-07
1.206179e-06 2.852119e-05 1.173169e-06
-2.461712e-05 1.664772e-05 8.090700e-07
-2.240035e-05 2.000010e-05 -2.952691e-22
2.737845e-05 -8.934531e-06 -1.205274e-06
2.737845e-05 8.934531e-06 -1.205274e-06
-1.621862e-05 -2.386151e-05 1.205214e-06
-2.551658e-05 -1.351415e-05 1.204481e-06
2.723110e-05 5.648084e-06 6.528532e-07
2.723110e-05 -5.648084e-06 6.528532e-07
2.940591e-05 3.617468e-06 8.987476e-07
2.940591e-05 -3.617468e-06 8.987476e-07
8.022996e-06 -2.766331e-05 1.205347e-06
2.726389e-05 -4.444677e-06 -1.120196e-07
-2.289588e-05 1.943086e-05 -2.952691e-22
2.726389e-05 4.444677e-06 -1.120196e-07
9.910608e-06 -2.798119e-05 8.444600e-07
-1.095927e-05 2.620227e-05 1.129149e-06
2.724310e-05 7.448536e-06 -1.056220e-06
2.724310e-05 -7.448536e-06 -1.056220e-06
-2.009294e-05 -2.068530e-05 1.205452e-06
-1.083646e-05 -2.672413e-05 1.205452e-06
2.036273e-05 2.035315e-05 -1.205058e-06
2.036273e-05 -2.035315e-05 -1.205058e-06
-9.625143e-07 -2.882145e-05 1.205453e-06
-2.337695e-05 1.884935e-05 -2.952691e-22
-2.853243e-05 -1.642242e-06 -1.180480e-06
-1.683915e-05 2.451420e-05 -7.831854e-07
1.588635e-05 -2.340801e-05 1.080633e-06
1.587222e-05 2.342296e-05 1.082817e-06
2.776737e-05 3.048238e-06 8.132096e-07
2.776737e-05 -3.048238e-06 8.132096e-07
-1.206654e-05 2.500154e-05 -5.685705e-07
-1.144627e-05 2.650310e-05 -1.204684e-06
4.195502e-06 2.730772e-05 1.513493e-07
-2.431937e-05 1.718835e-05 -7.340750e-07
-2.384325e-05 1.825593e-05 -2.952691e-22
2.673531e-05 -7.005214e-06 -2.145326e-07
2.673531e-05 7.005214e-06 -2.145326e-07
5.360628e-07 2.971779e-05 8.037285e-07
-2.957994e-05 -2.229626e-06 -8.649548e-07
2.875982e-05 -7.400092e-06 8.319053e-07
2.875982e-05 7.400092e-06 8.319053e-07
-2.891753e-05 -6.915869e-06 7.919515e-07
-2.525702e-06 -2.959154e-05 8.292464e-07
-1.256950e-05 -2.690812e-05 8.292371e-07
-1.956308e-05 -2.234558e-05 8.292370e-07
-2.429450e-05 1.765098e-05 -2.952691e-22
-1.809578e-05 -2.169442e-05 1.060447e-06
[...]
POINT_DATA 3278
VECTORS 10.000GHz_fone_imag double
2.206993e+10 9.741193e+09 -2.480868e+08
7.759362e+09 2.251586e+10 2.008529e+08
2.116521e+10 1.142576e+10 3.276376e+08
2.415519e+10 4.848323e+09 3.011926e+08
2.088428e+10 -1.373939e+10 4.150361e+08
2.909217e+10 -7.145850e+09 1.357908e+09
1.661749e+10 -1.931321e+10 -1.491562e+08
-1.661993e+10 -1.931481e+10 1.501697e+08
1.034026e+10 3.027468e+10 3.455144e+08
-2.152847e+10 -1.127921e+10 4.007417e+08
-1.674151e+09 -2.751344e+10 7.566695e+08
2.196941e+10 8.772887e+09 6.646725e+07
1.482429e+09 -2.623956e+10 -6.747923e+08
-6.187837e+09 2.907510e+10 -4.533641e+08
-2.726449e+10 -2.290522e+10 1.695106e+09
2.725821e+10 -2.290430e+10 -1.715333e+09
-1.206760e+10 -2.031849e+10 4.383665e+08
1.202770e+10 -2.030433e+10 -4.129581e+08
-1.865599e+10 -1.921456e+10 9.833047e+08
1.865808e+10 -1.921779e+10 -9.838089e+08
2.077729e+10 1.385219e+10 1.109837e+08
4.377677e+09 3.379685e+10 1.599219e+09
2.289700e+10 1.034803e+10 3.811931e+08
-1.344420e+10 -2.914287e+10 6.667188e+07
1.343991e+10 -2.914115e+10 -6.504650e+07
-1.578962e+10 2.048821e+10 -2.236583e+07
-2.512520e+10 6.202001e+09 2.754792e+07
5.638862e+09 -2.431328e+10 -9.431155e+08
-5.647935e+09 -2.429427e+10 9.294194e+08
3.028049e+10 -7.071401e+09 1.018789e+09
-2.441237e+10 -1.167797e+09 -2.929740e+08
2.922002e+10 1.652497e+10 3.441087e+08
2.874416e+10 1.543950e+10 7.100505e+07
2.158580e+10 1.065210e+10 3.352729e+08
-1.778473e+10 -1.954622e+10 3.940709e+08
1.779178e+10 -1.954997e+10 -3.974187e+08
-3.004782e+10 -1.278846e+10 4.689310e+08
-1.938579e+10 1.909642e+10 6.340543e+08
-2.486966e+10 9.838057e+09 -6.877085e+08
-2.442411e+10 1.833983e+09 -1.033565e+09
-6.376913e+09 2.501462e+10 6.784619e+08
-3.257121e+10 1.167246e+09 1.017843e+09
-2.924523e+09 -2.967880e+10 -3.886990e+08
2.958407e+09 -2.971307e+10 3.799615e+08
2.184997e+10 1.161874e+10 -9.109742e+08
-3.073333e+10 1.379212e+10 1.248823e+09
-2.435709e+10 2.074857e+10 -1.611993e+08
1.596138e+10 2.054988e+10 9.123013e+08
-4.144703e+09 -2.476545e+10 -1.416297e+09
4.144240e+09 -2.476868e+10 1.417756e+09
2.984638e+10 5.319189e+09 -2.804319e+08
-3.129665e+10 -1.675452e+09 -9.105562e+08
-3.130927e+10 1.060681e+10 -3.003173e+08
-2.224631e+10 2.438953e+10 2.575374e+08
1.516273e+10 1.875011e+10 -7.721541e+08
1.993279e+10 1.246326e+10 -4.286831e+08
1.280765e+10 3.244199e+10 8.614276e+08
-6.630670e+09 -2.910367e+10 -1.226924e+08
6.633648e+09 -2.909028e+10 1.148346e+08
2.098696e+10 2.541110e+10 2.450112e+08
1.827010e+10 1.510430e+10 6.323555e+08
1.591288e+10 -2.691611e+10 -9.726838e+08
-1.591141e+10 -2.689421e+10 9.604268e+08
3.128827e+10 -1.574444e+10 -3.401248e+08
2.431120e+10 7.890923e+09 1.438541e+09
3.263902e+10 4.863241e+09 8.116818e+08
1.938389e+10 1.252640e+10 2.196535e+08
-2.292241e+10 -9.796303e+09 9.036210e+07
-1.493729e+09 2.538315e+10 5.357361e+08
-3.214298e+09 -3.408062e+10 -9.987420e+08
3.216896e+09 -3.406794e+10 9.617414e+08
2.442876e+10 7.401667e+09 -1.049431e+08
2.751267e+10 -1.299813e+10 1.248338e+09
1.872581e+10 -2.635510e+10 5.645753e+08
-1.873047e+10 -2.635736e+10 -5.653627e+08
-1.439782e+10 -2.147027e+10 -7.798872e+06
1.440191e+10 -2.146673e+10 -1.794694e+06
2.068160e+10 1.159502e+10 -8.666212e+08
-2.799447e+10 -9.268480e+09 -2.370195e+08
-2.266483e+10 -9.488213e+09 5.077110e+08
2.996128e+10 5.110115e+09 1.825071e+08
-2.709279e+10 -1.148982e+10 1.781851e+07
2.718021e+10 1.658613e+10 -6.377422e+08
-2.948388e+10 1.813021e+09 -5.682227e+07
-2.677197e+10 1.199664e+10 -8.475976e+08
-2.152266e+10 2.137822e+10 -1.343656e+09
-1.231684e+10 2.554309e+10 -2.072447e+09
-1.396868e+10 2.682493e+10 -7.462500e+08
2.000803e+10 1.467582e+10 -6.709356e+08
3.097664e+10 1.052107e+10 1.316040e+08
-1.707051e+10 1.678051e+10 1.046270e+09
-2.261888e+10 8.454132e+09 -1.797166e+09
-2.506342e+10 7.491289e+08 -1.204635e+08
2.684833e+10 5.383054e+09 9.053025e+08
-1.951391e+10 -1.511704e+10 2.960801e+07
1.968241e+10 -1.512035e+10 -2.735181e+08
2.303023e+10 -2.229934e+10 4.852109e+08
-2.304100e+10 -2.230527e+10 -4.844751e+08
-1.092089e+09 2.977318e+10 -1.563904e+08
1.932376e+10 1.337992e+10 2.698137e+08
-4.116990e+09 -3.089842e+10 -1.673688e+08
4.127542e+09 -3.090886e+10 1.626967e+08
1.996972e+10 -1.377165e+10 -7.908412e+07
-1.980428e+10 -1.362975e+10 1.695999e+08
2.752040e+10 -1.617995e+10 4.333351e+08
-2.671629e+10 -1.494968e+10 3.871561e+08
-2.792748e+10 -1.744935e+10 -8.635326e+08
2.738997e+10 -1.731084e+10 1.980681e+08
9.768789e+09 -2.430895e+10 -4.802935e+06
-9.756356e+09 -2.430707e+10 2.231328e+07
2.143936e+10 1.364648e+10 -6.026414e+07
-2.276432e+10 1.812120e+10 -3.522270e+08
-1.631879e+10 2.424841e+10 1.878550e+08
-1.048638e+10 2.803101e+10 2.140331e+08
-2.603236e+10 1.308940e+10 5.509773e+08
1.135565e+10 -2.655144e+10 4.452217e+08
-1.136556e+10 -2.655106e+10 -4.428424e+08
-2.928343e+10 5.628328e+09 -2.320332e+08
-3.030956e+10 -6.546753e+09 -2.917360e+08
-5.263400e+09 3.402081e+10 1.278240e+09
8.224619e+09 -2.882758e+10 -1.593135e+07
2.340368e+10 1.837720e+10 -1.200807e+09
-8.231660e+09 -2.882474e+10 1.946304e+07
2.937133e+10 9.832190e+09 6.310279e+08
2.394900e+10 -8.937360e+09 -1.305504e+09
8.368258e+09 2.949163e+10 2.827609e+08
1.929586e+08 -3.227321e+10 8.488956e+08
-1.743044e+09 -2.908866e+10 6.483736e+08
1.721769e+10 2.396105e+10 3.299890e+08
-3.453381e+09 3.429719e+10 -3.897904e+08
2.452147e+10 -1.580437e+10 2.911643e+08
3.017562e+10 -1.020951e+10 2.618711e+08
1.767224e+10 1.763683e+10 2.705470e+08
-2.878488e+10 -1.227753e+10 -2.546247e+08
-5.467784e+09 2.916130e+10 -5.998723e+08
2.764546e+10 1.082959e+10 -3.683085e+07
2.551942e+10 -2.231379e+10 -7.961645e+08
-2.551303e+10 -2.230280e+10 7.915705e+08
1.035610e+10 -2.252334e+10 1.552365e+08
-1.036076e+10 -2.252776e+10 -1.502914e+08
2.166977e+10 -1.077870e+10 -8.767462e+08
3.183033e+10 1.519460e+08 2.885262e+07
3.378334e+10 -7.584829e+09 5.907307e+08
1.788688e+10 1.525343e+10 6.090184e+08
1.765068e+10 1.910659e+10 4.375683e+08
-1.285080e+10 -2.584049e+10 7.206001e+08
1.284873e+10 -2.584600e+10 -7.216438e+08
-6.593221e+08 2.504623e+10 -2.706143e+08
1.615883e+10 2.481371e+10 1.866937e+08
-5.690515e+09 2.473414e+10 -5.662484e+08
1.873855e+10 1.941382e+10 -1.117263e+09
2.596614e+10 1.483054e+10 5.619625e+08
-6.436127e+09 -2.399116e+10 8.528924e+08
6.413347e+09 -2.391704e+10 -8.442302e+08
1.807051e+10 1.572972e+10 -5.770319e+07
2.290860e+10 9.469750e+09 4.930481e+08
-1.426119e+10 -1.947909e+10 4.395655e+06
1.426227e+10 -1.948304e+10 -5.763774e+06
-2.884292e+10 -7.074290e+09 3.372801e+08
-3.161925e+10 5.602015e+09 1.329260e+08
1.929100e+10 2.502980e+10 1.541228e+08
-2.597942e+10 1.400686e+10 -2.025679e+08
-2.281708e+10 1.965681e+10 -5.884880e+08
-1.693951e+10 2.541366e+10 3.372951e+08
-1.142403e+10 2.799221e+10 -1.052241e+07
1.763964e+10 1.676521e+10 -2.035781e+07
1.880877e+10 -1.770327e+10 1.238216e+08
-1.879685e+10 -1.769804e+10 -1.266237e+08
6.006265e+09 -3.001040e+10 3.101360e+08
-6.009091e+09 -3.001013e+10 -3.095172e+08
-8.038077e+09 2.350318e+10 8.310242e+07
-1.406254e+10 2.083331e+10 -8.504886e+08
-2.031372e+10 1.425769e+10 -2.869981e+08
-2.130662e+10 1.167837e+10 5.611476e+08
-2.442270e+10 4.523909e+09 8.447637e+08
-2.173863e+10 -2.240243e+10 -5.094415e+08
1.680023e+10 1.729567e+10 1.410248e+09
2.173611e+10 -2.240060e+10 5.085485e+08
-2.426472e+10 -4.044511e+09 5.379471e+08
4.011863e+09 2.601716e+10 1.183559e+09
-2.497092e+10 -1.545322e+10 4.901073e+08
2.921245e+10 3.553210e+09 -1.158717e+09
-3.456472e+09 3.315212e+10 3.106630e+08
2.389258e+10 2.474790e+10 1.185170e+09
2.939127e+10 1.131795e+10 -2.049698e+07
3.028871e+10 8.785365e+09 6.196096e+08
-7.215005e+09 2.402534e+10 -5.262329e+08
1.654459e+10 1.728466e+10 4.147591e+08
2.454953e+10 2.836014e+09 -1.532578e+09
-3.618389e+09 2.403343e+10 -2.979848e+08
5.402532e+09 -3.068872e+10 1.324481e+08
-5.397459e+09 -3.068365e+10 -1.287567e+08
-2.272784e+10 -2.344820e+10 1.121447e+09
2.272379e+10 -2.344344e+10 -1.127847e+09
-1.538146e+10 -1.878475e+10 -1.333670e+08
1.541673e+10 -1.881400e+10 1.157995e+08
2.876833e+10 -1.043679e+09 -5.582084e+08
1.410402e+10 2.023891e+10 2.347888e+08
1.592749e+10 1.823773e+10 6.475415e+08
-9.651967e+09 -2.739067e+10 -4.458762e+08
9.650665e+09 -2.738194e+10 4.432923e+08
-2.275839e+10 1.599642e+10 -4.432579e+08
-1.364057e+10 2.604111e+10 1.723991e+08
7.588946e+09 -3.048818e+10 -3.912847e+08
-7.596459e+09 -3.049703e+10 3.828305e+08
2.157814e+09 -2.459475e+10 -1.228374e+08
-2.143432e+09 -2.463087e+10 1.072103e+08
-2.712318e+10 -9.352618e+09 -1.804446e+08
-5.863494e+09 -3.260729e+10 -5.726778e+08
1.539654e+10 1.799872e+10 -2.705208e+08
5.864995e+09 -3.261166e+10 5.638954e+08
-2.332808e+10 -9.306208e+09 -1.838075e+09
2.834873e+10 1.204957e+10 -2.323855e+08
6.914778e+09 -2.866689e+10 -9.660117e+08
-6.919100e+09 -2.861658e+10 9.621390e+08
-2.329598e+10 2.193207e+10 1.253606e+08
-2.909761e+10 1.238716e+10 -1.298072e+08
1.958986e+10 -2.090316e+10 -3.605730e+08
-1.959914e+10 -2.091104e+10 3.607140e+08
-2.793415e+10 -4.766881e+08 -1.389925e+08
1.472035e+10 1.865259e+10 -2.120095e+08
-1.923354e+09 2.819208e+10 4.135112e+08
2.107937e+10 1.488526e+10 9.832577e+08
-2.428950e+10 -1.605356e+10 -2.624282e+08
2.436324e+10 -1.680165e+10 3.386638e+08
3.428778e+09 -3.273359e+10 -7.550215e+07
-3.453430e+09 -3.276740e+10 5.751344e+07
2.911767e+10 1.267372e+10 5.331337e+08
2.698659e+10 1.079804e+10 1.441943e+08
3.262121e+10 -3.973449e+09 1.796678e+09
1.483811e+10 1.963735e+10 -5.761926e+08
1.570168e+10 1.935628e+10 -5.007254e+08
-9.445192e+09 -3.141685e+10 8.143583e+08
9.444925e+09 -3.142604e+10 -8.039373e+08
2.257629e+10 -1.429944e+09 -1.142708e+09
-1.936398e+09 2.529418e+10 7.799124e+08
-5.863152e+09 -2.442421e+10 1.422236e+09
5.863885e+09 -2.443877e+10 -1.425837e+09
-5.605453e+09 2.361000e+10 2.495072e+08
-2.493935e+10 9.878805e+08 -1.140989e+09
-2.317970e+10 1.010111e+10 -1.426596e+08
-1.880666e+10 1.522332e+10 9.323287e+08
1.301965e+10 1.999750e+10 2.861260e+08
-2.290457e+10 1.933357e+10 -8.961422e+08
-2.665128e+10 1.335486e+10 2.734150e+08
7.093725e+09 -2.795539e+10 1.199912e+08
-7.087297e+09 -2.795321e+10 -1.189911e+08
3.093965e+10 -9.908523e+09 9.945710e+07
1.761728e+10 2.794619e+10 1.350176e+09
-3.526737e+09 3.452639e+10 2.354192e+08
1.416815e+10 2.463876e+10 3.611200e+08
-3.244911e+10 -6.620227e+08 1.033598e+09
-3.046433e+10 1.088178e+10 1.176407e+08
1.379923e+10 1.942646e+10 2.840717e+08
-2.222976e+10 2.350873e+10 -1.296820e+08
1.894024e+10 -1.567641e+10 1.866390e+08
-1.891387e+10 -1.567128e+10 -2.044854e+08
-2.136158e+10 1.246626e+10 1.514963e+09
-1.001701e+10 2.271267e+10 -5.800729e+08
-9.964809e+09 -3.035975e+10 3.987106e+08
9.966192e+09 -3.036418e+10 -4.014517e+08
1.331649e+10 2.079451e+10 -7.478449e+08
-2.316406e+10 -1.742051e+10 -5.877968e+08
2.355572e+10 -1.751930e+10 4.913171e+08
1.225758e+10 1.994427e+10 -5.550413e+08
-5.958036e+08 3.307445e+10 6.659552e+07
-2.067900e+10 2.024183e+10 8.447049e+08
-2.631563e+10 1.189528e+10 -2.115915e+08
-2.900061e+10 3.161073e+09 -1.314514e+09
6.409577e+08 3.318608e+10 -1.469942e+09
-1.276640e+10 2.589414e+10 8.432577e+07
2.150830e+10 1.259142e+10 -3.823623e+08
-2.236666e+10 -1.740528e+10 1.647227e+09
2.237889e+10 -1.741926e+10 -1.652267e+09
-3.080258e+09 -2.517049e+10 -3.041548e+08
1.255724e+10 2.040414e+10 1.978068e+08
3.070456e+09 -2.519424e+10 2.784586e+08
2.455738e+10 3.716901e+09 1.062968e+09
-1.303613e+10 2.922249e+10 3.047285e+08
2.535931e+10 -1.909048e+10 -9.708558e+08
-2.500586e+10 -1.888961e+10 7.586619e+08
2.376066e+10 -6.982670e+09 -2.100928e+08
1.587725e+10 -1.877193e+10 -1.875232e+08
-1.586877e+10 -1.877325e+10 1.843683e+08
-8.874267e+09 2.616028e+10 -1.731638e+09
-1.716377e+10 2.398043e+10 1.122173e+09
1.258026e+10 2.079980e+10 4.779595e+07
-2.886796e+10 6.089972e+09 -1.131449e+09
1.623347e+10 2.467479e+10 -1.073219e+09
1.930218e+10 -1.545017e+10 -9.334291e+08
-1.930993e+10 -1.545850e+10 9.243966e+08
3.150012e+10 -4.274590e+09 -2.335417e+08
1.394922e+10 2.949491e+10 4.350557e+08
2.192841e+10 -1.088309e+10 -9.385825e+08
-2.416104e+10 1.516598e+10 5.927629e+08
2.675828e+10 7.887162e+09 -5.090398e+08
2.996636e+10 2.146517e+10 -2.208333e+09
1.198588e+10 2.167765e+10 -7.707568e+08
-2.855686e+10 -3.781956e+09 -1.284742e+09
2.300784e+09 2.914805e+10 -6.088942e+08
1.419607e+10 2.920824e+10 8.097849e+08
1.198126e+10 -2.894007e+10 -1.614046e+08
-1.198047e+10 -2.894133e+10 1.610051e+08
-8.128385e+09 2.268333e+10 9.387968e+08
-1.341852e+10 2.061132e+10 -1.402604e+09
-2.426315e+10 3.943306e+09 1.339279e+09
-2.390915e+10 -4.493415e+09 1.144647e+09
-2.975632e+10 -1.172285e+10 2.999878e+08
1.064302e+10 2.171923e+10 -3.504439e+08
2.569830e+10 1.432655e+10 -4.347839e+08
-2.719337e+10 -1.835371e+10 -1.016935e+09
2.606657e+10 -1.755677e+10 -6.036997e+08
-3.181742e+10 -2.032014e+09 -1.724470e+08
-5.284622e+09 2.987737e+10 -1.298560e+09
-1.235958e+08 3.204984e+10 4.064123e+08
2.609152e+09 3.129120e+10 2.381971e+08
-3.485974e+10 7.831186e+09 2.058304e+09
-2.124640e+10 2.883552e+10 -2.058841e+09
3.045217e+10 1.735658e+09 1.449628e+09
1.070193e+10 2.107034e+10 9.991324e+08
2.872741e+10 -1.661906e+10 9.678200e+08
7.421189e+09 -3.179576e+10 7.834681e+08
-7.419382e+09 -3.178550e+10 -7.876219e+08
-1.692156e+10 1.885159e+10 -2.130804e+09
-2.410037e+10 7.932115e+09 2.123770e+09
-2.598427e+10 -6.953495e+09 -2.759508e+08
3.017273e+10 -1.321317e+09 3.140209e+09
-2.469567e+10 -1.818141e+09 1.133919e+09
2.381114e+10 1.785683e+10 4.904704e+07
2.970051e+10 -1.155980e+10 -3.560005e+07
9.956027e+09 2.205697e+10 3.350419e+08
2.505806e+10 -1.978467e+10 -4.585552e+08
-2.506796e+10 -1.980615e+10 4.418528e+08
-2.380481e+10 -6.525137e+09 -4.182235e+08
-2.858246e+10 -1.780013e+10 -9.730813e+08
2.674825e+10 -1.695002e+10 3.979078e+08
1.495754e+10 2.526941e+10 2.268810e+08
-3.070842e+10 -9.592352e+09 -1.741780e+08
2.139230e+10 -1.243957e+10 -5.084290e+08
-2.183011e+10 -1.200251e+10 1.239697e+08
-1.157634e+10 -2.658425e+10 1.300929e+08
9.952166e+09 2.306826e+10 5.098774e+08
1.157892e+10 -2.656706e+10 -1.285046e+08
2.448249e+10 5.867214e+09 3.254477e+08
2.203590e+10 1.839252e+10 4.145771e+08
1.258592e+09 3.022692e+10 5.995249e+08
-2.896684e+10 -1.237180e+10 -7.368684e+07
4.833986e+09 2.666464e+10 -5.788405e+08
7.640102e+07 3.182401e+10 -1.544366e+08
2.661105e+10 4.333740e+09 1.460996e+08
1.600587e+10 2.610975e+10 2.955296e+08
1.727441e+10 2.356355e+10 1.002994e+09
7.772774e+09 2.210881e+10 2.586123e+08
-1.238652e+10 2.404252e+10 -1.046154e+09
2.193599e+10 1.927719e+10 -2.970759e+08
2.331362e+10 1.379700e+10 9.004753e+07
-1.279270e+10 2.184142e+10 9.306556e+08
-1.983398e+10 1.494088e+10 1.644631e+08
3.014038e+10 1.117604e+10 2.556366e+08
1.142178e+10 2.652094e+10 1.651350e+07
1.030525e+10 -2.255773e+10 1.420746e+09
-1.030223e+10 -2.254442e+10 -1.419330e+09
-2.385220e+10 -2.766636e+08 9.734520e+08
8.879558e+09 2.216536e+10 6.206599e+08
-2.235206e+10 9.593080e+09 2.034890e+09
-1.776558e+10 1.658150e+10 -2.055248e+09
2.312612e+10 1.163462e+10 4.449611e+08
-2.448282e+10 2.632101e+09 -4.610877e+08
1.247655e+10 -2.181668e+10 4.366622e+08
-1.250014e+10 -2.183110e+10 -4.507044e+08
-2.407694e+10 1.192995e+10 -8.586647e+07
-1.955000e+10 1.526582e+10 -7.842439e+08
1.520738e+10 2.616334e+10 1.215971e+09
-2.166866e+10 1.177533e+10 -4.562566e+08
8.304267e+09 2.388384e+10 9.789739e+08
-8.798310e+09 2.348722e+10 6.563398e+08
-2.556836e+10 1.199062e+09 7.573833e+08
-2.346401e+10 1.028194e+10 2.578510e+08
-2.039158e+10 1.683875e+10 6.075444e+08
-9.934433e+09 2.332789e+10 6.213784e+08
4.391110e+09 2.694621e+10 8.878536e+07
2.913404e+10 -3.066114e+09 -1.286231e+09
-2.770467e+10 6.309962e+08 -1.724455e+08
-2.418778e+10 1.045468e+10 -3.026604e+08
-1.949990e+10 1.877119e+10 9.362084e+08
6.668078e+09 2.290465e+10 1.791049e+08
3.221371e+10 1.745753e+09 1.658517e+09
8.158776e+09 3.142829e+10 2.753154e+08
2.130089e+10 1.162781e+10 2.980548e+08
2.019954e+10 -1.947946e+10 4.249862e+08
-2.020887e+10 -1.948697e+10 -4.261510e+08
-3.177400e+10 1.601737e+09 -6.937861e+08
-1.383478e+09 -2.495230e+10 8.821058e+08
1.299498e+09 -2.515663e+10 -9.978350e+08
-3.028188e+10 1.369860e+10 7.228955e+08
-2.388755e+10 2.051476e+10 -1.739919e+09
6.312028e+09 2.255836e+10 7.828472e+08
2.658774e+10 1.167860e+10 -4.414059e+08
-5.349172e+09 2.553369e+10 -1.217313e+09
-1.229855e+10 2.164109e+10 7.827506e+08
-2.305487e+10 -1.002393e+10 4.183558e+08
9.210369e+09 3.066605e+10 -6.461469e+08
6.806246e+09 2.306915e+10 -3.819526e+07
-2.414805e+10 -5.547428e+09 -8.685982e+08
-2.647601e+10 3.763901e+08 1.066351e+09
-2.403021e+10 7.951331e+09 2.081260e+08
-1.709783e+10 1.895952e+10 -3.203105e+08
6.010963e+09 2.346369e+10 1.180604e+09
2.390589e+10 -2.431295e+09 1.723216e+08
-6.192572e+09 2.664038e+10 2.140783e+09
3.134900e+10 -3.379226e+09 9.072233e+07
2.401286e+10 2.112662e+10 4.721372e+07
-9.367512e+09 -2.917853e+10 2.387025e+08
9.351360e+09 -2.920072e+10 -2.481713e+08
2.427516e+10 -6.349182e+09 1.590306e+09
3.121489e+10 -5.664648e+09 2.047324e+09
2.106572e+09 3.101926e+10 1.151431e+09
1.040110e+10 2.612497e+10 -5.007910e+08
6.176164e+09 2.353599e+10 8.609152e+08
1.326168e+10 2.123230e+10 -3.169822e+07
-9.841949e+09 -2.199154e+10 2.102690e+08
9.842616e+09 -2.198850e+10 -2.078925e+08
7.966271e+09 3.087230e+10 -2.768240e+08
6.570739e+09 2.542613e+10 6.010499e+08
2.007613e+10 1.882222e+10 -1.525602e+07
-2.545340e+10 -2.854361e+09 8.082712e+08
2.375055e+10 -7.884205e+09 -8.378945e+08
-2.720939e+10 6.042303e+09 9.267656e+08
-1.653728e+10 2.242120e+10 -8.575479e+08
5.130133e+09 2.499675e+10 2.642117e+09
1.179211e+09 -2.602022e+10 -1.406878e+09
-2.317839e+09 -2.682482e+10 6.683139e+08
2.798649e+10 6.725978e+09 -7.036386e+08
2.292785e+10 8.438601e+09 1.591307e+08
2.921823e+10 -1.408680e+10 5.401141e+08
2.502218e+10 6.129643e+09 -1.416282e+09
-2.600719e+10 -1.411975e+10 -1.028236e+09
1.834887e+10 1.513606e+10 -6.429570e+08
1.690951e+10 1.815028e+10 -8.486261e+08
-2.556423e+10 -1.155957e+10 -5.790998e+08
3.583611e+09 2.405329e+10 -2.444116e+08
2.942104e+09 2.480715e+10 6.054856e+08
-2.383508e+10 -7.844666e+09 8.625679e+08
2.687831e+10 2.200083e+10 -7.978250e+08
-3.036773e+10 -1.064483e+10 5.756594e+08
-1.559597e+10 2.869764e+10 4.989666e+08
-1.249539e+10 2.988269e+10 5.090964e+08
3.147025e+10 3.055126e+09 -8.314975e+08
2.587721e+10 -3.338488e+09 -3.384110e+08
-3.186245e+10 -8.008090e+09 -2.244115e+08
-3.279512e+10 2.669584e+09 1.994124e+08
4.006845e+09 2.355599e+10 -2.337204e+08
-2.760389e+10 1.526220e+10 4.325741e+08
-2.495390e+10 2.084281e+10 -5.661918e+08
-2.665410e+10 1.793849e+10 -2.616219e+08
-2.724522e+10 1.680236e+10 3.291553e+08
3.174807e+10 -6.486093e+09 -9.441950e+07
-1.664862e+10 2.267360e+10 4.240189e+07
-2.741278e+10 6.123392e+09 -5.178709e+07
-2.842053e+10 -2.010479e+09 5.079059e+08
2.399476e+10 2.419917e+09 2.012490e+08
-1.041610e+10 3.047265e+10 -2.465743e+08
2.716232e+09 2.416814e+10 -1.937649e+09
-1.868897e+10 2.706001e+10 -1.064472e+09
-3.232232e+10 6.221136e+09 1.065589e+09
3.023318e+10 1.521377e+10 6.694609e+08
-2.466201e+10 -2.443849e+09 -7.280410e+07
-6.171384e+09 2.353257e+10 -8.934176e+08
-1.556632e+10 1.924169e+10 8.419713e+07
-2.384149e+10 6.450243e+09 -1.142532e+08
5.889722e+09 3.347718e+10 3.503585e+08
-2.502658e+10 2.738497e+09 6.870180e+08
-2.404931e+10 1.180523e+10 2.124067e+08
2.432234e+09 2.352528e+10 3.156200e+08
-9.080533e+09 2.375317e+10 -1.098153e+09
-1.948223e+10 1.575637e+10 4.654559e+08
2.561549e+10 -1.130831e+10 9.753757e+07
9.462298e+09 2.258585e+10 -7.348120e+06
4.920540e+09 2.715523e+10 6.660180e+06
-3.235559e+10 -5.133797e+09 3.098058e+08
2.263665e+09 2.838250e+10 -9.335752e+07
-2.895487e+10 1.214341e+08 5.337266e+08
-2.857408e+10 9.667954e+09 3.884255e+08
-2.030828e+10 2.234025e+10 -3.578816e+08
1.991086e+09 2.374620e+10 -4.737565e+08
-2.084495e+10 -1.449850e+10 -5.994616e+06
-1.071764e+09 2.635211e+10 -1.178707e+09
-2.386653e+10 -4.281915e+09 3.542325e+08
2.663920e+10 -1.290433e+10 5.536500e+07
2.492999e+10 -8.388905e+09 -8.953939e+08
-2.364284e+10 3.728475e+09 4.581942e+06
2.301562e+10 -7.750619e+09 -4.307905e+08
-1.307648e+10 2.006232e+10 -4.853589e+07
-7.986259e+09 2.254698e+10 1.284853e+08