# vtk DataFile Version 2.0
Electric current density generated by TTH
ASCII
DATASET UNSTRUCTURED_GRID
POINTS 9556 double
3.075807e-05 2.524958e-05 -1.367420e-22
-1.769201e-06 3.893058e-05 4.911612e-07
2.389377e-07 3.888931e-05 -4.380394e-07
2.565982e-07 3.896316e-05 4.874540e-07
2.310027e-06 3.878915e-05 -4.105750e-07
2.316590e-06 3.889935e-05 4.898063e-07
1.989101e-05 3.361690e-05 5.300372e-07
2.061813e-05 3.283208e-05 3.060095e-07
3.910432e-05 7.672456e-07 -5.442699e-07
3.909333e-05 -7.238436e-07 5.414353e-07
3.717451e-05 1.142376e-05 -4.381542e-07
3.053437e-05 2.551965e-05 -1.367420e-22
3.717451e-05 -1.142376e-05 4.381542e-07
1.404638e-05 -3.644001e-05 -5.275540e-07
1.496038e-05 -3.587736e-05 -4.227746e-07
1.596421e-05 -3.567275e-05 -5.365737e-07
1.690100e-05 -3.523703e-05 -5.361701e-07
1.783698e-05 -3.480091e-05 -5.428457e-07
1.873964e-05 -3.429458e-05 -5.361724e-07
1.965727e-05 -3.377580e-05 -5.358772e-07
2.034919e-05 -3.307743e-05 -3.889020e-07
3.524024e-05 -1.699874e-05 -5.472798e-07
3.030830e-05 2.578773e-05 -1.367420e-22
3.524024e-05 1.699874e-05 5.472798e-07
7.132555e-06 -3.845274e-05 -5.435314e-07
2.962203e-05 2.511539e-05 3.894596e-07
2.962203e-05 -2.511539e-05 -3.894596e-07
2.334485e-05 3.128291e-05 -5.201420e-07
2.775889e-05 2.759239e-05 5.498461e-07
2.181845e-05 -3.249133e-05 -5.494721e-07
1.460895e-05 3.635574e-05 -5.555712e-07
2.477195e-05 3.005278e-05 4.771720e-07
2.468763e-05 2.993961e-05 -3.551378e-07
3.007987e-05 2.605381e-05 -1.367420e-22
2.477824e-05 -3.004938e-05 -4.780069e-07
2.468763e-05 -2.993961e-05 3.551378e-07
3.853270e-05 -6.876798e-06 5.502095e-07
3.875750e-05 -5.457610e-06 5.499204e-07
2.092156e-05 3.306734e-05 -5.481104e-07
3.446953e-05 1.832599e-05 -5.220521e-07
3.446953e-05 -1.832599e-05 5.220521e-07
3.795628e-05 7.983129e-06 -3.311737e-07
3.852013e-05 -6.685242e-06 -5.403904e-07
3.798032e-05 9.744553e-06 -5.576991e-07
2.984911e-05 2.631787e-05 -1.367420e-22
3.794928e-05 -9.815581e-06 5.569933e-07
1.564052e-05 3.579210e-05 5.298351e-07
3.902556e-05 -1.892964e-06 -5.334316e-07
3.902556e-05 1.892964e-06 5.334316e-07
6.084188e-06 3.857906e-05 5.283730e-07
3.338217e-05 -1.954505e-05 -7.573951e-08
3.338217e-05 1.954505e-05 7.573951e-08
5.335868e-06 -3.876296e-05 -5.478065e-07
4.370542e-06 -3.882183e-05 -5.320623e-07
3.371914e-06 -3.891981e-05 -5.315956e-07
2.961604e-05 2.657989e-05 -1.367420e-22
2.346355e-06 -3.903820e-05 -5.435312e-07
6.032582e-07 -3.911473e-05 -5.459381e-07
-7.282829e-06 -3.843549e-05 -5.459381e-07
-6.247920e-06 -3.856859e-05 -5.334121e-07
-5.276828e-06 -3.873718e-05 -5.401287e-07
-4.043535e-06 -3.862658e-05 -3.909712e-07
-3.188212e-06 -3.902580e-05 -5.524760e-07
-2.065988e-06 -3.881343e-05 -4.200117e-07
-1.860680e-05 -3.441095e-05 -5.459381e-07
-1.766113e-05 -3.485193e-05 -5.334121e-07
2.938066e-05 2.683984e-05 -1.367420e-22
-1.675638e-05 -3.534853e-05 -5.458511e-07
-1.583729e-05 -3.575845e-05 -5.435312e-07
-3.268728e-05 -2.149112e-05 -5.459381e-07
-3.206333e-05 -2.232745e-05 -5.334121e-07
-3.150927e-05 -2.314259e-05 -5.401287e-07
-3.057224e-05 -2.395205e-05 -3.909712e-07
-3.026443e-05 -2.484435e-05 -5.524760e-07
-2.931559e-05 -2.553757e-05 -4.290261e-07
-3.910792e-05 1.362978e-06 -5.484202e-07
-3.907061e-05 3.107588e-07 -5.335576e-07
2.914300e-05 2.709770e-05 -1.367420e-22
-3.908953e-05 -6.499073e-07 -5.401287e-07
-3.878584e-05 -1.808320e-06 -3.808616e-07
-3.905855e-05 -2.758143e-06 -5.524760e-07
-3.888782e-05 -3.799446e-06 -5.339063e-07
-3.881758e-05 -4.794077e-06 -5.444188e-07
-3.864287e-05 -5.832768e-06 -5.361724e-07
-2.462086e-05 -3.039967e-05 -5.459381e-07
-2.378448e-05 -3.100025e-05 -5.339812e-07
-2.295706e-05 -3.162698e-05 -5.361737e-07
-2.217707e-05 -3.221624e-05 -5.441883e-07
2.890308e-05 2.735347e-05 -1.367420e-22
-3.824773e-05 -8.212040e-06 -5.459381e-07
-3.797079e-05 -9.209347e-06 -5.334944e-07
-3.774687e-05 -1.017780e-05 -5.401287e-07
-3.716944e-05 -1.122695e-05 -3.808616e-07
-3.720189e-05 -1.221461e-05 -5.524760e-07
-3.678199e-05 -1.318267e-05 -5.339063e-07
-3.647095e-05 -1.413003e-05 -5.444188e-07
-3.609869e-05 -1.505494e-05 -5.443591e-07
-3.563622e-05 -1.604219e-05 -5.361724e-07
-3.519593e-05 -1.696279e-05 -5.330856e-07
2.866091e-05 2.760710e-05 -1.367420e-22
-3.479192e-05 -1.786702e-05 -5.441882e-07
-3.862828e-05 6.179198e-06 -5.459381e-07
-3.873172e-05 5.154730e-06 -5.339812e-07
-3.886229e-05 4.124991e-06 -5.361737e-07
-3.898402e-05 3.155046e-06 -5.441883e-07
-3.411992e-05 1.913524e-05 -5.459381e-07
-3.355644e-05 2.001344e-05 -5.334121e-07
-3.305727e-05 2.091678e-05 -5.458511e-07
-3.249965e-05 2.175453e-05 -5.435312e-07
-1.129905e-05 -3.745208e-05 -5.459381e-07
2.841652e-05 2.785860e-05 -1.367420e-22
-1.830284e-05 3.457358e-05 -5.459381e-07
-1.918341e-05 3.403989e-05 -5.339812e-07
-2.008452e-05 3.352469e-05 -5.361737e-07
-2.093254e-05 3.303842e-05 -5.441883e-07
-2.822178e-05 -2.709892e-05 -5.472518e-07
-3.776028e-05 1.022193e-05 -5.459381e-07
-7.621247e-06 3.836982e-05 -5.459381e-07
-2.243858e-05 3.205927e-05 -5.484202e-07
-2.325664e-05 3.139646e-05 -5.335576e-07
-2.403541e-05 3.083364e-05 -5.401287e-07
2.816992e-05 2.810793e-05 -1.367420e-22
-2.477804e-05 2.989415e-05 -3.808616e-07
-2.570082e-05 2.954057e-05 -5.524760e-07
-2.642990e-05 2.877775e-05 -5.339063e-07
-2.718215e-05 2.812327e-05 -5.444188e-07
-2.790675e-05 2.735884e-05 -5.361724e-07
-3.705830e-05 1.253030e-05 -5.459381e-07
-3.666604e-05 1.349719e-05 -5.334121e-07
-3.630158e-05 1.443320e-05 -5.315956e-07
-3.594766e-05 1.540300e-05 -5.435312e-07
-1.390911e-05 3.656314e-05 -5.459381e-07
2.792113e-05 2.835508e-05 -1.367420e-22
-3.107834e-05 2.377981e-05 -5.485560e-07
-1.613667e-05 3.563614e-05 -5.459381e-07
-3.001637e-05 2.508672e-05 -5.459381e-07
-3.523466e-05 1.699545e-05 -5.459381e-07
-1.228510e-05 3.714031e-05 -5.459381e-07
-1.125319e-05 3.741624e-05 -5.335576e-07
-1.030983e-05 3.768062e-05 -5.315956e-07
-9.322228e-06 3.798135e-05 -5.435312e-07
-3.817518e-05 8.585947e-06 -5.478678e-07
-3.395366e-05 -1.943778e-05 -5.468808e-07
2.767018e-05 2.860002e-05 -1.367420e-22
-2.651745e-05 -2.877663e-05 -5.483788e-07
-9.680272e-06 -3.791616e-05 -5.485560e-07
-2.069475e-05 -3.320249e-05 -5.468808e-07
-1.358637e-05 -3.668429e-05 -5.459381e-07
2.556194e-05 2.978939e-05 5.580294e-07
2.558911e-05 -2.975485e-05 -5.582251e-07
2.437296e-05 -3.076438e-05 -5.581432e-07
2.433518e-05 3.078929e-05 5.582195e-07
1.671177e-05 3.577079e-05 -5.012331e-07
2.886332e-05 -2.648667e-05 -5.548648e-07
2.741708e-05 2.884275e-05 -1.367420e-22
2.882222e-05 2.656134e-05 5.567491e-07
3.901295e-05 4.313871e-06 5.581019e-07
1.295507e-05 3.692408e-05 -5.482609e-07
3.299836e-05 -2.119333e-05 5.579943e-07
3.299836e-05 2.119333e-05 -5.579943e-07
3.846620e-05 6.665254e-06 -5.224592e-07
3.816233e-05 6.382842e-06 1.265791e-07
1.278900e-05 3.701533e-05 5.533944e-07
2.332468e-05 3.088500e-05 1.656371e-07
1.644632e-05 3.549623e-05 5.463101e-07
2.716184e-05 2.908323e-05 -1.367420e-22
2.805079e-05 -2.690948e-05 -4.224270e-07
3.878913e-05 -1.739700e-06 3.810201e-07
3.800063e-05 -8.050928e-06 3.974549e-07
3.819741e-05 -8.929798e-06 5.582213e-07
-3.190261e-06 3.905087e-05 -5.555545e-07
3.823585e-05 -8.392696e-06 -5.509776e-07
3.805767e-05 -9.250148e-06 -5.538237e-07
6.385997e-06 3.857707e-05 -5.419422e-07
7.287940e-06 3.851695e-05 -5.571421e-07
-1.182871e-05 -3.685028e-05 -1.629949e-07
2.690450e-05 2.932146e-05 -1.367420e-22
-1.408645e-05 -3.604753e-05 -1.626179e-07
-6.897370e-06 3.808196e-05 -1.607768e-07
-2.927217e-05 2.531698e-05 -1.607768e-07
-1.439507e-05 3.592552e-05 -1.629949e-07
-3.115259e-05 2.296356e-05 -1.607768e-07
-3.717389e-05 1.076861e-05 -1.629949e-07
-2.739755e-05 -2.733561e-05 -1.629949e-07
-1.659583e-05 3.496372e-05 -1.639185e-07
-3.790364e-05 7.818128e-06 -1.607768e-07
-3.325767e-05 -1.979234e-05 -1.607768e-07
2.664507e-05 2.955741e-05 -1.367420e-22
-3.455769e-05 1.742490e-05 -1.629949e-07
-2.564943e-05 -2.898258e-05 -1.639185e-07
-1.991385e-05 -3.318505e-05 -1.607768e-07
-8.900336e-06 -3.766422e-05 -1.607768e-07
-5.711893e-08 -3.870150e-05 -1.607768e-07
7.680960e-06 3.837882e-05 5.499251e-07
7.684047e-06 3.790867e-05 -4.375269e-08
2.875906e-05 2.650540e-05 -5.439272e-07
2.933671e-05 2.585018e-05 -5.416335e-07
-2.807905e-05 2.663251e-05 -1.570550e-07
2.638357e-05 2.979106e-05 -1.367420e-22
-3.816602e-05 -6.408010e-06 -1.563502e-07
6.893678e-06 3.864666e-05 5.579149e-07
-3.827849e-05 -6.981882e-06 4.531060e-07
-2.864967e-05 2.634286e-05 4.599818e-07
3.832212e-05 8.051542e-06 5.529042e-07
3.867276e-05 -5.547020e-06 -5.325304e-07
1.136565e-05 3.716498e-05 -4.161753e-07
2.788978e-05 -2.769662e-05 -5.539388e-07
2.701920e-05 -2.819236e-05 -5.260787e-07
-6.164240e-07 -3.894391e-05 4.786363e-07
2.612002e-05 3.002240e-05 -1.367420e-22
-8.412308e-06 -3.802947e-05 4.786363e-07
-1.955973e-05 -3.368122e-05 4.786363e-07
-2.719392e-05 -2.788366e-05 4.786363e-07
-2.542325e-05 -2.950706e-05 4.786363e-07
-3.168003e-05 2.265796e-05 4.786363e-07
-1.716700e-05 3.496144e-05 4.786363e-07
-6.425389e-06 3.835485e-05 4.374743e-07
-3.725927e-05 1.134701e-05 4.786363e-07
-1.497908e-05 3.595323e-05 4.786363e-07
-3.318084e-05 -2.039706e-05 4.786363e-07
2.585444e-05 3.025141e-05 -1.367420e-22
-3.825477e-05 7.319841e-06 4.786363e-07
-3.453519e-05 1.800913e-05 4.786363e-07
-1.466167e-05 -3.608384e-05 4.786363e-07
-1.240931e-05 -3.691906e-05 4.786363e-07
1.182238e-05 3.739206e-05 5.579448e-07
3.731788e-05 -1.210945e-05 -5.582847e-07
3.683860e-05 -1.300110e-05 -5.315525e-07
3.731788e-05 1.210945e-05 5.582847e-07
3.683860e-05 1.300110e-05 5.315525e-07
-1.318352e-05 -3.697567e-05 5.579522e-07
2.558686e-05 3.047807e-05 -1.367420e-22
-3.306182e-05 -2.116415e-05 5.579522e-07
-2.507698e-05 -3.020182e-05 5.579522e-07
-7.778246e-06 -3.847732e-05 5.579522e-07
-3.868428e-05 6.673214e-06 5.579522e-07
-1.543789e-05 -3.609261e-05 5.579522e-07
-5.733876e-06 3.883462e-05 5.579522e-07
-3.447050e-05 1.878270e-05 5.579522e-07
-3.234073e-05 2.225044e-05 5.579522e-07
-1.575535e-05 3.595517e-05 5.579522e-07
-3.733803e-05 1.211927e-05 5.579522e-07
[...]
POINT_DATA 9556
VECTORS 10.000GHz_fone_imag double
4.557355e+10 -5.159239e+10 2.415613e+08
7.076343e+10 2.648890e+09 -8.848706e+07
7.103759e+10 -2.596927e+08 1.455730e+08
7.042839e+10 -1.879538e+08 2.060844e+08
7.134239e+10 -4.349692e+09 -5.516443e+08
6.947902e+10 -3.436841e+09 -1.466139e+09
5.930404e+10 -3.603726e+10 -7.417672e+08
6.078232e+10 -3.791654e+10 -6.332063e+08
2.424635e+09 -6.795373e+10 1.326904e+09
-5.052143e+08 -6.984155e+10 3.670245e+07
2.024404e+10 -7.033364e+10 1.494312e+09
4.399962e+10 -5.302525e+10 -1.480516e+09
-2.213420e+10 -7.101438e+10 6.563301e+08
-6.543582e+10 -2.570072e+10 -8.935771e+08
-6.429984e+10 -2.751838e+10 3.496694e+08
-6.436410e+10 -2.841947e+10 -2.451461e+08
-6.168791e+10 -2.974760e+10 1.184712e+09
-6.316111e+10 -3.078079e+10 -2.346590e+08
-6.311195e+10 -3.480996e+10 1.141189e+09
-6.105641e+10 -3.723070e+10 -8.679635e+07
-5.974181e+10 -3.600308e+10 -4.517838e+08
-3.034637e+10 -6.257275e+10 3.812519e+08
4.214344e+10 -5.097937e+10 -8.002411e+08
3.045046e+10 -6.272785e+10 3.816447e+08
-7.013807e+10 -1.298613e+10 -1.147500e+09
4.650305e+10 -5.449766e+10 -1.617171e+09
-4.606974e+10 -5.416235e+10 -1.735270e+09
5.598666e+10 -4.150485e+10 5.827262e+07
5.109521e+10 -4.991586e+10 -8.892248e+07
-5.818643e+10 -3.936640e+10 -4.165667e+06
6.459841e+10 -2.621337e+10 1.993544e+09
5.487483e+10 -4.339635e+10 -6.656721e+08
5.710083e+10 -4.385706e+10 -8.431757e+08
4.309298e+10 -4.905442e+10 1.249113e+07
-5.512580e+10 -4.469757e+10 -1.350363e+09
-5.586080e+10 -4.544412e+10 6.398182e+08
-1.140435e+10 -6.779510e+10 -1.280874e+09
-8.080270e+09 -7.160852e+10 1.275439e+09
5.818188e+10 -3.745793e+10 -3.978364e+08
3.258022e+10 -6.182897e+10 -9.140952e+08
-3.327088e+10 -6.120398e+10 4.231265e+08
1.331529e+10 -7.013932e+10 -1.131279e+09
-1.244686e+10 -6.812665e+10 -9.754785e+08
1.674259e+10 -6.788925e+10 -8.904079e+08
4.386492e+10 -4.961412e+10 -2.867216e+08
-1.839021e+10 -6.726077e+10 4.057834e+08
6.349028e+10 -2.735825e+10 -3.016062e+08
-3.075550e+09 -7.058114e+10 1.006706e+09
4.051943e+09 -7.097627e+10 -5.526661e+08
6.874877e+10 -1.144357e+10 -3.365090e+08
-3.655190e+10 -6.143328e+10 1.063382e+08
3.654778e+10 -6.133746e+10 2.011720e+07
-6.934222e+10 -8.430978e+09 -1.003906e+08
-7.060876e+10 -8.148411e+09 -7.159732e+06
-6.838665e+10 -5.698802e+09 1.073990e+08
4.353387e+10 -5.090120e+10 -5.626778e+08
-7.139240e+10 -4.278365e+09 -1.158625e+09
-6.888753e+10 7.071969e+07 -8.598781e+08
-6.844111e+10 1.395318e+10 -4.853815e+08
-6.993326e+10 1.146466e+10 4.406661e+07
-6.801903e+10 9.405662e+09 -9.153838e+08
-7.025541e+10 6.772260e+09 -6.674017e+08
-6.953977e+10 3.521245e+09 1.129452e+09
-7.111926e+10 3.967082e+09 3.672369e+08
-6.323477e+10 3.375171e+10 -7.924569e+08
-6.179167e+10 3.117888e+10 -8.869498e+07
4.411867e+10 -4.756748e+10 1.801751e+08
-6.350210e+10 2.979097e+10 1.178203e+09
-6.408107e+10 2.867285e+10 -9.783302e+08
-3.731108e+10 5.920529e+10 -4.835438e+08
-4.036334e+10 5.823421e+10 5.378690e+07
-4.053714e+10 5.541992e+10 -9.113534e+08
-4.396649e+10 5.518960e+10 -6.562281e+08
-4.586575e+10 5.228830e+10 1.001177e+09
-4.764508e+10 5.255885e+10 4.268548e+08
3.450989e+09 6.943279e+10 -7.555002e+08
-5.605790e+07 7.233527e+10 4.501125e+08
4.410908e+10 -4.788709e+10 9.334656e+08
-7.282916e+08 6.870682e+10 -1.223245e+09
-2.973953e+09 7.228775e+10 -1.241079e+09
-5.514583e+09 6.896939e+10 1.293829e+09
-7.423623e+09 7.073112e+10 5.205445e+07
-8.412772e+09 6.921836e+10 -1.211656e+09
-1.136118e+10 6.889215e+10 1.069829e+09
-5.579055e+10 4.517733e+10 -7.823179e+08
-5.517563e+10 4.232221e+10 -8.491936e+07
-5.642869e+10 4.107453e+10 3.420732e+08
-5.807387e+10 4.082396e+10 7.056665e+07
4.736350e+10 -4.963222e+10 5.955516e+08
-1.508614e+10 7.052868e+10 -6.283102e+08
-1.644094e+10 6.871391e+10 6.552958e+07
-1.784987e+10 6.754855e+10 3.508104e+08
-2.052564e+10 6.929982e+10 -1.215352e+09
-2.197706e+10 6.553835e+10 -9.908359e+07
-2.403151e+10 6.540737e+10 -9.429619e+08
-2.475951e+10 6.511356e+10 -9.465628e+08
-2.700411e+10 6.420626e+10 -9.928361e+08
-2.903014e+10 6.419942e+10 -1.584615e+08
-2.996809e+10 6.368933e+10 1.098560e+08
4.698671e+10 -4.693486e+10 -2.054698e+09
-3.233397e+10 6.294661e+10 3.891951e+08
1.246813e+10 6.886729e+10 -4.824519e+08
9.253882e+09 6.907108e+10 -6.870947e+07
7.462988e+09 6.945018e+10 3.417891e+08
6.531148e+09 7.080377e+10 7.912438e+07
3.417400e+10 6.162508e+10 6.618140e+08
3.620996e+10 5.977605e+10 1.642563e+08
3.770260e+10 5.838053e+10 -1.205558e+09
3.938616e+10 5.944987e+10 7.345786e+07
-6.583239e+10 2.052455e+10 -9.055439e+08
4.586112e+10 -4.804842e+10 6.467614e+08
6.257271e+10 3.156835e+10 -4.867570e+08
6.101833e+10 3.458333e+10 -9.589017e+07
6.018379e+10 3.602257e+10 2.836786e+08
6.045989e+10 3.726337e+10 3.037200e+08
-4.798995e+10 5.124661e+10 -8.216161e+08
1.973742e+10 6.782675e+10 1.383516e+08
6.887184e+10 1.313965e+10 -1.150607e+09
5.749694e+10 3.979433e+10 -1.084781e+09
5.564883e+10 4.199739e+10 -2.595759e+08
5.547528e+10 4.230010e+10 -1.554857e+09
4.764809e+10 -4.800042e+10 1.240284e+09
5.439764e+10 4.526014e+10 -1.300354e+09
5.213886e+10 4.678749e+10 1.298796e+09
5.182673e+10 4.831777e+10 5.610546e+07
4.995717e+10 4.857820e+10 -1.290202e+09
4.795720e+10 5.049685e+10 9.829463e+08
2.223713e+10 6.683868e+10 6.582535e+08
2.458263e+10 6.642423e+10 3.589771e+07
2.662130e+10 6.555735e+10 1.204316e+09
2.766579e+10 6.380909e+10 -3.421312e+08
6.557432e+10 2.596304e+10 7.320486e+08
4.768583e+10 -4.550133e+10 1.189284e+09
4.227823e+10 5.625556e+10 5.663208e+08
6.341984e+10 2.896171e+10 -5.803786e+08
4.512878e+10 5.262018e+10 -9.472608e+08
3.123094e+10 6.143037e+10 -6.240142e+08
6.738260e+10 2.421993e+10 9.912132e+08
6.734316e+10 1.973100e+10 8.271364e+08
6.614543e+10 1.867706e+10 -1.898913e+08
6.770723e+10 1.642542e+10 -3.084393e+08
1.467718e+10 6.721755e+10 3.534290e+08
-3.651569e+10 5.906235e+10 7.403437e+08
4.717991e+10 -4.658624e+10 -4.105744e+08
-5.148157e+10 4.632578e+10 -6.705233e+06
-6.768161e+10 1.719778e+10 -1.742128e+07
-5.870325e+10 3.540297e+10 9.204177e+08
-6.516065e+10 2.470166e+10 7.011860e+08
5.245678e+10 -4.387215e+10 -7.439107e+08
-5.315968e+10 -4.510432e+10 9.392566e+08
-5.410413e+10 -4.464822e+10 1.135157e+09
5.421220e+10 -4.230549e+10 -2.300221e+08
6.089557e+10 -2.710530e+10 1.521717e+09
-4.707647e+10 -5.272164e+10 -2.154286e+08
4.672942e+10 -4.612957e+10 -1.859619e+09
4.666284e+10 -5.232820e+10 6.082100e+08
8.041085e+09 -6.924423e+10 -1.247525e+08
6.555320e+10 -2.286449e+10 1.334752e+09
-3.735797e+10 -5.777122e+10 -8.090119e+08
3.829354e+10 -5.870722e+10 -1.005116e+09
1.296565e+10 -6.909028e+10 1.016763e+09
9.864128e+09 -7.150233e+10 -4.009715e+08
6.542055e+10 -2.186406e+10 -2.126110e+08
5.900587e+10 -4.494318e+10 1.294190e+08
6.353179e+10 -2.915265e+10 -7.843996e+08
4.922396e+10 -4.526084e+10 -1.089379e+08
-4.852211e+10 -5.189779e+10 3.060233e+08
-2.235315e+09 -7.272428e+10 -1.960859e+09
-1.560995e+10 -7.093406e+10 -1.002271e+09
-1.568295e+10 -6.640251e+10 -5.262080e+08
6.862645e+10 6.556968e+09 6.173212e+08
-1.575089e+10 -6.797205e+10 6.176923e+08
-1.754315e+10 -6.757820e+10 1.757821e+09
6.928944e+10 -1.205042e+10 -3.197878e+08
6.840721e+10 -1.300212e+10 -5.103874e+08
-7.097520e+10 2.272783e+10 1.227357e+09
4.953134e+10 -4.670868e+10 -4.144649e+08
-6.832766e+10 2.597924e+10 -3.813222e+08
7.221060e+10 1.315092e+10 -5.218294e+08
4.684671e+10 5.582059e+10 1.368620e+09
6.945822e+10 2.757450e+10 -9.050792e+08
4.170552e+10 5.884017e+10 5.069260e+07
1.991266e+10 7.003177e+10 3.778651e+06
-5.139524e+10 5.145739e+10 -1.548473e+09
6.843613e+10 3.162236e+10 3.004776e+08
1.359030e+10 7.143347e+10 -6.443886e+07
-3.748511e+10 6.063434e+10 -1.061991e+09
4.944398e+10 -4.470990e+10 -1.254882e+08
3.227289e+10 6.427727e+10 4.331052e+08
-5.443177e+10 4.900814e+10 1.662811e+08
-6.234377e+10 3.616855e+10 -8.917602e+08
-6.730586e+10 1.469025e+10 1.194022e+08
-7.333409e+10 1.062802e+08 8.582330e+07
6.888752e+10 -1.506322e+10 -1.646973e+08
6.971724e+10 -1.585628e+10 -1.196906e+08
4.723092e+10 -5.253213e+10 8.886503e+08
4.609969e+10 -5.283116e+10 4.869680e+08
5.093791e+10 5.225169e+10 4.923153e+08
5.038732e+10 -4.504043e+10 -7.668155e+07
-1.069187e+10 7.250179e+10 1.010921e+09
6.885911e+10 -1.151633e+10 -3.122125e+08
-1.352796e+10 6.869901e+10 -1.362088e+09
4.717114e+10 5.260949e+10 -1.013066e+09
1.374552e+10 -6.925650e+10 1.121572e+08
-9.957341e+09 -7.195956e+10 -2.785809e+08
6.833588e+10 -2.078350e+10 -5.161986e+08
-4.864155e+10 -4.871252e+10 7.022394e+08
-4.970163e+10 -4.888609e+10 -4.698711e+08
-6.966770e+10 1.766516e+09 1.192663e+09
4.950439e+10 -4.284802e+10 -3.893517e+08
-6.734139e+10 1.386043e+10 -1.148963e+09
-6.079659e+10 3.478219e+10 -1.040952e+09
-5.005685e+10 4.775402e+10 -1.862689e+08
-5.315112e+10 4.567410e+10 -7.964551e+08
4.030578e+10 5.737823e+10 -7.907620e+08
6.356240e+10 3.103831e+10 -9.470218e+08
7.130308e+10 1.126581e+10 3.026204e+09
2.202297e+10 6.581857e+10 6.942691e+08
6.412333e+10 2.714300e+10 -7.661820e+08
-3.717330e+10 5.794895e+10 -8.878353e+08
5.187806e+10 -4.307795e+10 -1.055203e+09
1.294550e+10 6.904433e+10 -1.054434e+09
3.370219e+10 6.046146e+10 6.747027e+08
-6.483079e+10 2.631499e+10 9.672677e+08
-6.582129e+10 2.259915e+10 7.428093e+08
6.620162e+10 -2.081306e+10 1.420986e+09
-2.275804e+10 -6.596668e+10 5.106352e+08
-2.307817e+10 -6.448067e+10 2.384336e+08
2.230892e+10 -6.687982e+10 2.913291e+08
2.396075e+10 -6.428741e+10 -8.010591e+07
-6.603513e+10 2.395027e+10 -1.138845e+08
4.921732e+10 -4.313726e+10 -7.309556e+08
-3.781352e+10 5.947553e+10 -5.280181e+08
-5.329368e+10 4.515045e+10 -3.191336e+08
-6.899678e+10 1.415263e+10 -5.266417e+08
1.157794e+10 6.921181e+10 -4.414159e+08
-6.322375e+10 2.619466e+10 -4.690527e+08
6.755701e+10 1.120400e+10 -9.929680e+08
3.468680e+10 6.211420e+10 6.095937e+08
3.819057e+10 5.613650e+10 -1.446823e+09
6.419283e+10 2.840680e+10 9.773476e+07
2.265249e+10 6.744728e+10 6.108102e+08
5.273590e+10 -4.198566e+10 -3.700404e+08
6.225424e+10 3.235462e+10 -4.373905e+08
-6.061597e+10 3.445913e+10 -3.134500e+08
-5.086844e+10 4.763458e+10 1.559852e+08
-6.805799e+10 1.653622e+09 9.569727e+08
3.360900e+10 -5.931776e+10 -5.542039e+08
-3.359839e+10 -5.919269e+10 2.580046e+08
5.920113e+10 -3.870744e+10 1.041315e+09
4.640682e+10 5.411543e+10 2.243158e+09
-1.572887e+10 7.041884e+10 -4.579255e+07
6.413839e+10 -2.123577e+10 -1.301032e+09
5.191096e+10 -4.207243e+10 -6.862845e+08
5.711621e+10 -4.055822e+10 -1.289212e+09
4.937534e+10 -4.841396e+10 1.191324e+09
-5.293638e+10 -4.974624e+10 7.239438e+07
-5.189301e+10 -4.708197e+10 -3.028439e+08
4.230926e+10 -5.417082e+10 -8.337451e+08
-4.232986e+10 -5.456825e+10 -8.644978e+08
-5.114963e+10 -4.529267e+10 -1.175551e+09
-3.233780e+10 -6.299107e+10 6.828202e+08
3.293044e+10 -6.285765e+10 -7.236127e+08
9.175392e+09 -6.728115e+10 3.344739e+08
5.174217e+10 -4.292655e+10 -4.635712e+08
6.765298e+09 -6.698852e+10 -8.574912e+08
-6.635876e+09 7.176936e+10 -2.057873e+08
5.268760e+10 4.793383e+10 3.704753e+08
-2.319072e+10 6.695076e+10 4.839366e+08
5.929402e+10 -4.038952e+10 -5.036681e+08
4.352516e+10 -5.865853e+10 1.563220e+09
-4.342612e+10 -5.914277e+10 1.565803e+09
5.582526e+10 -4.013377e+10 6.937272e+08
-5.436680e+10 -4.012693e+10 2.391172e+09
-4.499931e+09 -6.944927e+10 -5.686746e+08
5.225685e+10 -3.822956e+10 -4.530464e+08
-6.432805e+09 -6.983130e+10 5.772454e+08
4.974582e+10 -4.533948e+10 3.387960e+08
-5.838851e+10 -3.937674e+10 3.053814e+08
2.727801e+10 -6.565429e+10 -4.216279e+08
2.583443e+10 -6.311026e+10 8.985972e+08
2.465824e+10 -6.668419e+10 -7.037044e+07
-2.719991e+10 -6.649559e+10 -5.700575e+08
-2.661401e+10 -6.539401e+10 5.546596e+08
-2.500283e+10 -6.554292e+10 -5.102211e+08
5.051912e+10 -4.841190e+10 7.576372e+08
5.292875e+10 -3.985463e+10 -8.995288e+07
6.848015e+10 -9.311926e+09 -1.390578e+09
2.906657e+10 -6.533561e+10 -1.001449e+09
-2.931298e+10 -6.571374e+10 -9.490448e+08
-6.048194e+10 -3.708816e+10 -1.135431e+09
-6.911355e+10 -1.958404e+10 -4.567482e+08
-4.585790e+10 5.428034e+10 2.424383e+08
-7.073233e+10 4.768707e+09 2.237118e+08
-4.921857e+10 -4.825945e+10 -9.217204e+08
1.251540e+10 -6.903879e+10 3.687053e+08
-2.283150e+10 -6.726827e+10 4.008586e+08
5.145469e+10 -4.073637e+10 -9.094721e+08
2.566167e+10 -6.319073e+10 3.788221e+08
2.312707e+10 -6.883002e+10 3.941613e+08
-2.366089e+10 -6.310994e+10 9.206302e+08
5.907598e+10 -3.657944e+10 3.101302e+08
-5.153871e+10 -4.416811e+10 -2.786104e+09
6.269479e+10 -2.996151e+10 -1.239703e+09
-5.012991e+10 -4.750439e+10 1.014290e+08
5.535584e+09 -6.947551e+10 4.535184e+08
6.357524e+10 -2.487274e+10 -7.733387e+07
-5.689971e+10 -4.022170e+10 3.595621e+08
5.301801e+10 -3.882101e+10 -3.753069e+06
6.396251e+10 -2.608209e+10 -4.804389e+07
-6.335264e+10 -2.885141e+10 8.167508e+08
-1.212368e+10 -6.978205e+10 1.501031e+07
-6.992538e+10 -1.063149e+10 -6.795151e+08
-6.990658e+10 -2.822596e+09 -9.320531e+08
-6.716351e+10 1.847232e+10 -6.750687e+08
-3.294971e+10 6.166983e+10 -5.349550e+08
1.665318e+10 7.006885e+10 -5.931414e+08
2.909466e+10 6.299988e+10 -1.039672e+09
5.897461e+10 3.831194e+10 -8.165515e+08
5.407033e+10 -4.018197e+10 2.712806e+08
-5.840632e+10 3.875868e+10 -4.955386e+08
-4.745488e+10 5.073316e+10 2.170516e+09
4.662736e+09 6.984692e+10 -5.660211e+08
6.688910e+10 2.299926e+10 1.209854e+09
4.252405e+10 5.609366e+10 -2.159472e+08
6.770183e+10 1.493923e+10 -9.822989e+08
2.920785e+09 -7.216650e+10 8.130496e+08
-1.045425e+10 -6.836308e+10 7.346873e+08
-7.038031e+10 -1.313771e+10 -2.496761e+07
-7.139367e+10 -4.272924e+09 -2.280412e+08
5.505752e+10 -3.827221e+10 5.645702e+08
-3.470383e+10 6.244070e+10 -8.032733e+06
2.777927e+10 6.706877e+10 -1.414100e+08
1.798452e+10 6.909507e+10 -3.062774e+08
-4.709136e+10 5.347937e+10 -2.914674e+08
2.291834e+09 7.209948e+10 -8.934098e+07
6.756994e+10 2.170847e+10 9.833853e+08
4.554182e+10 5.635111e+10 3.434800e+08
5.837460e+10 4.131938e+10 5.571928e+08
7.101897e+10 1.818486e+10 -4.005462e+08
-6.990174e+10 1.953324e+10 8.563729e+08
5.564444e+10 -3.895397e+10 7.512871e+08
-6.010547e+10 3.863197e+10 -6.832746e+07
3.513878e+10 -5.931532e+10 5.843925e+08
3.569385e+10 -6.159778e+10 1.238229e+09
-3.594364e+10 -6.063232e+10 3.864121e+07
-3.579155e+10 -5.990691e+10 2.128314e+08
-6.320552e+10 -2.743162e+10 -2.452541e+08
6.545980e+10 -3.238788e+10 2.789710e+08
6.892963e+10 -2.711985e+09 3.060045e+08
6.855061e+10 -5.976197e+09 6.936127e+08
6.945743e+10 2.448345e+09 -3.630134e+08
5.454374e+10 -3.640841e+10 2.636836e+08
1.980214e+09 -6.806457e+10 3.749972e+08
-1.800610e+09 -6.751100e+10 2.835397e+08
6.961055e+10 -4.918858e+09 7.404400e+08
-6.112200e+10 -3.121457e+10 -5.646848e+08
6.512076e+10 -2.695427e+10 1.384870e+09
4.216810e+10 -5.872348e+10 -6.608886e+08
3.931158e+10 -5.702517e+10 -1.107402e+09
-4.119302e+10 -5.937599e+10 -1.438219e+09
-4.017093e+10 -5.852147e+10 -1.333820e+09
-6.735377e+10 -2.554069e+10 -7.292618e+07
5.429850e+10 -3.662499e+10 -1.909747e+08
6.706421e+10 -2.622308e+10 3.027904e+08
6.697947e+10 -1.604965e+10 1.449516e+08
-6.406907e+10 -3.169097e+10 -1.026771e+09
-6.317547e+09 7.035879e+10 -1.305258e+09
-2.347950e+10 6.675316e+10 -3.890054e+08
5.235290e+10 4.733746e+10 -1.311006e+09
7.129096e+10 -1.801032e+09 -2.454677e+08
7.127234e+10 6.804378e+08 1.107499e+09
4.335428e+10 -5.436093e+10 5.219319e+07
4.090253e+10 -5.766366e+10 -1.384575e+09
5.616150e+10 -3.655375e+10 5.892408e+08
4.194205e+10 -5.389209e+10 7.489159e+08
-4.290411e+10 -5.552840e+10 -7.804479e+07
-4.147293e+10 -5.771089e+10 -2.209018e+09
-4.318146e+10 -5.445118e+10 1.195780e+09
-3.941174e+10 -5.963172e+10 -1.316827e+09
4.048097e+10 -6.029147e+10 -4.204634e+08
1.275555e+10 -6.986451e+10 -1.101055e+09
2.664081e+10 -6.558183e+10 1.991443e+08
-2.676130e+10 -6.782714e+10 1.785006e+08
-4.498571e+10 -5.158227e+10 2.096470e+09
5.488826e+10 -3.721258e+10 -3.030388e+08
1.705805e+10 -6.544531e+10 3.338197e+08
6.855173e+10 3.565329e+09 -3.620439e+08
-6.944761e+10 1.343030e+10 -1.189875e+08
-7.101701e+10 1.249328e+10 -5.243889e+08
-6.206018e+10 3.290214e+10 3.885838e+08
-6.303071e+10 3.334833e+10 5.325126e+08
-5.506499e+10 4.391847e+10 4.215723e+08
-5.575475e+10 4.436461e+10 6.732452e+08
-3.861332e+10 5.930206e+10 -1.362965e+08
-4.039457e+10 5.971528e+10 -5.275112e+08
5.613971e+10 -3.577656e+10 -9.097525e+08
1.146293e+10 6.966104e+10 -2.832767e+08
1.040003e+10 7.082419e+10 -5.870155e+08
-5.370609e+10 4.841159e+10 -4.040975e+08
2.229588e+10 6.696618e+10 3.019804e+07
2.401658e+10 6.798742e+10 6.420780e+08
4.030031e+10 5.872489e+10 6.362408e+08
6.257844e+10 3.281079e+10 -2.260534e+08
6.327135e+10 3.457622e+10 -5.822661e+08
3.421893e+10 6.167491e+10 1.973007e+07
3.613069e+10 6.238833e+10 7.623198e+08
5.630655e+10 -3.602305e+10 3.031930e+08
6.702138e+10 3.078225e+10 -1.551595e+09
-6.579825e+10 2.877215e+10 -3.799957e+08
-6.915521e+10 2.604445e+10 1.537399e+09
-7.064284e+10 8.961383e+08 -7.448344e+08
-1.489464e+10 7.000169e+10 5.504520e+08
-1.611679e+10 6.977215e+10 -7.373512e+08
6.860365e+10 -1.676331e+10 8.109817e+08
5.121391e+10 -5.179751e+10 -3.982329e+08
-7.138489e+10 -9.055423e+09 -4.180645e+08
-7.393198e+10 -9.567466e+09 8.188607e+08
6.015422e+10 -3.563305e+10 4.040701e+07
-7.303601e+10 -2.803089e+08 -1.501214e+08
-3.225063e+10 6.400095e+10 -6.059178e+08
-3.150634e+10 6.633987e+10 -1.521272e+08
-6.968488e+10 2.173942e+10 -5.653530e+06
2.014054e+10 6.950046e+10 5.613290e+08
-5.146327e+10 5.235851e+10 -1.407047e+09
3.235115e+10 6.516835e+10 -3.720822e+08
6.088837e+10 3.792303e+10 -4.293779e+08
6.203425e+10 3.745600e+10 2.028931e+08
4.752086e+10 5.611739e+10 -4.924033e+08
5.856649e+10 -3.610300e+10 2.576918e+08
6.852388e+10 2.679658e+10 9.357384e+08
6.426152e+09 7.150917e+10 -7.983897e+08
8.344677e+09 7.471117e+10 -1.339541e+09
6.992492e+10 1.298156e+10 -4.188889e+08
-5.878423e+10 4.126768e+10 -8.296679e+08
-6.052771e+10 4.442217e+10 -1.382019e+09
4.913744e+10 -5.402298e+10 2.706821e+08
-6.729226e+10 -2.388528e+10 -2.063247e+08
-6.838564e+10 -1.262201e+10 -9.222983e+07
-3.325429e+10 6.092032e+10 -1.086497e+09
5.817967e+10 -3.305410e+10 -3.765668e+08
-7.041233e+10 -3.199677e+09 -3.369316e+08
-6.363138e+10 2.637811e+10 1.581903e+09
-5.793771e+10 3.772862e+10 -1.029266e+09
4.381554e+09 6.962861e+10 -9.844557e+08
6.778953e+10 1.559308e+10 -2.899031e+07
4.032213e+10 5.785791e+10 -1.939600e+09
2.842406e+10 6.354681e+10 5.606027e+06
5.750005e+10 3.829508e+10 -1.427070e+09
1.484892e+10 -6.733022e+10 1.586127e+09
-6.512298e+10 -2.274419e+10 1.068526e+09
5.805729e+10 -3.344414e+10 3.612337e+08
5.171099e+10 -4.683141e+10 8.696159e+07
5.175463e+10 -5.019882e+10 -1.335866e+08
-5.483218e+10 -4.282474e+10 -1.102181e+09
-5.823302e+10 -4.161659e+10 1.123242e+09
-4.665229e+10 -5.118284e+10 -5.177171e+08
-5.696230e+10 -3.589961e+10 1.192231e+08
-2.161089e+10 -6.899112e+10 -6.484905e+08
2.160084e+10 -6.833087e+10 -1.939298e+09
5.616767e+10 -4.202811e+10 -5.714676e+08
3.005947e+10 -6.501567e+10 -4.302686e+08
5.826344e+10 -3.426694e+10 -7.429426e+08
-2.976235e+10 -6.531405e+10 -4.354982e+07
-4.534930e+09 -6.915085e+10 1.353270e+09
5.581741e+10 -4.185781e+10 6.942446e+08
-6.468391e+10 -2.405313e+10 -5.374869e+07
6.827062e+10 -1.830894e+10 -1.099347e+09
4.719657e+10 5.014343e+10 1.061637e+09
-1.165723e+10 6.798381e+10 1.243412e+09
-6.888553e+10 7.787140e+09 -4.492520e+08
-2.259856e+09 6.813589e+10 8.865654e+08
-1.888217e+10 6.584883e+10 6.057901e+08
5.829319e+10 -3.233105e+10 2.215756e+08
-4.226160e+10 5.487873e+10 -4.473149e+08
5.376724e+10 4.368622e+10 -4.941614e+08
-6.075714e+10 -4.002190e+10 -4.216393e+08
1.469149e+10 -6.851954e+10 2.485374e+08
-1.354605e+10 -6.734673e+10 2.226118e+09
5.070493e+10 -5.178758e+10 -1.330509e+09
7.054350e+10 -7.384337e+09 1.167740e+08
-2.043208e+10 -6.698433e+10 6.481217e+08
2.007899e+10 -6.591530e+10 -9.726951e+08
-6.875307e+10 8.008792e+08 5.267902e+08
6.127999e+10 -3.067504e+10 3.068704e+08
-6.569541e+10 2.025167e+10 5.861825e+07
-6.850557e+10 1.928847e+10 2.968878e+08
-5.308107e+10 4.416375e+10 -1.149887e+09
-6.471716e+10 2.519209e+10 -7.738868e+08
-4.698127e+10 4.944811e+10 -1.084889e+09
-4.653274e+10 5.323556e+10 2.476114e+09
-4.899739e+10 4.774280e+10 -7.424290e+08