# vtk DataFile Version 2.0
Electric current density generated by TTH
ASCII
DATASET UNSTRUCTURED_GRID
POINTS 3432 double
-9.231225e-06 2.912483e-05 -2.867766e-22
-2.897978e-05 -8.468820e-06 8.455005e-07
2.468840e-05 -1.739795e-05 8.349443e-07
2.468840e-05 1.739795e-05 8.349443e-07
1.089775e-05 2.810258e-05 -8.909410e-07
-2.475938e-05 -1.376757e-05 5.136040e-07
-2.069937e-05 2.059914e-05 -1.157035e-06
2.921714e-05 7.478746e-06 8.756943e-07
2.921714e-05 -7.478746e-06 8.756943e-07
-1.869025e-05 2.358736e-05 9.289122e-07
-2.703375e-05 1.004719e-05 1.038117e-06
-9.929619e-06 2.889419e-05 -2.867766e-22
1.719187e-05 -2.477969e-05 -8.753895e-07
1.719187e-05 2.477969e-05 -8.753895e-07
-2.872010e-05 9.125266e-06 8.965730e-07
2.335485e-05 -1.916327e-05 8.271574e-07
2.335485e-05 1.916327e-05 8.271574e-07
-1.357285e-05 2.507481e-05 -7.843422e-07
-1.738787e-05 2.239077e-05 5.519839e-07
-2.304583e-05 1.713600e-05 9.647778e-07
2.549518e-05 1.620892e-05 -8.262673e-07
2.549518e-05 -1.620892e-05 -8.262673e-07
-1.062226e-05 2.864680e-05 -2.867766e-22
7.648417e-06 2.921349e-05 8.394671e-07
-2.272930e-05 1.985970e-05 -8.536652e-07
1.181603e-05 2.769768e-05 9.147218e-07
1.181603e-05 -2.769768e-05 9.147218e-07
5.772739e-07 -3.016165e-05 8.684829e-07
-2.522546e-05 -1.644644e-05 9.143346e-07
-2.787811e-05 7.161242e-06 -1.006203e-06
2.144791e-06 3.007813e-05 -8.797691e-07
1.581547e-05 -2.388100e-05 9.083869e-07
1.581547e-05 2.388100e-05 9.083869e-07
-1.130874e-05 2.838281e-05 -2.867766e-22
1.182280e-06 -2.865477e-05 -9.364999e-07
-2.365530e-05 -1.621630e-05 -9.371280e-07
2.504777e-05 -1.316081e-05 4.349296e-07
2.504777e-05 1.316081e-05 4.349296e-07
-2.742686e-05 8.541095e-06 9.698870e-07
-1.679639e-05 2.506229e-05 8.657932e-07
2.696851e-05 -1.341759e-05 -9.073222e-07
2.696851e-05 1.341759e-05 -9.073222e-07
-2.578423e-05 1.565735e-05 8.696644e-07
2.797452e-05 -6.399836e-06 9.498030e-07
-1.198867e-05 2.810237e-05 -2.867766e-22
2.797452e-05 6.399836e-06 9.498030e-07
-2.500178e-06 -2.872121e-05 1.032522e-06
-5.996056e-06 2.799590e-05 -8.981883e-07
8.625091e-06 -2.757456e-05 -1.063440e-06
-2.878482e-05 -5.378383e-07 -1.010130e-06
2.087598e-05 2.086145e-05 1.163513e-06
2.087598e-05 -2.086145e-05 1.163513e-06
-1.855481e-05 -2.380130e-05 -8.574767e-07
2.515446e-05 1.430928e-05 -1.084107e-06
2.515446e-05 -1.430928e-05 -1.084107e-06
-1.266166e-05 2.780564e-05 -2.867766e-22
-3.683256e-06 2.996441e-05 8.473464e-07
-2.209920e-05 1.814158e-05 8.640898e-07
-1.058181e-05 -2.668805e-05 9.584183e-07
2.825553e-05 -2.229506e-06 5.406440e-07
2.825553e-05 2.229506e-06 5.406440e-07
1.289598e-05 -2.510885e-05 -1.922314e-07
-2.791913e-05 6.565812e-06 9.377261e-07
-2.376267e-05 1.855399e-05 8.852571e-07
-8.165192e-06 2.749635e-05 9.394418e-07
5.137646e-06 2.822428e-05 9.431269e-07
-1.332730e-05 2.749281e-05 -2.867766e-22
2.786116e-05 5.309622e-06 -5.760979e-07
2.786116e-05 -5.309622e-06 -5.760979e-07
8.415671e-07 3.013708e-05 8.847215e-07
-2.863170e-05 6.744336e-07 -9.055079e-07
-9.089597e-07 3.019702e-05 8.270461e-07
-9.544738e-06 2.862877e-05 8.586204e-07
1.286996e-05 2.512340e-05 -1.986037e-07
1.813948e-05 2.241505e-05 1.035436e-06
1.813948e-05 -2.241505e-05 1.035436e-06
3.087277e-06 2.844012e-05 -8.779091e-07
-1.398523e-05 2.716404e-05 -2.867766e-22
-2.530436e-05 1.369696e-05 1.000404e-06
2.139760e-05 -1.863114e-05 5.926218e-07
2.139760e-05 1.863114e-05 5.926218e-07
1.979245e-05 -2.274095e-05 8.855887e-07
1.979245e-05 2.274095e-05 8.855887e-07
-2.665695e-05 9.341905e-06 -2.858620e-07
2.915520e-05 -7.766128e-06 -8.642646e-07
2.915520e-05 7.766128e-06 -8.642646e-07
-3.861990e-06 2.847950e-05 -9.793158e-07
-1.321730e-05 2.713351e-05 8.552890e-07
-1.463504e-05 2.681952e-05 -2.867766e-22
1.181995e-06 2.829794e-05 4.987880e-07
-1.316582e-05 -2.713551e-05 8.741868e-07
-2.460564e-05 1.415998e-05 -6.207082e-07
-2.837851e-05 4.203174e-06 -9.431403e-07
-2.675480e-05 -1.041152e-05 9.583255e-07
-9.185694e-06 2.757422e-05 1.126862e-06
-8.066127e-06 2.798847e-05 -1.142901e-06
-3.024047e-05 -1.037323e-19 -7.961007e-07
2.740967e-05 -8.292609e-06 9.030411e-07
2.740967e-05 8.292609e-06 9.030411e-07
-1.527638e-05 2.645947e-05 -2.867766e-22
-2.574726e-05 -1.277861e-05 9.817849e-07
2.836215e-05 -8.702741e-07 -5.983686e-07
2.834042e-05 9.625560e-07 -5.656587e-07
-1.080941e-05 -2.821726e-05 8.208527e-07
-8.966579e-06 -2.675902e-05 -1.549187e-07
-1.143792e-05 -2.633551e-05 9.603461e-07
-1.918166e-05 2.183044e-05 1.125833e-06
9.062051e-06 2.671975e-05 9.154298e-08
-1.096963e-05 2.599764e-05 1.197177e-07
-8.842978e-07 2.907008e-05 1.132197e-06
-1.590887e-05 2.608408e-05 -2.867766e-22
2.220540e-05 -1.790290e-05 7.963299e-07
2.220540e-05 1.790290e-05 7.963299e-07
2.668950e-05 9.879022e-06 -7.207271e-07
2.668950e-05 -9.879022e-06 -7.207271e-07
8.570650e-06 -2.690205e-05 -2.322261e-07
2.830391e-05 1.051833e-05 8.423464e-07
2.888729e-05 8.586749e-06 8.952762e-07
2.888729e-05 -8.586749e-06 8.952762e-07
2.830391e-05 -1.051833e-05 8.423464e-07
-1.480935e-05 2.637879e-05 7.839616e-07
-1.653213e-05 2.569358e-05 -2.867766e-22
-5.312235e-06 2.975186e-05 8.151641e-07
-2.391858e-05 -1.507517e-05 -3.756313e-07
7.654047e-08 -2.827247e-05 -3.745211e-07
-2.016706e-05 2.251306e-05 8.125075e-07
-1.066248e-05 -2.824728e-05 -8.447291e-07
2.153893e-05 -2.113770e-05 -8.583241e-07
2.153893e-05 2.113770e-05 -8.583241e-07
2.621690e-05 1.500884e-05 -8.286267e-07
2.621690e-05 -1.500884e-05 -8.286267e-07
-2.820696e-05 5.584105e-06 9.884909e-07
-1.714582e-05 2.528819e-05 -2.867766e-22
-5.919519e-07 -2.889372e-05 1.066982e-06
-2.479936e-05 -1.483916e-05 1.067072e-06
-2.295002e-05 1.961129e-05 8.493263e-07
-3.509325e-06 2.822894e-05 7.038539e-07
1.541277e-05 2.448224e-05 -1.080046e-06
1.541277e-05 -2.448224e-05 -1.080046e-06
-2.851097e-05 2.321224e-06 -8.762322e-07
9.022796e-06 2.772459e-05 -1.148825e-06
6.162419e-06 2.842403e-05 1.132420e-06
1.075364e-05 2.720285e-05 -1.163541e-06
-1.774956e-05 2.486814e-05 -2.867766e-22
6.523573e-06 2.944417e-05 -8.765276e-07
-6.816048e-07 3.015024e-05 -8.767400e-07
-2.903443e-05 1.668368e-06 -1.131878e-06
-1.990174e-06 2.899275e-05 -1.126012e-06
4.977874e-06 2.863366e-05 -1.126625e-06
-1.632252e-05 -2.399401e-05 1.113388e-06
-2.004003e-05 -2.101959e-05 1.120369e-06
1.245818e-05 -2.761164e-05 -7.365580e-07
1.009184e-05 -2.847994e-05 8.226178e-07
-7.515466e-06 -2.804553e-05 1.118297e-06
-1.834303e-05 2.443368e-05 -2.867766e-22
-2.879243e-05 -3.745863e-06 1.118303e-06
-8.986139e-06 -2.748189e-05 -1.073186e-06
-1.757388e-05 -2.295646e-05 -1.071938e-06
-1.871975e-05 -2.202770e-05 -1.070474e-06
-2.882360e-05 -2.309690e-06 -1.074162e-06
-1.178773e-05 2.665670e-05 -1.146987e-06
1.642994e-05 -2.537846e-05 8.045207e-07
1.642994e-05 2.537846e-05 8.045207e-07
-2.733911e-05 1.080251e-05 -1.170770e-06
7.508138e-06 -2.795298e-05 -1.085783e-06
-1.892586e-05 2.398506e-05 -2.867766e-22
-1.942417e-05 2.046357e-05 -8.931584e-08
-5.027133e-06 2.865741e-05 -1.135157e-06
1.663033e-05 -2.326430e-05 8.689171e-07
1.663033e-05 2.326430e-05 8.689171e-07
3.677667e-07 -2.836530e-05 5.850105e-07
-2.389873e-05 -1.530079e-05 6.011561e-07
-3.722876e-06 -3.000811e-05 7.985821e-07
1.899335e-06 2.903446e-05 -1.135541e-06
2.753704e-05 -8.282761e-06 -9.893516e-07
2.753704e-05 8.282761e-06 -9.893516e-07
-1.949772e-05 2.352254e-05 -2.867766e-22
-2.582811e-05 1.172787e-05 5.822226e-07
2.587020e-05 -1.542897e-05 9.074779e-07
2.587020e-05 1.542897e-05 9.074779e-07
-1.610135e-05 2.317958e-05 1.679116e-07
-2.688134e-06 -2.810704e-05 -2.369876e-07
7.074557e-06 -2.829443e-05 1.150673e-06
2.047092e-05 1.978684e-05 7.351845e-07
2.047092e-05 -1.978684e-05 7.351845e-07
-2.779571e-05 -1.198082e-05 -7.655375e-07
-2.608630e-05 -1.535232e-05 -7.646267e-07
-2.005829e-05 2.304640e-05 -2.867766e-22
-8.434949e-07 -3.025415e-05 -7.677590e-07
2.793002e-05 -7.285954e-06 1.050429e-06
2.793002e-05 7.285954e-06 1.050429e-06
-2.147458e-05 1.830661e-05 -1.327000e-07
1.131926e-05 -2.592649e-05 -4.219286e-07
-3.998933e-06 -2.800077e-05 4.091718e-07
-7.772360e-06 -2.787513e-05 -1.083614e-06
-1.655125e-05 -2.373087e-05 -1.081232e-06
-1.974145e-05 -2.115001e-05 -1.080870e-06
-2.872732e-05 -3.440807e-06 -1.081232e-06
-2.060723e-05 2.255689e-05 -2.867766e-22
-9.704346e-06 2.862053e-05 -8.165904e-07
1.390827e-05 -2.690353e-05 -7.440276e-07
1.441974e-05 -2.425646e-05 1.351029e-07
1.441974e-05 2.425646e-05 1.351029e-07
-2.788313e-05 4.289044e-06 7.506177e-09
1.519014e-05 -2.619520e-05 -7.502294e-07
1.540034e-05 2.614781e-05 -6.644256e-07
-2.138263e-05 1.950098e-05 1.084127e-06
2.352661e-05 -1.563955e-05 -3.017697e-07
2.352661e-05 1.563955e-05 -3.017697e-07
-2.114423e-05 2.205432e-05 -2.867766e-22
-2.983822e-05 -4.719623e-06 -8.285753e-07
-2.145892e-05 -2.127720e-05 -8.183638e-07
-1.633614e-05 -2.541111e-05 -8.285750e-07
-6.991514e-06 -2.939939e-05 -8.183525e-07
-2.864090e-05 5.055892e-06 -1.132249e-06
2.824367e-05 -4.351892e-06 8.502882e-07
2.824367e-05 4.351892e-06 8.502882e-07
-3.015935e-05 2.278210e-06 -7.908859e-07
-2.250849e-05 1.714821e-05 -4.391340e-07
-1.806869e-05 -2.319393e-05 1.170694e-06
-2.166898e-05 2.153896e-05 -2.867766e-22
1.585370e-05 2.353277e-05 -5.972377e-07
1.585370e-05 -2.353277e-05 -5.972377e-07
6.665198e-06 -2.948866e-05 -8.045723e-07
2.894069e-05 3.931267e-06 -1.157637e-06
2.894069e-05 -3.931267e-06 -1.157637e-06
-1.033121e-05 -2.751158e-05 1.170841e-06
-2.657635e-05 -9.517777e-06 2.055783e-07
2.525009e-06 -2.817885e-05 -4.271610e-07
-2.767980e-05 5.499597e-06 1.512348e-07
-2.036627e-05 1.968469e-05 5.025711e-07
-2.218117e-05 2.101112e-05 -2.867766e-22
-1.210691e-05 2.772968e-05 -7.774051e-07
-1.810219e-05 2.422309e-05 7.967931e-07
1.953444e-05 2.037998e-05 2.102652e-07
1.953444e-05 -2.037998e-05 2.102652e-07
-2.678310e-05 9.244151e-06 5.213420e-07
1.861125e-05 2.122121e-05 1.877081e-07
1.861125e-05 -2.122121e-05 1.877081e-07
-2.539526e-05 -1.230570e-05 1.417297e-07
1.725342e-05 2.248844e-05 5.428368e-07
1.725342e-05 -2.248844e-05 5.428368e-07
-2.268050e-05 2.047110e-05 -2.867766e-22
-2.773690e-05 5.930072e-06 -5.781201e-07
[...]
POINT_DATA 3432
VECTORS 10.000GHz_fone_imag double
2.382622e+10 7.605259e+09 -3.226823e+08
-7.462130e+09 2.457941e+10 -2.193767e+08
-1.408997e+10 -2.117453e+10 4.150556e+08
1.409152e+10 -2.117349e+10 -4.163746e+08
2.358385e+10 -1.030849e+10 -7.495326e+08
-1.578067e+10 2.817360e+10 -4.199185e+08
2.142483e+10 2.106268e+10 5.322618e+08
7.050964e+09 -2.585335e+10 7.024391e+08
-7.094682e+09 -2.584843e+10 -6.618162e+08
2.017941e+10 2.005536e+10 1.092223e+09
1.171646e+10 2.904292e+10 -1.424838e+09
2.330624e+10 8.531831e+09 5.757310e+08
-2.143996e+10 -1.481266e+10 3.654354e+08
2.148887e+10 -1.451419e+10 -1.940245e+08
7.888794e+09 2.549677e+10 1.538130e+09
-1.593506e+10 -2.027432e+10 -8.007016e+08
1.593622e+10 -2.027143e+10 7.981049e+08
2.950797e+10 1.602092e+10 5.925841e+08
2.617163e+10 2.079014e+10 1.660175e+08
1.960451e+10 2.443186e+10 3.804150e+08
1.336863e+10 -2.237360e+10 -5.111222e+08
-1.334121e+10 -2.235781e+10 5.255405e+08
2.301576e+10 9.440861e+09 3.895797e+08
2.592236e+10 -6.039215e+09 -6.926892e+08
1.718995e+10 2.048983e+10 1.686869e+08
2.310830e+10 -1.069153e+10 -6.692284e+08
-2.352792e+10 -9.075334e+09 -1.488997e+09
-2.600104e+10 5.685838e+08 -1.942973e+09
-1.431664e+10 2.148473e+10 -1.482231e+08
7.480462e+09 3.080416e+10 -4.756320e+08
2.610543e+10 -1.738817e+09 -7.883326e+08
-2.658616e+10 -1.686996e+10 5.421235e+08
2.616366e+10 -1.708389e+10 -6.127802e+08
2.304602e+10 8.585851e+09 -7.939538e+08
-3.224333e+10 -2.798873e+09 1.921630e+09
-1.741362e+10 2.490510e+10 6.415400e+07
-1.460903e+10 -2.925838e+10 3.085003e+08
1.450069e+10 -2.783289e+10 6.963429e+08
8.853581e+09 2.983641e+10 -1.614249e+09
2.173391e+10 1.353386e+10 4.195068e+08
-1.231010e+10 -2.291276e+10 3.660721e+07
1.158731e+10 -2.337948e+10 -3.749413e+08
1.276877e+10 2.168154e+10 -1.023884e+09
-6.693029e+09 -3.105205e+10 1.543391e+08
2.189650e+10 1.081696e+10 -3.849344e+08
6.702412e+09 -3.103575e+10 -1.459133e+08
-3.051375e+10 3.067794e+09 -2.551816e+08
3.177958e+10 6.386687e+09 2.792963e+08
-3.058926e+10 -7.625116e+09 -6.323789e+08
1.480441e+08 3.086149e+10 -9.798031e+08
1.828600e+10 -2.038341e+10 4.201094e+08
-1.832349e+10 -2.038677e+10 -4.163783e+08
-2.002142e+10 1.632871e+10 7.505665e+08
1.625764e+10 -2.694586e+10 -6.632343e+08
-1.634178e+10 -2.721831e+10 6.475085e+08
2.305496e+10 9.860182e+09 -3.802987e+08
2.540676e+10 3.054125e+09 8.424792e+08
2.056148e+10 2.575610e+10 -6.465049e+07
-3.094024e+10 1.366259e+10 -3.725920e+08
-2.668288e+09 -3.340089e+10 -3.839128e+08
2.575189e+09 -3.259048e+10 1.939057e+08
-2.996113e+10 -1.606942e+10 5.856872e+08
8.579072e+09 3.304183e+10 -5.771453e+08
1.633268e+10 2.031759e+10 5.706531e+08
2.847997e+10 1.033478e+10 -2.054126e+09
3.037251e+10 -5.152432e+09 -3.092161e+08
2.206023e+10 1.093019e+10 -3.355311e+08
5.902137e+09 -3.334812e+10 5.931780e+08
-5.891481e+09 -3.340330e+10 -6.279966e+08
2.543361e+10 -1.480064e+09 1.127137e+09
5.490901e+08 3.187950e+10 6.737586e+08
2.532936e+10 -2.782434e+08 1.490588e+09
2.411368e+10 6.669625e+09 -7.197032e+08
2.902511e+10 -1.486878e+10 9.099880e+08
2.236079e+10 -2.008099e+10 1.314868e+09
-2.235168e+10 -2.007642e+10 -1.306808e+09
3.147909e+10 -3.853947e+09 3.707487e+08
2.143569e+10 1.131721e+10 -5.946103e+08
1.691387e+10 2.575737e+10 2.315646e+09
-2.194795e+10 -2.487679e+10 -5.087589e+08
2.195440e+10 -2.488437e+10 5.080041e+08
-1.930114e+10 -1.644353e+10 -1.959014e+08
1.928719e+10 -1.645070e+10 2.104350e+08
1.330769e+10 3.056683e+10 -6.766380e+08
-5.732161e+09 -2.609995e+10 1.143236e+08
5.735803e+09 -2.609851e+10 -1.114335e+08
3.093738e+10 5.059544e+09 4.404109e+08
2.363701e+10 1.090914e+10 1.282305e+09
2.149090e+10 1.220304e+10 5.946774e+08
3.128711e+10 -1.260640e+09 3.248934e+08
-2.296988e+10 1.126131e+10 -3.513162e+08
1.581554e+10 2.801946e+10 1.085794e+09
4.610807e+09 3.507182e+10 -5.206237e+08
-1.223145e+10 3.129353e+10 -4.986600e+08
3.050450e+10 1.016122e+10 7.888164e+07
2.899825e+10 8.281073e+09 -4.329586e+07
3.339274e+08 2.513878e+10 6.073063e+08
-9.610450e+09 -2.977505e+10 7.027285e+08
9.631168e+09 -2.977325e+10 -6.776825e+08
2.173232e+10 1.201735e+10 2.276186e+08
-1.408700e+10 2.802343e+10 -1.046329e+09
-2.084206e+08 -3.137716e+10 9.559622e+08
-3.745100e+08 -3.188865e+10 -4.440348e+08
-2.640405e+10 1.015812e+10 6.393035e+08
-3.097432e+10 1.032845e+10 -7.071297e+08
-2.834041e+10 1.285881e+10 7.856919e+08
2.403171e+10 2.022960e+10 3.773294e+08
3.197641e+10 -1.132250e+10 -5.960282e+08
3.107286e+10 1.280011e+10 -6.828163e+07
2.937834e+10 -4.081510e+08 2.721388e+08
2.197260e+10 1.290581e+10 -8.226424e+08
-1.913786e+10 -2.506788e+10 -3.692806e+08
1.913613e+10 -2.506838e+10 3.677124e+08
1.178522e+10 -3.048118e+10 -3.446963e+08
-1.180046e+10 -3.040237e+10 3.889683e+08
-3.261839e+10 -7.681421e+09 -8.497663e+08
9.376999e+09 -2.469064e+10 -1.256239e+09
7.480633e+09 -2.444877e+10 -1.124838e+09
-7.472063e+09 -2.446765e+10 1.116080e+09
-9.451991e+09 -2.472029e+10 1.329467e+09
2.163440e+10 1.184830e+10 2.212332e+08
2.031870e+10 1.430365e+10 -6.934010e+08
2.521930e+10 4.368592e+09 4.146161e+08
-1.674729e+10 2.986588e+10 5.528374e+08
-3.704521e+10 9.819729e+08 -1.119486e+09
1.943901e+10 1.835383e+10 -4.219879e+08
-2.298299e+10 8.547479e+09 9.860954e+08
-1.733951e+10 -1.817158e+10 -2.248994e+08
1.735025e+10 -1.819549e+10 2.178820e+08
1.226723e+10 -2.224522e+10 -1.103646e+09
-1.236299e+10 -2.273006e+10 1.263283e+09
5.861137e+09 3.558945e+10 6.749290e+08
2.045912e+10 1.380640e+10 -3.180273e+08
-3.065388e+10 1.195785e+09 -6.629572e+08
-1.719076e+10 2.873972e+10 6.649126e+08
1.645819e+10 1.948655e+10 -8.998070e+08
3.202277e+10 3.800949e+09 8.107983e+08
2.632220e+10 -1.907138e+10 2.617250e+08
-2.606790e+10 -1.748621e+10 4.032501e+08
2.272254e+09 3.334213e+10 1.025697e+09
2.930324e+10 -1.022453e+10 6.760799e+08
2.868763e+10 -5.649724e+09 -1.642815e+09
2.635393e+10 -1.053834e+10 2.241701e+08
2.235712e+10 1.290305e+10 -2.272546e+08
2.938859e+10 -6.181747e+09 1.935118e+08
2.635467e+10 -2.554701e+08 1.930851e+08
2.925352e+09 3.034305e+10 -1.055911e+09
3.255496e+10 8.005527e+08 7.882332e+08
2.950591e+10 -6.040507e+09 4.824225e+08
-2.400021e+10 1.680070e+10 1.082092e+09
-2.144384e+10 2.158189e+10 3.660584e+06
-2.232137e+10 -1.075864e+10 -4.042968e+08
-2.416056e+10 -8.797206e+09 9.078456e+08
-2.972884e+10 7.322293e+09 -2.933284e+08
3.089618e+10 2.303413e+10 -7.041109e+08
-4.675786e+09 3.009275e+10 -1.328497e+09
-2.883812e+10 1.089240e+10 -6.254446e+08
-2.315085e+10 1.869117e+10 -5.613537e+08
-2.355038e+10 1.955932e+10 8.363117e+08
-1.904866e+09 3.195889e+10 4.698170e+08
2.730224e+10 1.171370e+10 6.981228e+06
-2.106492e+10 -1.355000e+10 8.334233e+07
2.102510e+10 -1.346127e+10 5.426483e+08
9.990100e+09 2.590577e+10 -5.540579e+08
-3.003048e+10 -9.621879e+09 3.001471e+08
2.158689e+10 2.014524e+10 -3.082118e+08
3.033254e+10 2.921955e+10 -4.319844e+08
3.016708e+10 4.918428e+09 -3.904599e+08
-2.524222e+10 -1.797124e+10 1.040491e+09
2.545713e+10 -1.800101e+10 -1.057476e+09
-3.634171e+10 1.846353e+08 -2.025672e+09
-1.859127e+10 2.679517e+10 -1.781857e+09
-2.494849e+10 2.910581e+09 5.496217e+08
3.069674e+10 -1.793208e+09 1.666813e+08
-9.214880e+09 -2.923720e+10 4.990567e+08
9.217191e+09 -2.925467e+10 -4.972240e+08
1.919673e+10 1.498303e+10 -8.961183e+07
1.340036e+10 2.909007e+10 -1.628405e+09
-1.252649e+10 -2.219629e+10 1.064279e+09
1.331811e+10 -2.227060e+10 -1.367829e+09
2.768167e+10 1.941699e+10 4.052763e+07
-3.239801e+10 3.002851e+09 2.040807e+07
-2.888853e+10 -6.201742e+09 8.264710e+08
2.293685e+10 -2.463742e+10 -1.103405e+08
-2.294094e+10 -2.464045e+10 1.095652e+08
-1.122641e+10 2.597393e+10 -1.230567e+09
-1.376898e+10 2.355756e+10 6.405942e+08
1.920824e+10 1.752860e+10 7.652506e+08
-2.665381e+10 1.040094e+09 -1.339154e+08
-7.242111e+09 -2.922994e+10 8.812502e+08
7.258195e+09 -2.928382e+10 -8.759511e+08
2.124182e+10 2.497989e+10 -4.904545e+08
-3.065612e+10 -1.469869e+10 1.270289e+09
-3.233630e+10 5.713855e+09 -9.461367e+08
-2.882366e+10 8.486056e+09 -5.185877e+08
-2.527586e+10 1.720735e+10 2.080241e+08
-2.245840e+10 2.157276e+10 4.207663e+08
-4.910365e+09 3.029467e+10 5.763664e+08
1.814253e+10 1.678680e+10 -1.048696e+08
2.428789e+10 8.302203e+09 3.898915e+08
-2.234840e+10 -1.089153e+10 8.293031e+08
-2.909601e+10 -1.645439e+10 -3.982746e+08
3.030051e+10 -1.683712e+10 1.634441e+09
5.378326e+09 3.345984e+10 1.126930e+09
-2.243508e+10 -1.257280e+10 3.115635e+08
2.296440e+10 -1.312279e+10 -2.851260e+08
1.974323e+10 2.313880e+10 -6.498877e+08
-1.723657e+10 -2.825303e+10 -4.597918e+08
1.723249e+10 -2.823550e+10 4.555403e+08
1.775438e+10 1.659193e+10 6.017083e+07
-4.199257e+09 2.537721e+10 9.310453e+08
-1.775503e+10 1.878474e+10 -1.912018e+08
-2.213008e+10 1.369351e+10 1.012736e+08
-2.527324e+10 4.987015e+09 -7.351337e+08
5.794285e+09 2.897798e+10 2.884312e+09
-5.822720e+09 -3.158311e+10 -4.287202e+07
5.984186e+09 -3.095870e+10 1.149639e+08
2.516114e+09 2.563959e+10 -2.726473e+08
1.941959e+10 2.648950e+10 8.207854e+08
-2.246761e+10 1.730357e+10 -1.583395e+07
1.732835e+10 1.731501e+10 -3.221393e+08
2.632056e+10 -1.899227e+10 8.009328e+08
-2.607099e+10 -1.878027e+10 -6.907194e+08
-2.538104e+10 -4.610497e+09 1.837875e+09
3.610360e+09 -2.785973e+10 -1.390084e+09
-3.814246e+09 -2.852070e+10 1.826480e+09
-3.040715e+10 1.225451e+10 9.408968e+07
-9.134559e+09 3.035027e+10 9.030674e+08
-3.311080e+10 -2.366155e+09 -1.468700e+09
6.393795e+09 3.345354e+10 -1.464814e+09
2.240779e+10 2.277760e+10 9.225183e+08
1.785077e+10 1.843092e+10 -2.891552e+08
2.286963e+10 9.879564e+09 -2.390270e+08
2.533669e+10 1.601592e+10 -1.230908e+09
2.427873e+10 -2.254043e+10 -5.400853e+08
-2.428880e+10 -2.254726e+10 5.360549e+08
1.104230e+10 3.245913e+10 1.303144e+09
2.395433e+10 -2.209273e+10 -6.560403e+08
-2.396227e+10 -2.210026e+10 6.562519e+08
-1.573886e+10 3.140468e+10 -5.256421e+08
2.473030e+10 -1.994651e+10 -1.035004e+09
-2.472434e+10 -1.994737e+10 1.034431e+09
1.606546e+10 1.847988e+10 5.153633e+08
5.523550e+09 3.286096e+10 -1.345645e+09
-2.972017e+08 -3.051010e+10 3.912817e+08
-5.843765e+07 -3.073874e+10 -7.033201e+08
-1.101947e+10 2.824900e+10 1.728166e+09
-2.772031e+10 -7.707935e+09 -8.668739e+07
-2.432573e+10 7.369783e+09 7.904575e+08
3.768246e+09 -2.521105e+10 1.066983e+08
-3.401429e+09 -2.591175e+10 2.325386e+08
4.499329e+09 2.528402e+10 -2.707340e+08
-1.306623e+10 2.865890e+10 4.944812e+08
1.615381e+10 1.757765e+10 -1.530709e+09
2.847043e+10 5.235827e+09 -2.829378e+08
1.703362e+10 1.838059e+10 -3.762557e+08
3.378418e+10 5.830910e+09 -1.760764e+08
1.861475e+10 1.990213e+10 -1.296673e+08
-1.000572e+10 -2.345580e+10 -7.498203e+06
9.989678e+09 -2.292050e+10 2.215741e+08
1.670029e+10 -2.444171e+10 1.518917e+09
-1.667622e+10 -2.445371e+10 -1.521081e+09
7.289993e+09 -3.156930e+10 7.969888e+08
-7.290157e+09 -3.158355e+10 -7.971229e+08
1.551646e+10 1.971254e+10 2.076244e+08
-1.744403e+10 -2.949277e+10 -1.460968e+08
1.725462e+10 -2.914928e+10 9.958619e+07
3.122228e+10 8.332282e+09 1.180085e+08
3.355405e+08 2.678485e+10 3.560760e+08
1.835464e+10 2.390724e+10 1.306789e+09
1.979547e+10 2.342993e+10 -8.553030e+08
-1.980291e+10 1.811129e+10 3.029447e+08
3.118136e+10 5.350542e+09 2.758800e+08
-2.846086e+10 1.009015e+10 5.389035e+08
-1.429161e+09 3.136062e+10 1.013982e+07
1.491166e+10 1.896826e+10 3.192516e+08
-2.278983e+10 1.864543e+10 -1.140105e+09
1.022655e+10 -3.048848e+10 -3.867888e+08
-1.025864e+10 -3.058348e+10 3.938965e+08
3.797075e+09 -3.307287e+10 8.671279e+08
-1.862811e+09 -3.188532e+10 -4.697869e+08
3.307175e+10 -5.772049e+09 -1.943614e+08
-2.999097e+10 1.223199e+10 7.913474e+08
2.698652e+10 -1.877372e+10 -2.393608e+08
-2.793818e+10 -1.895759e+10 4.912814e+08
2.895132e+10 -8.538999e+09 -3.254888e+08
1.383736e+10 1.973323e+10 -3.877759e+08
2.311376e+10 8.964188e+09 -1.447378e+08
-2.248348e+10 2.382472e+10 -7.965784e+08
-1.895356e+10 2.732759e+10 -4.439692e+08
5.588474e+09 -2.517654e+10 8.997693e+08
-5.535323e+09 -2.515442e+10 -8.544188e+08
2.429132e+10 1.493126e+10 1.016583e+09
-3.178305e+10 1.406750e+09 3.965866e+08
6.268987e+09 2.912034e+10 -2.228612e+08
2.974121e+10 1.430209e+10 9.381597e+06
2.906768e+10 -9.292583e+08 -3.416307e+08
1.436752e+10 1.970243e+10 1.991070e+08
1.844613e+10 1.701581e+10 -1.260791e+08
2.583329e+10 -1.247101e+10 1.029611e+08
-5.029078e+09 2.808340e+10 -1.249661e+08
-2.517468e+10 2.021643e+10 1.787329e+07
-2.816228e+10 6.147805e+09 4.477597e+08
2.338024e+10 -1.046306e+10 3.152075e+08
-1.209311e+10 3.056395e+10 -1.378670e+08
-1.977132e+10 2.210115e+10 -3.620321e+08
-2.540495e+10 1.544514e+10 5.185100e+07
2.614716e+10 -4.927175e+09 -3.803058e+08
1.425673e+10 1.977071e+10 4.154586e+08
6.108226e+09 2.429565e+10 1.124820e+09
-3.050545e+10 5.146455e+09 -3.628027e+07
-3.231379e+10 -1.511709e+10 -9.953382e+08
-2.459763e+10 -3.285456e+09 2.124993e+08
-3.527169e+10 -6.897983e+08 8.974869e+08
2.163885e+10 1.515998e+10 1.580983e+07
-3.722142e+10 -9.998081e+09 -4.511850e+08
-2.583375e+10 8.362889e+08 -6.436696e+07
-1.324683e+10 2.208903e+10 6.148371e+08
2.476502e+10 -8.290768e+09 -4.621608e+08
1.378626e+10 2.198235e+10 1.486462e+08
-1.512098e+10 -2.122982e+10 1.178283e+09
-1.692808e+10 -2.244644e+10 -3.338215e+08
1.512399e+10 -2.123188e+10 -1.177173e+09
1.692983e+10 -2.244797e+10 3.342890e+08
1.567451e+10 1.943320e+10 1.353830e+09
2.583660e+10 1.985101e+10 -2.939955e+07
3.226412e+10 1.936652e+09 9.777843e+08
2.020852e+10 2.373314e+10 1.243747e+08
2.524937e+10 -1.311343e+10 -3.803245e+08
2.540139e+10 4.985304e+09 -1.473303e+08
1.224269e+10 2.107058e+10 -7.849457e+07
-2.546466e+10 -1.328302e+10 4.331298e+08
1.018613e+10 2.799439e+10 1.061232e+09
1.475261e+10 2.106672e+10 -1.104243e+08
-4.830487e+09 -3.454289e+10 -3.993890e+08
5.177219e+09 -3.314151e+10 -6.838336e+08
9.101188e+09 3.596104e+10 -1.381564e+09
1.873218e+10 -1.800827e+10 -6.522057e+08
-1.870907e+10 -1.797864e+10 6.532812e+08
2.913206e+10 -1.465087e+10 -3.812567e+08
-1.788999e+09 2.506168e+10 -7.804676e+08
1.276125e+10 2.076483e+10 5.681414e+08
-1.846083e+10 1.889289e+10 -7.611579e+07
-2.224823e+10 1.404362e+10 4.451628e+07
3.246903e+10 3.236386e+09 -2.366272e+08
2.473299e+10 -1.690836e+10 9.614064e+08
-2.488956e+10 -1.662422e+10 -9.624954e+08
-2.376332e+10 -7.542079e+09 -1.814854e+08
-1.519131e+10 -2.120289e+10 -1.192269e+09
1.519100e+10 -2.120245e+10 1.192189e+09
2.152031e+10 2.015251e+10 -6.466536e+08
2.878281e+10 6.656854e+09 -2.129911e+08
1.231466e+10 2.194968e+10 4.593988e+08
-1.423316e+10 2.567379e+10 -7.065374e+08
-1.516923e+10 2.692402e+10 -1.080419e+09
-1.787548e+10 -2.444152e+10 -1.164434e+09
1.788164e+10 -2.444019e+10 1.162694e+09
-3.232937e+10 -1.163109e+10 5.152537e+08
-9.060742e+09 3.140151e+10 -6.719019e+08
-3.328373e+10 -5.304828e+09 5.405126e+08
-8.631797e+09 -2.744710e+10 -5.901214e+08
8.641825e+09 -2.746453e+10 5.898614e+08
-1.619137e+10 -2.679664e+10 -2.606600e+08
1.229773e+10 2.408285e+10 -2.837200e+07
1.619567e+10 -2.657756e+10 2.973660e+08
-2.898995e+10 1.424647e+10 -3.018065e+08
2.072656e+10 -1.556287e+10 -1.003566e+08
-2.072688e+10 -1.556609e+10 9.984800e+07
1.665844e+10 2.356859e+10 1.748285e+09
2.717642e+10 1.328270e+10 -1.402047e+09
-3.036949e+10 1.391429e+09 -7.505635e+07
-2.525135e+10 -4.608197e+09 2.772892e+08
7.851729e+09 3.066812e+10 -4.253922e+08
-3.188279e+10 4.532779e+09 1.379366e+09
1.000177e+10 2.266144e+10 -2.393432e+08
2.261696e+10 -1.295118e+10 -1.468600e+08
-2.174538e+10 -1.272765e+10 -3.118778e+08
1.868081e+10 -1.779399e+10 2.525944e+08
2.001674e+10 -1.664938e+10 6.540423e+08
-1.867975e+10 -1.778758e+10 -2.551765e+08
-2.000777e+10 -1.664690e+10 -6.508806e+08
-2.725056e+10 -4.020203e+09 2.158969e+08
1.087726e+10 2.570939e+10 1.773832e+08
-2.752397e+10 -9.231833e+09 4.545487e+08
2.503553e+10 3.992435e+09 -3.025066e+08
9.808090e+09 2.240244e+10 -5.857664e+08
-1.108173e+10 3.011764e+10 7.820370e+08
-2.118892e+10 -1.392996e+10 -7.722490e+08
2.133718e+10 -1.394681e+10 6.493194e+08
2.576339e+10 9.660222e+09 -1.077626e+08
-1.431268e+10 2.873377e+10 -4.704158e+08
-4.483098e+09 2.531022e+10 2.803925e+08
-2.506687e+10 6.061549e+09 6.444057e+08
-2.575867e+10 8.872087e+08 -2.155900e+08
-9.468875e+09 2.917941e+10 -1.678177e+08
-2.584366e+10 4.352615e+09 7.587222e+08
9.351039e+09 2.322160e+10 -6.361003e+07
-2.308364e+10 9.374514e+09 -1.088622e+09
-2.306575e+10 1.105236e+10 -3.200308e+08
-1.189579e+10 2.197070e+10 -7.574179e+08
-1.076205e+10 2.276926e+10 2.730065e+08
-7.347688e+09 2.697880e+10 -1.558084e+07
-7.871111e+09 2.417130e+10 2.012486e+08
-1.388591e+10 2.131562e+10 1.247440e+08
-1.550036e+10 2.148422e+10 5.742991e+08
4.805180e+08 3.106259e+10 5.078257e+08
-2.500780e+10 -1.448859e+09 1.407911e+09
8.949231e+09 2.249878e+10 7.316542e+08
2.599625e+10 1.448196e+10 -3.452549e+08
2.392881e+10 1.529904e+10 4.650324e+08
-2.450155e+10 -3.079553e+09 -7.422864e+08
-3.014884e+10 -5.924601e+09 -3.099080e+08
-2.181701e+10 1.512505e+10 7.170060e+08
-2.115505e+10 1.499749e+10 -8.246711e+08
1.808497e+10 2.859299e+10 -1.156358e+09
-1.523109e+10 1.932144e+10 5.902615e+08
-2.500049e+10 6.337966e+09 -6.682791e+08
1.822632e+10 2.364525e+10 8.762560e+08
8.384953e+09 2.237125e+10 -7.986220e+07
-2.498288e+10 -6.818486e+09 -3.224884e+08
-1.281356e+10 2.619337e+10 -6.149667e+08
-6.549617e+09 2.486347e+10 1.208177e+08
-2.489600e+10 -3.180126e+08 -1.055048e+09
-9.402614e+09 2.480539e+10 2.641619e+08
-1.843057e+10 1.761432e+10 2.935832e+08
-5.781102e+09 2.461644e+10 -4.523845e+08
-1.903861e+10 2.414893e+10 -1.663754e+09
-2.279831e+10 1.175447e+10 -5.499285e+08
-2.515391e+10 4.126257e+09 -1.440875e+08
9.169676e+09 2.298663e+10 1.578030e+09
5.274448e+09 3.050356e+10 5.014619e+08
-1.366819e+10 2.038156e+10 1.471895e+07
-1.019892e+10 2.519098e+10 6.936887e+08
-2.350898e+10 -9.172186e+09 -5.674928e+08
9.400020e+09 3.025609e+10 -1.008224e+09
2.974245e+10 -1.245357e+10 -9.310075e+08
3.287086e+10 -4.799349e+09 1.442540e+08
4.024815e+09 2.463658e+10 2.176237e+09
3.115209e+10 9.228545e+09 -1.619536e+09
-5.542240e+09 -2.631089e+10 -1.636152e+08
8.570288e+09 2.421671e+10 -6.645446e+08
5.543848e+09 -2.631993e+10 1.659021e+08
-2.271765e+10 -2.030336e+10 1.584810e+08
2.272007e+10 -2.030841e+10 -1.585968e+08
-8.480109e+08 3.569317e+10 -1.102742e+09
-5.984088e+09 -2.671761e+10 -6.754969e+08
5.996228e+09 -2.673587e+10 6.769592e+08
8.502860e+09 3.198314e+10 6.171657e+08
-2.139073e+10 -1.881062e+10 5.312408e+08
2.137916e+10 -1.881624e+10 -5.339878e+08
-2.676167e+10 7.885673e+09 7.705236e+08
6.866185e+09 2.623163e+10 -1.825870e+09
-1.991146e+10 1.735184e+10 -4.263376e+08
9.090852e+09 2.327605e+10 -3.002310e+07
-2.087934e+10 2.557384e+10 -4.638252e+08
-2.568361e+10 9.188941e+09 7.600716e+08
2.032100e+10 -1.559728e+10 -5.945000e+08
-2.030432e+10 -1.559106e+10 5.933326e+08
-2.520177e+10 -2.479657e+09 5.937165e+08
1.199105e+10 2.235311e+10 -5.733621e+07
3.536074e+09 -2.639279e+10 5.971625e+08
-4.123495e+09 -2.485912e+10 -1.506349e+08
5.820982e+09 2.419782e+10 -7.622910e+08
-2.325035e+10 -8.838284e+09 8.806861e+08
-2.458021e+10 1.083116e+10 -3.218209e+08
1.132259e+10 2.368725e+10 5.832774e+08
-1.352978e+10 2.586058e+10 1.587296e+08
2.380151e+10 1.584562e+10 -1.254655e+09
-3.408387e+10 -4.630900e+09 6.178436e+08
-8.802203e+07 2.475589e+10 -4.832175e+08
3.166396e+10 -7.191995e+09 -1.672809e+08
2.833390e+10 6.829197e+09 -7.079232e+08
-1.184646e+10 2.841221e+10 -2.049785e+09
5.932281e+09 2.406364e+10 -1.199503e+08
-1.306137e+10 -2.369807e+10 5.013708e+08
1.111037e+10 -2.168452e+10 -3.788519e+08
1.623888e+10 3.183508e+10 -3.259150e+08
1.148106e+10 -2.447326e+10 -5.398140e+08
-1.100551e+10 -2.297198e+10 1.150918e+09
3.150833e+10 8.419859e+09 4.254781e+07
3.260484e+10 -3.382196e+09 -4.038569e+08
2.725009e+10 7.394301e+09 -1.659334e+08
2.456349e+10 7.767746e+09 6.673316e+08
2.832452e+10 -6.243725e+09 1.165609e+09
5.908373e+09 2.681462e+10 -1.049116e+09
2.897745e+10 5.866643e+08 3.537118e+08
2.726105e+10 1.806566e+10 -2.857498e+08
2.532630e+10 -4.662809e+09 -8.217427e+07
2.522044e+10 1.838294e+09 -3.578519e+08
3.090009e+09 -2.462961e+10 -7.271292e+08
-3.074324e+09 -2.462089e+10 7.457488e+08
2.252965e+10 1.199288e+10 8.656026e+08
-2.693923e+10 -2.903303e+09 6.935898e+08