# vtk DataFile Version 2.0
Electric current density generated by TTH
ASCII
DATASET UNSTRUCTURED_GRID
POINTS 5345 double
3.560955e-05 -8.721824e-21 -2.046822e-22
3.529774e-05 4.702088e-06 -2.046822e-22
4.052084e-06 3.537825e-05 -2.046822e-22
1.260035e-05 3.266943e-05 8.000911e-07
1.265438e-05 -3.264374e-05 -8.014258e-07
-3.361635e-05 -4.735421e-06 -1.292477e-07
-2.290984e-05 2.505253e-05 -1.298594e-07
7.822137e-06 -3.303533e-05 1.325441e-07
9.103917e-06 3.269712e-05 6.696966e-08
-2.045299e-05 2.708614e-05 6.704511e-08
-1.948104e-05 2.779339e-05 6.704511e-08
-2.607742e-05 2.172445e-05 6.704511e-08
-3.390318e-05 -1.599319e-06 6.704511e-08
3.531083e-06 3.543404e-05 -2.046822e-22
-3.085505e-05 1.414035e-05 6.704511e-08
-2.855873e-05 1.834073e-05 6.704511e-08
-1.537700e-05 3.025775e-05 6.704511e-08
1.077894e-05 -3.219268e-05 1.357657e-07
-4.423233e-06 -3.473222e-05 -8.008101e-07
-1.764372e-05 -3.024221e-05 -8.008101e-07
3.419024e-05 7.936138e-06 -7.697457e-07
3.419024e-05 -7.936138e-06 7.697457e-07
3.440575e-05 -9.197570e-07 -7.561367e-07
3.440575e-05 9.197570e-07 7.561367e-07
3.009317e-06 3.548216e-05 -2.046822e-22
-3.226055e-05 -1.364121e-05 -7.967133e-07
1.860147e-05 2.968362e-05 7.953170e-07
1.945617e-05 2.918957e-05 7.777697e-07
2.721203e-05 -2.208063e-05 -7.909744e-07
2.778215e-05 -2.157086e-05 -7.341260e-07
3.499855e-05 -2.026444e-06 7.861930e-07
3.499855e-05 2.026444e-06 -7.861930e-07
2.709190e-05 2.213069e-05 8.093532e-07
2.778702e-05 2.154329e-05 7.410788e-07
1.757024e-05 -3.029693e-05 7.976485e-07
2.486900e-06 3.552260e-05 -2.046822e-22
1.650619e-05 -2.972346e-05 -3.131717e-07
3.381661e-05 2.914309e-06 7.918209e-08
3.381661e-05 -2.914309e-06 -7.918209e-08
3.382402e-05 9.078069e-06 -7.982780e-07
3.382402e-05 -9.078069e-06 7.982780e-07
-2.820032e-05 -2.095127e-05 -7.553425e-07
-2.929806e-06 -3.383895e-05 -2.120515e-07
-1.822704e-05 -2.865214e-05 -1.824951e-07
-2.693737e-05 -2.071524e-05 -2.655676e-07
1.913522e-05 -2.941123e-05 7.743360e-07
1.963945e-06 3.555535e-05 -2.046822e-22
-2.618775e-05 -2.335583e-05 -7.736628e-07
3.496573e-05 -2.436667e-06 -7.885540e-07
3.496573e-05 2.436667e-06 7.885540e-07
2.834483e-05 -1.886851e-05 -4.187857e-07
1.851240e-05 -2.847769e-05 2.137096e-07
2.834260e-05 1.886510e-05 4.122527e-07
3.309325e-05 7.548958e-06 -9.259936e-08
3.309325e-05 -7.548958e-06 9.259936e-08
-1.255094e-05 -3.278384e-05 -7.676103e-07
-1.001053e-05 -3.364663e-05 -7.676103e-07
1.440564e-06 3.558040e-05 -2.046822e-22
-2.224956e-05 -2.715270e-05 -7.675763e-07
-2.425853e-05 -2.537396e-05 -7.675626e-07
-3.074502e-05 1.706092e-05 -7.403344e-07
-1.829073e-05 3.002967e-05 -7.403344e-07
-2.522443e-05 2.442734e-05 -7.634945e-07
-3.161832e-05 -1.286419e-05 5.388330e-07
1.288070e-05 -3.143536e-05 2.351490e-07
3.415692e-05 8.018471e-06 7.754075e-07
3.401525e-05 8.843634e-06 7.482071e-07
3.415692e-05 -8.018471e-06 -7.754075e-07
9.168716e-07 3.559774e-05 -2.046822e-22
3.401525e-05 -8.843634e-06 -7.482071e-07
-2.555819e-05 -2.266470e-05 -5.670976e-07
-2.575780e-05 -2.293770e-05 7.862091e-07
-3.406479e-05 -8.461841e-06 7.693985e-07
4.491189e-06 -3.481522e-05 7.678293e-07
-3.469282e-05 -5.361848e-06 -7.673962e-07
3.344703e-05 -1.066870e-05 7.662634e-07
3.344703e-05 1.066870e-05 -7.662634e-07
-2.607002e-05 2.360121e-05 -7.378497e-07
-3.133920e-05 1.595360e-05 -7.378497e-07
3.929804e-07 3.560738e-05 -2.046822e-22
-1.720835e-05 3.066815e-05 -7.378497e-07
-2.403996e-05 2.558895e-05 -7.650855e-07
1.441493e-05 3.201534e-05 -7.647190e-07
6.040346e-06 -3.458757e-05 7.646378e-07
-3.481049e-05 -3.788049e-06 -7.998339e-07
1.148925e-05 3.320069e-05 -7.548404e-07
9.016651e-06 -3.375877e-05 8.185573e-07
1.339506e-05 -3.232991e-05 8.058869e-07
1.492855e-05 -3.177170e-05 7.676344e-07
1.202218e-05 -3.298871e-05 7.646216e-07
-1.309958e-07 3.560931e-05 -2.046822e-22
1.055468e-05 -3.348711e-05 7.646216e-07
7.560894e-06 -3.428733e-05 7.646215e-07
1.298767e-05 3.262068e-05 -7.646209e-07
-2.276341e-05 2.660729e-05 -7.998294e-07
-3.491644e-05 2.702419e-06 -7.983431e-07
-1.307360e-05 3.248911e-05 -7.983431e-07
-1.187048e-05 3.294773e-05 -7.983431e-07
-3.454216e-05 5.770604e-06 -7.983431e-07
-2.771372e-05 2.147524e-05 -7.849967e-07
-2.720811e-05 2.213556e-05 -7.794890e-07
-6.549437e-07 3.560352e-05 -2.046822e-22
-3.236905e-05 1.347148e-05 -7.849967e-07
-3.205393e-05 1.424114e-05 -7.794890e-07
-3.340097e-05 1.052788e-05 -7.983431e-07
-7.163264e-06 3.428044e-05 -7.983431e-07
-4.112732e-06 3.477853e-05 -7.983431e-07
-1.030163e-06 3.500571e-05 -7.983431e-07
2.060432e-06 3.496020e-05 -7.983431e-07
5.134961e-06 3.464236e-05 -7.983422e-07
6.404924e-06 3.443020e-05 -7.983383e-07
3.104175e-05 -1.421589e-05 5.469958e-07
3.522473e-05 5.220956e-06 -2.046822e-22
-1.178750e-06 3.559003e-05 -2.046822e-22
3.104175e-05 1.421589e-05 -5.469958e-07
1.579994e-05 3.136433e-05 -7.609817e-07
-3.396899e-05 -2.360245e-06 -4.191104e-07
-2.111831e-05 2.671104e-05 -4.191098e-07
9.861263e-06 3.259082e-05 -4.176705e-07
2.680803e-05 -2.134224e-05 6.636814e-07
-2.905176e-05 1.775893e-05 -4.171181e-07
-1.891967e-05 2.830955e-05 -4.171181e-07
-3.348652e-05 5.589794e-06 1.391242e-07
-1.151159e-05 3.193863e-05 1.391242e-07
-1.702301e-06 3.556884e-05 -2.046822e-22
-1.266971e-05 3.149716e-05 1.391242e-07
-3.394773e-05 -3.793799e-07 1.391242e-07
-3.237818e-05 1.021011e-05 1.391242e-07
-2.684877e-05 2.077827e-05 1.391242e-07
-3.135180e-05 1.302524e-05 1.391242e-07
-6.939896e-06 3.323297e-05 1.391242e-07
-3.384896e-05 2.615394e-06 1.391242e-07
-3.982593e-06 3.371545e-05 1.391242e-07
-9.942671e-07 3.393529e-05 1.391242e-07
2.001804e-06 3.389078e-05 1.391242e-07
-2.225483e-06 3.553994e-05 -2.046822e-22
4.982277e-06 3.358228e-05 1.391236e-07
6.204735e-06 3.337804e-05 1.390914e-07
3.354137e-05 -1.054512e-05 -7.411392e-07
3.354137e-05 1.054512e-05 7.411392e-07
2.680959e-05 2.134353e-05 -6.652255e-07
-3.370426e-05 -9.872024e-06 7.604979e-07
-2.637373e-05 -2.193325e-05 6.898497e-07
3.343155e-05 -5.888190e-06 1.148733e-07
3.343155e-05 5.888190e-06 -1.148733e-07
3.115979e-05 -1.626816e-05 -7.457959e-07
-2.748183e-06 3.550334e-05 -2.046822e-22
3.115978e-05 1.626817e-05 7.457987e-07
2.950212e-06 -3.496345e-05 7.745118e-07
-1.963514e-05 -2.770565e-05 -1.805892e-07
-1.431078e-05 -3.079268e-05 -1.700280e-07
-7.402051e-06 -3.313906e-05 -1.700280e-07
2.669787e-05 2.293873e-05 7.195255e-07
-2.897201e-05 -1.798936e-05 -4.978944e-07
-2.806748e-05 -1.937440e-05 -5.009682e-07
3.455140e-05 -6.370538e-06 7.542007e-07
3.455140e-05 6.370538e-06 -7.542007e-07
-3.270289e-06 3.545906e-05 -2.046822e-22
1.946309e-05 -2.920136e-05 -7.722700e-07
2.016040e-05 -2.859796e-05 8.073029e-07
2.012257e-05 2.861904e-05 -8.085028e-07
1.449908e-05 -3.092886e-05 5.656342e-07
-1.564183e-05 3.141219e-05 -7.730833e-07
-1.692078e-07 3.518247e-05 -7.287458e-07
-6.346746e-06 3.460569e-05 -7.287458e-07
-3.513416e-05 1.850899e-06 -7.287458e-07
-3.328506e-05 1.139912e-05 -7.287458e-07
-3.483411e-05 4.941597e-06 -7.287458e-07
-3.791686e-06 3.540710e-05 -2.046822e-22
-3.270716e-06 3.503052e-05 -7.287458e-07
2.933619e-06 3.506036e-05 -7.287458e-07
1.363608e-05 3.125431e-05 4.935137e-07
3.525414e-05 -8.778419e-07 6.760780e-07
3.525414e-05 8.778419e-07 -6.760780e-07
2.918497e-05 1.948414e-05 -7.730739e-07
-1.969028e-05 -2.809407e-05 6.932351e-07
1.711525e-05 3.073550e-05 -7.305908e-07
-7.286229e-06 -3.352454e-05 6.932366e-07
-1.463741e-05 -3.102789e-05 6.932366e-07
-4.312262e-06 3.534748e-05 -2.046822e-22
-2.045005e-05 -2.716384e-05 -3.182454e-07
-1.345305e-05 -3.122660e-05 -3.184557e-07
-8.346634e-06 -3.296086e-05 -3.184558e-07
-2.447105e-05 -2.360547e-05 -3.172247e-07
-3.127460e-05 -1.349824e-05 -4.397055e-07
-3.083559e-05 -1.421677e-05 -1.673342e-07
1.577363e-05 3.006607e-05 -1.542742e-07
-3.509089e-05 -1.797103e-08 -7.732115e-07
2.946548e-05 -1.903709e-05 7.774813e-07
3.246113e-05 1.346138e-05 -7.504107e-07
-4.831905e-06 3.528020e-05 -2.046822e-22
3.246113e-05 -1.346138e-05 7.504107e-07
-3.274228e-05 -1.290983e-05 -7.215350e-07
-3.315068e-05 -8.174049e-06 5.486969e-07
-1.702039e-05 -3.086448e-05 -6.892461e-07
-5.296605e-06 -3.484617e-05 -6.892460e-07
2.079959e-05 2.706007e-05 -5.329585e-07
2.079959e-05 -2.706007e-05 5.329585e-07
-2.725227e-05 -2.220759e-05 -7.437854e-07
3.355966e-05 7.339890e-06 7.219264e-07
3.355966e-05 -7.339890e-06 -7.219264e-07
-5.350501e-06 3.520528e-05 -2.046822e-22
-2.024206e-05 -2.875973e-05 -7.363302e-07
-2.550412e-05 2.256509e-05 -4.236554e-07
-3.052180e-05 1.510176e-05 -4.236554e-07
-1.632414e-05 2.988589e-05 -4.236554e-07
1.791734e-05 -3.034240e-05 -6.951740e-07
3.390817e-05 -4.779762e-06 6.457182e-07
3.390817e-05 4.779762e-06 -6.457182e-07
-3.270987e-05 -9.145105e-06 2.069530e-07
-1.908248e-05 -2.952305e-05 -7.445943e-07
2.896798e-05 1.800422e-05 -5.037871e-07
-5.867939e-06 3.512274e-05 -2.046822e-22
-3.075326e-05 -1.661073e-05 8.163565e-07
2.646365e-05 -2.308432e-05 -7.619381e-07
3.271530e-05 1.301321e-05 7.137951e-07
3.271530e-05 -1.301321e-05 -7.137951e-07
1.937763e-05 2.932484e-05 -7.468462e-07
1.405313e-06 -3.444711e-05 -7.806978e-07
3.514104e-05 2.951732e-06 -6.762833e-07
3.514104e-05 -2.951732e-06 6.762833e-07
2.354285e-05 -2.514567e-05 -7.689439e-07
-3.261302e-05 -1.119836e-05 -7.830746e-07
3.514409e-05 5.738695e-06 -2.046822e-22
-6.384107e-06 3.503260e-05 -2.046822e-22
3.282980e-05 1.017207e-05 7.313630e-07
3.282980e-05 -1.017207e-05 -7.313630e-07
1.208473e-05 -3.192470e-05 -5.392038e-07
3.016711e-05 1.580459e-05 4.285150e-07
3.016711e-05 -1.580459e-05 -4.285150e-07
-3.385283e-05 -9.410609e-06 -7.528975e-07
2.897619e-05 -1.799552e-05 5.069334e-07
1.587245e-06 -3.513415e-05 7.358327e-07
1.735367e-05 -2.936618e-05 5.081620e-07
-2.021978e-06 -3.416326e-05 -6.284473e-07
-6.898892e-06 3.493487e-05 -2.046822e-22
3.162799e-05 1.548350e-05 -7.100046e-07
3.162799e-05 -1.548350e-05 7.100046e-07
-2.968828e-05 -1.646443e-05 -1.280829e-07
2.721716e-05 -2.039180e-05 -3.362249e-07
-1.528753e-05 -3.061576e-05 -6.260951e-07
-6.519581e-06 -3.359358e-05 -6.260951e-07
1.632961e-05 3.122638e-05 6.946909e-07
[...]
POINT_DATA 5345
VECTORS 10.000GHz_fone_imag double
-9.606521e-05 -1.106477e-04 1.897736e-02
4.253549e-04 3.437708e-04 1.901082e-02
-1.593883e-04 1.327141e-04 1.884055e-02
-6.831977e-03 -1.820692e-02 5.917497e-03
6.944556e-03 -1.837602e-02 5.359590e-03
-3.735634e-03 -3.717793e-04 -2.269432e-02
-2.392041e-03 2.808686e-03 -2.267897e-02
-9.030361e-04 3.418853e-03 -2.283701e-02
-5.240659e-04 -2.153942e-03 -2.325217e-02
9.470527e-04 -1.323841e-03 -2.307661e-02
9.060235e-04 -1.405494e-03 -2.291584e-02
1.525877e-03 -1.322408e-03 -2.295702e-02
1.419039e-03 4.844172e-05 -2.283342e-02
-8.677519e-05 -1.788795e-05 1.907357e-02
1.821099e-03 -8.742842e-04 -2.295607e-02
1.231626e-03 -8.417514e-04 -2.307134e-02
1.186095e-03 -2.016243e-03 -2.292699e-02
-1.228867e-03 3.569113e-03 -2.260090e-02
-2.539468e-03 -1.936145e-02 5.567931e-03
-9.978057e-03 -1.699441e-02 5.280492e-03
1.815597e-02 4.070197e-03 7.679920e-03
-1.834024e-02 3.831427e-03 7.293254e-03
1.965701e-02 -4.476937e-04 -9.826370e-03
-1.943287e-02 -5.020354e-04 -9.871312e-03
-1.586450e-04 -2.588602e-04 1.897223e-02
-1.790368e-02 -7.506648e-03 5.710240e-03
-1.026440e-02 -1.666675e-02 5.436631e-03
-1.068913e-02 -1.582862e-02 6.839274e-03
1.501021e-02 -1.236411e-02 6.223479e-03
1.403632e-02 -1.107660e-02 9.500145e-03
-1.927005e-02 1.210165e-03 6.283030e-03
1.922516e-02 1.230206e-03 6.054010e-03
-1.562241e-02 -1.273238e-02 4.528919e-03
-1.419342e-02 -1.114976e-02 9.019738e-03
-9.718940e-03 1.691876e-02 5.774276e-03
-2.112039e-05 -1.913106e-04 1.894831e-02
4.093841e-03 -7.514589e-03 -2.107207e-02
-1.913491e-03 -5.121702e-04 -2.292608e-02
1.727536e-03 -4.177298e-04 -2.277679e-02
1.866399e-02 5.233193e-03 5.687128e-03
-1.869178e-02 5.181355e-03 5.718290e-03
-1.460874e-02 -1.094392e-02 8.278129e-03
-5.265400e-04 -5.853842e-03 -2.193248e-02
-2.530235e-03 -4.235793e-03 -2.248122e-02
-5.377379e-03 -4.344137e-03 -2.174193e-02
-1.015895e-02 1.596211e-02 7.276624e-03
2.075661e-04 -2.221018e-04 1.914191e-02
-1.410815e-02 -1.246346e-02 7.234387e-03
1.921479e-02 -1.519568e-03 6.261134e-03
-1.930965e-02 -1.368364e-03 6.234615e-03
9.253937e-03 -5.905354e-03 -1.976412e-02
-2.821722e-03 4.304226e-03 -2.242785e-02
-8.837082e-03 -5.772942e-03 -2.003918e-02
1.837385e-03 4.879315e-04 -2.296128e-02
-1.713290e-03 6.586055e-04 -2.285074e-02
-6.917503e-03 -1.754496e-02 7.268763e-03
-5.271827e-03 -1.804424e-02 7.333626e-03
-8.298148e-05 1.032735e-04 1.887883e-02
-1.189145e-02 -1.469958e-02 7.247610e-03
-1.308414e-02 -1.359055e-02 7.308956e-03
-1.549879e-02 8.816182e-03 9.081871e-03
-9.422646e-03 1.510300e-02 9.053833e-03
-1.292878e-02 1.295375e-02 7.720987e-03
1.299427e-02 5.140486e-03 -1.762504e-02
-2.208025e-03 5.598264e-03 -2.217038e-02
-1.848686e-02 -4.340211e-03 6.934480e-03
-1.742413e-02 -4.922388e-03 8.612118e-03
1.864406e-02 -4.297826e-03 6.678494e-03
-2.711301e-04 -2.709088e-04 1.896157e-02
1.744703e-02 -4.766047e-03 8.614901e-03
-1.130075e-02 -1.003598e-02 -1.677158e-02
1.508439e-02 1.321378e-02 -8.004622e-03
1.821044e-02 4.516891e-03 7.573913e-03
-2.324911e-03 1.836054e-02 7.307226e-03
-1.837048e-02 -2.717649e-03 7.563282e-03
-1.758667e-02 5.430005e-03 7.713185e-03
1.760331e-02 5.424982e-03 7.729805e-03
-1.345905e-02 1.237476e-02 8.572771e-03
-1.624725e-02 8.401133e-03 8.560154e-03
1.621864e-04 -2.819954e-04 1.918220e-02
-9.038681e-03 1.591965e-02 8.579342e-03
-1.265089e-02 1.364095e-02 7.337078e-03
7.390937e-03 1.656964e-02 7.856813e-03
-3.090688e-03 1.791694e-02 7.762843e-03
-1.961725e-02 -2.132222e-03 5.568617e-03
6.031166e-03 1.711922e-02 8.177750e-03
-5.150383e-03 1.946008e-02 3.888868e-03
-7.610398e-03 1.818016e-02 4.958529e-03
-7.732771e-03 1.686713e-02 7.649705e-03
-5.938708e-03 1.712779e-02 7.754293e-03
1.436321e-04 1.444414e-04 1.891810e-02
-5.626078e-03 1.776217e-02 7.581249e-03
-3.954744e-03 1.805341e-02 7.771032e-03
6.851289e-03 1.707645e-02 7.679124e-03
-1.265310e-02 1.488019e-02 5.642654e-03
-1.979493e-02 1.761521e-03 5.315438e-03
-7.343732e-03 1.844020e-02 5.389502e-03
-6.537148e-03 1.880828e-02 4.906949e-03
-1.947858e-02 3.502207e-03 5.168937e-03
-1.554686e-02 1.173100e-02 6.159400e-03
-1.477996e-02 1.230489e-02 6.665648e-03
-1.740150e-04 -3.956579e-04 1.903405e-02
-1.810323e-02 7.211022e-03 6.196919e-03
-1.749853e-02 7.996220e-03 6.659372e-03
-1.898405e-02 5.672511e-03 5.162098e-03
-4.062181e-03 1.939793e-02 5.008736e-03
-2.538649e-03 1.967638e-02 5.185532e-03
-9.315862e-04 1.978183e-02 5.181199e-03
9.111376e-04 1.984197e-02 5.172801e-03
2.835800e-03 1.967777e-02 5.259862e-03
3.563457e-03 1.945858e-02 5.453639e-03
-1.282482e-02 5.789136e-03 -1.722649e-02
9.518842e-05 1.794723e-04 1.916573e-02
3.288293e-04 -2.335451e-04 1.904707e-02
1.287383e-02 5.817883e-03 -1.724207e-02
8.347864e-03 1.647134e-02 7.786117e-03
-1.121484e-02 -4.489302e-04 -1.953480e-02
-6.506520e-03 8.809825e-03 -1.982762e-02
3.039896e-03 1.074203e-02 -1.973302e-02
-1.350733e-02 1.051525e-02 -1.383918e-02
-9.523885e-03 6.007147e-03 -1.963779e-02
-6.448784e-03 9.267178e-03 -1.970181e-02
4.032577e-03 -7.125247e-04 -2.258640e-02
1.157698e-03 -3.741781e-03 -2.248964e-02
-3.440093e-06 -4.329143e-05 1.894598e-02
1.702513e-03 -3.864917e-03 -2.241017e-02
3.879972e-03 -4.252357e-05 -2.256814e-02
4.163259e-03 -1.332016e-03 -2.250000e-02
3.383365e-03 -2.702653e-03 -2.251002e-02
4.042186e-03 -1.737144e-03 -2.251879e-02
9.428249e-04 -3.885504e-03 -2.259527e-02
3.927377e-03 -4.313830e-04 -2.250078e-02
5.643273e-04 -3.979674e-03 -2.254615e-02
3.916092e-04 -4.043842e-03 -2.258850e-02
-1.587891e-04 -3.999051e-03 -2.251645e-02
2.620030e-05 -6.557342e-06 1.898645e-02
-4.386450e-04 -3.959232e-03 -2.252393e-02
-8.395452e-04 -4.086347e-03 -2.247950e-02
1.693966e-02 -5.195321e-03 8.748862e-03
-1.693358e-02 -5.249864e-03 8.701599e-03
1.328626e-02 1.088497e-02 -1.390228e-02
1.762218e-02 5.296841e-03 7.791071e-03
1.384353e-02 1.144034e-02 -1.303792e-02
-2.777368e-03 3.975233e-04 -2.276801e-02
2.805438e-03 4.844294e-04 -2.277781e-02
1.585712e-02 -8.466345e-03 8.618517e-03
3.441629e-06 1.384468e-04 1.911334e-02
-1.584124e-02 -8.607974e-03 8.614541e-03
-1.655502e-03 1.858761e-02 7.194803e-03
-2.947490e-03 -4.178815e-03 -2.248804e-02
-1.717239e-03 -4.048125e-03 -2.252065e-02
-1.099024e-03 -4.282060e-03 -2.250930e-02
-1.294069e-02 -1.142577e-02 9.576201e-03
-1.085263e-02 -6.831451e-03 -1.825097e-02
-1.059970e-02 -7.495351e-03 -1.849577e-02
-1.809799e-02 3.557278e-03 8.182677e-03
1.804054e-02 3.469920e-03 8.211071e-03
7.187851e-06 -2.046651e-04 1.899560e-02
1.047336e-02 -1.556039e-02 7.169850e-03
-1.143212e-02 1.605055e-02 4.926945e-03
1.122286e-02 1.619216e-02 5.149231e-03
-6.478824e-03 1.384810e-02 -1.659775e-02
-8.518506e-03 1.702040e-02 7.143011e-03
2.427735e-04 1.795719e-02 9.113668e-03
-3.258431e-03 1.750370e-02 9.491343e-03
-1.782807e-02 8.902133e-04 9.235404e-03
-1.686228e-02 5.898130e-03 8.999883e-03
-1.768560e-02 2.370349e-03 9.049367e-03
-6.248787e-05 -1.601463e-04 1.893657e-02
-1.727560e-03 1.775758e-02 9.152469e-03
1.661980e-03 1.784756e-02 9.095233e-03
-5.023317e-03 -1.194291e-02 -1.835165e-02
-1.634620e-02 3.782989e-04 1.088979e-02
1.636481e-02 3.338093e-04 1.085840e-02
1.581307e-02 1.057771e-02 7.172082e-03
1.059280e-02 1.492677e-02 -1.270276e-02
8.811751e-03 1.510167e-02 9.297895e-03
4.005583e-03 1.776483e-02 -1.264125e-02
7.640490e-03 1.653891e-02 -1.260580e-02
2.218002e-04 -1.827292e-04 1.913157e-02
-4.809854e-03 -6.523433e-03 -2.128968e-02
-3.241666e-03 -7.758205e-03 -2.119397e-02
-2.220564e-03 -8.156668e-03 -2.111939e-02
-6.185870e-03 -5.940704e-03 -2.121347e-02
-1.096532e-02 -4.942364e-03 -1.919093e-02
-3.992546e-03 -1.921668e-03 -2.243023e-02
1.933208e-03 3.991659e-03 -2.247803e-02
-1.899868e-02 -7.192987e-05 7.123904e-03
-1.585023e-02 1.030369e-02 7.140186e-03
1.684433e-02 6.877286e-03 8.451607e-03
-1.120740e-04 8.482950e-05 1.889640e-02
-1.686054e-02 6.862451e-03 8.435583e-03
-1.625561e-02 -6.175818e-03 9.648808e-03
1.413976e-02 3.300019e-03 -1.723391e-02
-8.106394e-03 -1.474794e-02 1.051164e-02
-2.521381e-03 -1.686454e-02 1.051117e-02
8.478327e-03 1.092610e-02 -1.748880e-02
-8.467125e-03 1.102234e-02 -1.740662e-02
-1.409172e-02 -1.158463e-02 8.553084e-03
-1.810641e-02 -4.193007e-03 -1.131743e-02
1.814990e-02 -3.912602e-03 -1.143975e-02
-2.186197e-04 -3.360660e-04 1.901877e-02
-1.008155e-02 -1.445342e-02 9.024007e-03
-8.301117e-03 7.558293e-03 -1.934836e-02
-9.998278e-03 5.145206e-03 -1.933405e-02
-5.530520e-03 9.686406e-03 -1.938050e-02
8.298506e-03 -1.435029e-02 1.063165e-02
-1.650971e-02 2.145879e-03 -1.475411e-02
1.644210e-02 1.950978e-03 -1.474744e-02
5.283764e-03 1.624001e-03 -2.225862e-02
-9.803161e-03 -1.494289e-02 8.956806e-03
1.128518e-02 7.079818e-03 -1.782451e-02
1.715597e-04 -2.643494e-04 1.924258e-02
1.775319e-02 9.453490e-03 4.212649e-03
1.382333e-02 -1.214711e-02 7.956121e-03
-1.587607e-02 -6.304897e-03 9.704363e-03
1.586027e-02 -6.298445e-03 9.715954e-03
1.005627e-02 1.507769e-02 8.359159e-03
1.047367e-03 -1.996137e-02 -8.156967e-03
1.592463e-02 1.314812e-03 1.102655e-02
-1.609280e-02 1.376416e-03 1.101212e-02
1.330583e-02 -1.423561e-02 -9.473737e-03
-1.890472e-02 -6.479626e-03 -8.031943e-03
-1.133584e-04 -8.595469e-05 1.897603e-02
6.537605e-05 -4.623512e-07 1.884693e-02
-1.811663e-02 -5.552383e-03 -1.096800e-02
1.815125e-02 -5.546752e-03 -1.099000e-02
5.151384e-03 -1.346072e-02 -1.748115e-02
-9.916345e-03 -5.480812e-03 -1.982724e-02
9.789573e-03 -5.032044e-03 -1.985791e-02
-1.748468e-02 -5.012294e-03 8.447169e-03
-1.122546e-02 7.135198e-03 -1.801771e-02
-7.547656e-04 1.758478e-02 8.851338e-03
-6.900626e-03 1.210475e-02 -1.784035e-02
-9.832128e-04 -1.626659e-02 -1.486228e-02
1.223983e-05 -3.789380e-04 1.885533e-02
1.571985e-02 7.605426e-03 9.535044e-03
-1.547672e-02 7.864100e-03 9.582432e-03
-3.087335e-03 -1.459195e-03 -2.274272e-02
7.140133e-03 -5.455613e-03 -2.110752e-02
-7.222179e-03 -1.471748e-02 -1.500971e-02
-3.532876e-03 -1.594396e-02 -1.510383e-02
-7.655888e-03 -1.502080e-02 1.052957e-02
1.952532e-03 4.688278e-03 -2.236027e-02
-6.172267e-04 -8.238049e-04 -2.274655e-02
-7.207273e-03 -5.555743e-03 -2.084923e-02
1.694070e-04 -2.646302e-04 1.913257e-02
8.718233e-03 -1.039656e-02 -1.806789e-02
1.330224e-02 1.274342e-03 -1.808488e-02
3.618463e-03 -1.262931e-02 -1.827416e-02
-2.278913e-03 1.618394e-02 -1.494255e-02
1.560030e-02 1.563301e-03 -1.552190e-02
-1.578041e-02 2.019292e-03 -1.522392e-02
-6.281667e-03 6.336975e-03 -2.067396e-02
5.321953e-03 1.007021e-02 -1.934386e-02
-1.638010e-02 5.878564e-03 9.520845e-03
1.639686e-02 5.875260e-03 9.535038e-03
1.380218e-04 -3.311305e-04 1.892973e-02
-1.768942e-02 -2.236994e-03 9.160258e-03
1.749571e-02 -1.985613e-03 9.455783e-03
-2.095525e-04 -1.898786e-02 7.398407e-03
3.300192e-03 -1.611469e-02 1.064901e-02
-3.741022e-03 1.690229e-02 -1.368020e-02
-4.975240e-03 1.545093e-02 -1.524006e-02
9.978118e-03 1.060684e-02 -1.733693e-02
-1.118160e-02 1.237895e-02 -1.441687e-02
2.031426e-03 -1.803911e-02 8.507069e-03
1.348042e-02 8.946107e-03 1.116517e-02
3.861290e-04 6.393341e-04 1.876360e-02
-4.202600e-03 -1.280233e-02 -1.794444e-02
-1.775088e-02 4.325418e-03 8.194368e-03
-4.940793e-03 1.751514e-02 8.296922e-03
1.657972e-02 2.590136e-03 1.003345e-02
-1.708344e-02 -2.584236e-03 -1.342472e-02
-7.619496e-03 -1.231281e-02 -1.709218e-02
-5.803997e-04 7.087890e-03 -2.162209e-02
7.534594e-03 1.576181e-02 -1.285872e-02
1.055979e-02 -1.048945e-02 -1.682017e-02
1.249169e-02 -7.360895e-03 -1.661760e-02
-4.263862e-04 5.132923e-05 1.903190e-02
7.890296e-03 -1.214968e-02 -1.662940e-02
1.654153e-02 5.650493e-03 9.425335e-03
7.898956e-03 -1.472455e-02 1.068060e-02
-1.220602e-02 -2.520261e-03 -1.872998e-02
-1.373688e-02 4.806705e-03 -1.725538e-02
1.374818e-02 4.806632e-03 -1.725728e-02
3.767017e-03 -1.631078e-02 -1.442092e-02
1.645701e-02 2.364775e-03 -1.472952e-02
-6.177687e-03 -1.632071e-02 -1.367184e-02
-5.835134e-03 -8.656987e-04 -2.205103e-02
1.815007e-04 -4.154984e-04 1.890936e-02
1.903415e-02 -8.532991e-03 -5.020447e-03
-1.902290e-02 -8.375151e-03 -4.852845e-03
-4.337644e-03 4.897849e-03 -2.168082e-02
1.039037e-02 -1.295734e-02 1.041667e-02
-1.044084e-02 -1.289314e-02 1.044613e-02
-1.797759e-02 -6.806960e-03 -9.945274e-03
1.801285e-02 -6.807610e-03 -9.948618e-03
-3.330383e-03 -5.462577e-03 -2.164420e-02
-7.865775e-03 -1.327794e-02 -1.603191e-02
-1.791152e-03 -1.517850e-02 -1.600127e-02
1.818737e-05 2.608075e-05 1.885077e-02
1.714942e-03 2.485718e-03 -2.282519e-02
6.491860e-03 1.619416e-02 -1.342784e-02
-3.033258e-03 1.782588e-02 -1.226834e-02
-3.243483e-04 -1.150814e-02 -1.912807e-02
1.764523e-03 -1.118542e-02 -1.927952e-02
1.096913e-02 -1.266370e-03 -1.992347e-02
1.098479e-02 -2.292224e-03 -1.939410e-02
9.163003e-03 -6.463100e-03 -1.939853e-02
2.733916e-03 -1.045548e-02 -1.965116e-02
3.266974e-03 -1.068869e-02 -1.954242e-02
5.868129e-05 9.749447e-05 1.915004e-02
1.025355e-02 -3.816107e-03 -1.997797e-02
1.092136e-02 -2.989716e-03 -1.968833e-02
4.545543e-03 -1.013046e-02 -1.941068e-02
1.102008e-02 -2.927047e-04 -1.944440e-02
6.326390e-04 -1.090175e-02 -1.949863e-02
-1.274715e-03 -1.093140e-02 -1.942782e-02
1.446441e-02 8.376473e-03 1.022504e-02
-1.466843e-02 8.558121e-03 1.003979e-02
-2.555816e-03 -1.081220e-02 -1.940032e-02
5.086610e-03 -1.487969e-02 -1.589048e-02
-1.764900e-04 2.359192e-04 1.900644e-02
-1.414647e-02 -1.001898e-02 9.857174e-03
-1.764341e-02 5.659630e-03 -1.170868e-02
1.764939e-02 5.665075e-03 -1.173404e-02
-1.222369e-02 -4.379734e-03 -1.839788e-02
1.038644e-02 -1.185175e-02 1.157300e-02
1.112387e-02 -1.205138e-02 1.067342e-02
-1.017622e-02 -1.161255e-02 1.171779e-02
-1.574268e-02 -8.006094e-03 9.018615e-03
-1.482536e-02 4.451896e-03 1.148750e-02
1.476505e-02 4.472633e-03 1.146076e-02
1.095595e-04 2.798445e-05 1.901478e-02
-1.212483e-04 -3.632428e-04 1.905162e-02
1.502225e-02 5.359602e-03 -1.536111e-02
1.445367e-02 -1.028782e-02 9.182603e-03
1.044864e-02 5.639964e-03 -1.913159e-02
1.099480e-02 1.649501e-02 -8.649350e-03
9.385445e-03 1.460254e-02 9.116637e-03
8.807013e-03 1.780035e-02 -8.582541e-03
7.979115e-03 1.551147e-02 9.060262e-03
3.896368e-03 1.941273e-02 -8.536245e-03
3.203480e-03 1.726932e-02 9.001393e-03
1.393645e-02 -1.387444e-02 -9.294103e-03
2.286524e-04 -2.492153e-04 1.910587e-02
-1.040035e-02 5.724778e-03 -1.904323e-02
1.197751e-02 1.039910e-02 -1.592335e-02
-1.543290e-02 -2.734739e-03 1.175895e-02
-1.111252e-03 4.136577e-03 -2.235455e-02
1.021153e-02 -1.216767e-02 -1.547983e-02
-1.041643e-02 -1.220218e-02 -1.521876e-02
-7.759858e-04 6.038707e-04 -2.299925e-02
-1.258840e-02 9.618597e-03 -1.533686e-02
5.124963e-03 -2.681955e-03 -2.202622e-02
-5.139601e-03 -2.446991e-03 -2.195016e-02
3.067180e-05 -1.929741e-04 1.908322e-02
1.642401e-02 4.515907e-03 -1.348698e-02
-1.643725e-02 4.518825e-03 -1.352449e-02
-7.629927e-04 7.171228e-03 -2.144157e-02
-1.161457e-02 -1.053044e-02 1.169372e-02
-1.181022e-02 -1.056410e-02 -1.557064e-02
6.492280e-03 1.354882e-02 1.226704e-02
1.715245e-02 5.200929e-03 -1.240896e-02
-4.894673e-03 -4.221522e-03 -2.206093e-02
1.149009e-03 8.703416e-04 -2.280066e-02
4.565960e-03 -3.784876e-03 -2.215103e-02
1.915451e-05 -1.830817e-04 1.900513e-02
-1.526585e-02 -7.081017e-03 1.010221e-02
-1.609507e-02 -3.646909e-03 1.071124e-02
-1.157925e-02 -1.245670e-02 -1.376120e-02
3.398193e-03 1.622552e-02 1.081175e-02
5.594286e-04 1.641983e-02 1.115436e-02
-2.297969e-03 1.629764e-02 1.114141e-02
-6.916507e-03 1.597561e-02 1.016088e-02
-1.502549e-02 5.835948e-03 1.120840e-02
-1.295114e-02 9.703706e-03 1.101762e-02
-5.297501e-03 1.553496e-02 1.083886e-02
6.861018e-05 -4.517285e-04 1.929524e-02
-1.606235e-02 1.685828e-03 1.122308e-02
-1.601049e-02 2.832399e-03 1.087278e-02
-1.558903e-02 4.636501e-03 1.101054e-02
-3.516891e-03 1.572604e-02 1.122645e-02
-6.046413e-04 1.633374e-02 1.113466e-02
1.954586e-03 1.640425e-02 1.090677e-02
-4.451021e-03 -1.706364e-02 9.254617e-03
-1.334546e-03 -1.766563e-02 9.131985e-03
1.762626e-03 -1.766798e-02 9.134977e-03
1.769186e-02 -9.549907e-04 9.243118e-03
2.232770e-04 -3.410477e-04 1.910273e-02
1.634367e-02 -7.068439e-03 9.144203e-03
1.685440e-02 -5.730741e-03 9.054380e-03
1.391769e-02 -1.110689e-02 9.158215e-03
7.690416e-03 -1.593300e-02 9.232490e-03
1.695584e-02 -4.203561e-03 9.502645e-03
4.732818e-03 -1.681486e-02 9.512033e-03
-2.902946e-03 -1.737491e-02 9.100124e-03
2.104410e-04 -1.770420e-02 9.317641e-03
3.302890e-03 -1.719065e-02 9.379583e-03
1.763315e-02 5.459682e-04 9.292805e-03
2.155846e-05 -4.916077e-05 1.899303e-02
1.464922e-02 -9.781174e-03 9.277000e-03
5.917205e-03 -1.647348e-02 9.219393e-03
1.739425e-02 -2.436186e-03 9.203892e-03
1.060248e-02 -1.389922e-02 9.420181e-03
-1.233143e-02 -1.259461e-02 -1.303013e-02
1.066491e-02 1.286715e-02 1.047009e-02
1.150290e-02 1.182900e-02 1.062639e-02
6.049073e-03 1.544767e-02 1.068620e-02
4.582421e-03 1.582424e-02 1.071867e-02
-1.450150e-02 -7.127469e-03 1.132653e-02
1.652230e-04 -6.638536e-04 1.910765e-02
1.425971e-02 -7.256443e-03 1.129300e-02
-1.547606e-03 1.809345e-02 -1.197456e-02
9.838363e-03 -1.231022e-02 -1.572463e-02
-9.805504e-03 -1.232299e-02 -1.568740e-02
-1.585194e-02 2.565826e-03 1.133610e-02
1.596318e-02 2.690249e-03 1.150207e-02
1.718227e-02 -1.271507e-03 -1.378375e-02
-1.709446e-02 -1.554072e-03 -1.392751e-02
-1.694446e-02 -1.103019e-02 -7.362560e-03
-9.525924e-03 1.079629e-02 -1.697885e-02
2.332272e-04 1.228149e-04 1.894793e-02
-1.423724e-02 1.515208e-02 1.236802e-04
-8.784538e-03 1.347383e-02 1.135068e-02
-1.398806e-02 8.257263e-03 1.092243e-02
2.521109e-03 2.060853e-02 -4.046284e-04
1.062824e-02 1.779994e-02 -7.865467e-04
-1.725691e-02 -4.802140e-03 -1.284739e-02
1.723572e-02 -4.767185e-03 -1.278179e-02
2.311678e-04 2.076765e-02 -1.915804e-03
-1.019163e-02 1.247166e-02 1.117987e-02
-1.595661e-02 -1.584252e-03 1.120178e-02
-4.919821e-05 -6.702362e-05 1.907601e-02
4.874825e-03 1.532404e-02 1.118172e-02
1.651527e-02 -5.665508e-03 -1.357803e-02
-1.650219e-02 -5.666315e-03 -1.358064e-02
-1.639136e-03 1.478879e-02 1.212152e-02
1.106180e-02 -9.688109e-03 -1.694203e-02
-1.225334e-02 1.131968e-02 1.080394e-02
1.208829e-02 1.123968e-02 1.115704e-02
7.105985e-03 1.324736e-02 1.244906e-02
1.429458e-02 -1.038513e-02 -1.311307e-02
4.575920e-03 1.451972e-02 1.219846e-02
-1.295504e-04 -6.121388e-05 1.909491e-02
-7.552079e-05 -4.087025e-04 1.894536e-02
5.243478e-03 1.443916e-02 1.232200e-02
1.032306e-02 1.119479e-02 1.218083e-02
9.884139e-03 1.164178e-02 1.237556e-02
8.252981e-03 -1.250952e-02 -1.656209e-02
-8.529254e-03 -1.272132e-02 -1.601604e-02
1.468765e-02 5.621050e-03 1.169324e-02
1.486866e-02 3.918717e-03 1.199123e-02
1.577445e-02 -5.259297e-03 1.057727e-02
-1.577063e-02 -5.263069e-03 1.056408e-02
-1.296853e-02 -1.461948e-02 -8.235831e-03
2.393690e-04 2.285150e-04 1.904515e-02
-6.258505e-03 -1.850690e-02 -8.237433e-03
1.004124e-02 1.275970e-02 1.089753e-02
9.683440e-03 1.186507e-02 1.205512e-02
-1.033481e-02 1.265439e-02 1.070355e-02
-9.531700e-03 1.178909e-02 1.228799e-02
-1.464454e-02 -1.026049e-02 -1.288427e-02
-1.438215e-02 -6.614118e-03 -1.549780e-02
2.422851e-03 1.648007e-02 1.054038e-02
7.857170e-03 1.440376e-02 1.097533e-02
1.245855e-02 1.654306e-02 -2.661119e-03
-3.993251e-04 -1.678548e-04 1.903630e-02
1.497168e-02 1.444103e-02 -4.130951e-03
8.214575e-03 1.895745e-02 -2.521059e-03
4.941725e-03 2.011170e-02 -2.619925e-03
1.104262e-02 -1.260542e-02 1.028068e-02
-1.236656e-02 8.533227e-03 -1.639634e-02
-6.713901e-03 1.444426e-02 1.174797e-02
1.136537e-02 1.230206e-02 1.063303e-02
1.027020e-02 1.173252e-02 1.185718e-02
1.290644e-02 8.425513e-03 1.202495e-02
-9.933400e-03 -1.341161e-02 1.035915e-02
1.174164e-04 -9.458381e-05 1.899997e-02
-7.007195e-03 -1.528605e-02 1.051785e-02
-3.719117e-03 -1.639036e-02 1.049493e-02
1.662112e-02 2.076195e-03 1.024315e-02
1.426758e-02 -8.008322e-03 1.094446e-02
1.234049e-02 -1.165309e-02 1.034770e-02
8.592293e-03 -1.391245e-02 1.095370e-02
4.242856e-03 -1.586709e-02 1.102355e-02
1.492618e-02 7.039154e-03 1.059297e-02
-1.441202e-02 -1.604306e-03 -1.717629e-02
1.436981e-02 -1.722974e-03 -1.726467e-02
3.508307e-05 -6.910863e-06 1.889143e-02
9.628322e-04 -1.465933e-02 -1.699555e-02
1.408794e-02 5.757531e-03 -1.630404e-02