# vtk DataFile Version 2.0
Electric current density generated by TTH
ASCII
DATASET UNSTRUCTURED_GRID
POINTS 1560 double
1.625427e-05 -3.981148e-21 -5.189056e-22
1.386552e-05 8.482263e-06 -5.189056e-22
1.577278e-05 -3.926919e-06 -5.189056e-22
-1.304706e-05 -5.041496e-06 -2.113385e-06
-1.186376e-05 5.467702e-06 1.827021e-06
-1.277357e-05 1.062367e-06 -1.658705e-06
-1.402179e-05 -7.882698e-06 -8.283335e-07
1.167702e-05 4.553105e-06 -1.385930e-06
1.167702e-05 -4.553105e-06 -1.385930e-06
-1.466371e-05 -3.453986e-06 -1.903887e-06
1.178739e-05 5.739758e-06 1.854083e-06
1.178739e-05 -5.739758e-06 1.854083e-06
1.725597e-06 1.207592e-05 -8.579621e-07
1.598284e-05 -2.958043e-06 -5.189056e-22
1.385157e-05 8.236447e-06 7.544933e-07
1.385157e-05 -8.236447e-06 7.544933e-07
-1.143381e-05 -8.574385e-06 -2.112842e-06
6.179966e-06 -1.035976e-05 -4.387951e-07
1.174579e-05 -1.098800e-05 8.318172e-07
1.174579e-05 1.098800e-05 8.318172e-07
-7.060024e-06 1.066478e-05 1.636247e-06
8.184884e-06 1.292304e-05 1.771961e-06
8.301486e-06 -9.140928e-06 1.136825e-06
8.286448e-06 9.158221e-06 1.141080e-06
1.613345e-05 -1.978164e-06 -5.189056e-22
5.872229e-07 1.406170e-05 -2.117694e-06
1.074237e-05 5.914432e-06 9.905544e-07
1.074237e-05 -5.914432e-06 9.905544e-07
2.204410e-06 1.326224e-05 -2.002570e-06
-6.115921e-07 1.609544e-05 7.759612e-07
-2.331963e-06 1.360779e-05 -2.092809e-06
-3.540585e-06 -1.571481e-05 -7.717117e-07
9.816294e-06 -9.515141e-06 2.067016e-06
9.816294e-06 9.515141e-06 2.067016e-06
-6.007007e-06 -1.490706e-05 -8.600210e-07
1.622404e-05 -9.909250e-07 -5.189056e-22
-9.994126e-06 7.986153e-06 -1.638806e-06
5.474344e-06 -1.325274e-05 -2.108825e-06
1.513964e-05 5.460601e-06 -8.075739e-07
1.513964e-05 -5.460601e-06 -8.075739e-07
8.716439e-06 1.356532e-05 -7.305226e-07
1.832484e-06 1.536072e-05 1.645897e-06
4.145759e-06 1.557222e-05 -7.564349e-07
-5.885388e-06 1.413478e-05 -1.762615e-06
8.156522e-06 -1.289503e-05 1.796809e-06
3.716613e-07 1.329418e-05 1.946546e-06
1.604446e-05 -3.929760e-21 9.192230e-07
-4.376274e-06 1.490375e-05 -1.592473e-06
-1.006925e-05 -9.083224e-06 -2.039100e-06
1.096601e-05 -1.183578e-05 -7.007514e-07
1.098743e-05 1.179028e-05 -7.521147e-07
1.045894e-06 -1.604419e-05 -8.455135e-07
4.404487e-06 -1.547488e-05 -8.191890e-07
-9.006017e-06 -1.031202e-05 -2.071420e-06
-9.687930e-06 8.900305e-06 1.878298e-06
-1.151665e-05 -8.869300e-06 2.080412e-06
-9.939589e-07 -1.235326e-05 -1.205043e-06
1.545660e-05 -3.785775e-21 1.656383e-06
-1.587930e-05 -2.622015e-06 -8.075746e-07
-9.842297e-06 1.272263e-05 8.291651e-07
-1.524130e-05 1.032409e-07 -1.807004e-06
8.822674e-06 9.056172e-06 -1.503774e-06
8.822674e-06 -9.056172e-06 -1.503774e-06
1.468543e-05 -6.598111e-06 7.946414e-07
1.468543e-05 6.598111e-06 7.946414e-07
-1.099709e-05 -7.166271e-06 -1.862511e-06
-1.247014e-05 7.829378e-06 2.035194e-06
1.123512e-05 4.268514e-06 8.151501e-08
1.460711e-05 -3.577710e-21 2.065475e-06
1.123512e-05 -4.268514e-06 8.151501e-08
-8.494262e-06 1.271616e-05 -1.775036e-06
-9.966115e-07 1.235894e-05 -1.213508e-06
-1.396184e-05 -6.916277e-06 1.549015e-06
-4.354755e-06 1.347453e-05 2.118445e-06
-5.858251e-06 -1.230029e-05 2.055901e-06
-1.158750e-05 -9.747824e-06 -1.864156e-06
-8.145601e-06 1.389866e-05 -7.691246e-07
-3.648580e-06 -1.146712e-05 -2.638292e-07
-1.198277e-05 1.618198e-06 -5.567229e-07
1.366425e-05 -3.346775e-21 2.065475e-06
-8.332394e-06 1.378767e-05 7.686991e-07
-6.249845e-06 1.092590e-05 1.445838e-06
-1.139884e-05 3.961473e-06 4.598495e-07
1.518816e-06 1.215280e-05 9.605345e-07
-1.069662e-06 -1.419729e-05 -2.116143e-06
1.167100e-05 8.951171e-06 2.039725e-06
1.167100e-05 -8.951171e-06 2.039725e-06
3.855693e-06 1.171475e-05 -1.112927e-06
9.024633e-06 -1.122434e-05 -2.101733e-06
9.018259e-06 1.120931e-05 -2.103667e-06
1.281476e-05 -3.138710e-21 1.656383e-06
4.767004e-06 -1.107618e-05 -4.165610e-07
2.682002e-06 -1.520050e-05 1.673147e-06
1.446560e-05 -5.630819e-06 -1.601288e-06
1.446560e-05 5.630819e-06 -1.601288e-06
6.041568e-06 -1.495860e-05 7.076760e-07
-1.199658e-05 -1.554980e-06 -5.761586e-07
1.413690e-05 -7.356662e-07 2.118495e-06
1.415423e-05 8.143279e-07 2.118177e-06
4.971757e-06 -1.220216e-05 -1.888851e-06
-5.907152e-06 1.059584e-05 6.859639e-07
1.222689e-05 -2.994725e-21 9.192230e-07
1.341500e-05 -7.952675e-06 -1.535746e-06
1.341500e-05 7.952675e-06 -1.535746e-06
2.653355e-06 -1.225983e-05 1.397843e-06
-1.052854e-05 -1.132191e-05 -1.653042e-06
8.788073e-06 1.057587e-05 2.083304e-06
8.788073e-06 -1.057587e-05 2.083304e-06
-7.426075e-06 -1.164441e-05 2.093539e-06
-1.080449e-06 1.521214e-05 1.801581e-06
-1.191541e-05 -1.082663e-05 -7.949554e-07
-7.351882e-06 1.437464e-05 6.698001e-07
1.332261e-05 9.311783e-06 -5.189056e-22
1.201709e-05 -2.943337e-21 1.060874e-20
-9.486889e-06 1.299684e-05 -8.156677e-07
7.088164e-08 -1.613405e-05 7.030926e-07
1.325102e-05 3.208335e-06 2.058311e-06
1.325102e-05 -3.208335e-06 2.058311e-06
-1.493411e-05 2.883290e-06 -1.826057e-06
1.607807e-05 -1.449624e-06 -6.767059e-07
1.607807e-05 1.449624e-06 -6.767059e-07
5.761569e-06 1.436109e-05 1.642568e-06
5.082619e-06 1.532399e-05 6.719333e-07
-7.354149e-06 9.909001e-06 1.124020e-06
1.222689e-05 -2.994725e-21 -9.192230e-07
-2.695701e-06 1.591825e-05 -6.719299e-07
-9.219458e-06 -1.229757e-05 -1.722079e-06
-1.121363e-05 1.050430e-05 -1.725398e-06
-1.587365e-05 2.787554e-06 -7.513975e-07
1.048801e-05 -1.220555e-05 8.115614e-07
1.048801e-05 1.220555e-05 8.115614e-07
7.495234e-06 1.157205e-05 -2.089760e-06
9.574795e-06 7.664852e-06 -9.942101e-07
9.574795e-06 -7.664852e-06 -9.942101e-07
-3.606178e-06 1.571819e-05 7.244361e-07
1.281476e-05 -3.138710e-21 -1.656383e-06
-5.548038e-06 1.516311e-05 6.679196e-07
1.176599e-05 6.334734e-06 -1.972628e-06
1.176599e-05 -6.334734e-06 -1.972628e-06
2.610679e-06 -1.587807e-05 8.149457e-07
-7.898796e-06 -1.310221e-05 -1.770635e-06
-1.276752e-05 9.143404e-07 1.644681e-06
-1.078368e-05 -5.593624e-06 -7.334751e-07
-6.211323e-06 -1.115632e-05 -1.618723e-06
1.461915e-05 4.052330e-06 1.848728e-06
1.461915e-05 -4.052330e-06 1.848728e-06
1.366425e-05 -3.346775e-21 -2.065475e-06
-1.224461e-05 7.016873e-06 2.118468e-06
5.256618e-06 -1.522811e-05 -7.688159e-07
-9.873744e-06 1.159683e-05 1.813601e-06
8.974987e-07 -1.202868e-05 4.344872e-07
-1.550309e-05 -2.042451e-06 1.494759e-06
-1.182008e-05 -1.029177e-05 1.458041e-06
-8.498355e-06 1.096962e-05 2.102668e-06
-7.548915e-06 1.326228e-05 1.795511e-06
4.652634e-06 -1.320965e-05 2.114563e-06
-5.744364e-06 1.408070e-05 1.827549e-06
1.460711e-05 -3.577710e-21 -2.065475e-06
-1.113786e-05 7.017622e-06 -1.882784e-06
4.857824e-06 1.155516e-05 1.387620e-06
-1.335835e-05 -7.466057e-06 -1.767868e-06
4.785212e-06 1.115432e-05 -7.038613e-07
-1.186351e-05 -1.953063e-06 1.607733e-07
-1.186471e-05 -6.123839e-06 1.968271e-06
-8.902904e-06 8.173150e-06 -5.344860e-07
1.316117e-05 9.194318e-07 1.897435e-06
1.318692e-05 -7.363812e-07 1.904431e-06
-7.399170e-06 -9.516645e-06 3.971113e-07
1.545660e-05 -3.785775e-21 -1.656383e-06
-4.564585e-06 -1.548176e-05 -6.845137e-07
-1.167060e-05 2.995336e-06 -3.655366e-07
-1.507584e-05 1.948426e-06 -1.831129e-06
6.699516e-06 -1.408937e-05 -1.530036e-06
6.551649e-06 -1.222271e-05 -2.101603e-06
9.137466e-06 1.265074e-05 -1.525712e-06
-1.063948e-05 1.213998e-05 -6.792851e-07
-1.605850e-05 -1.309464e-06 7.637821e-07
-1.153827e-05 -1.124542e-05 7.636960e-07
3.522940e-06 1.151247e-05 3.069554e-07
1.604446e-05 -3.929760e-21 -9.192230e-07
1.102716e-05 5.281394e-06 -9.187605e-07
1.102716e-05 -5.281394e-06 -9.187605e-07
3.468906e-06 1.517803e-05 1.559774e-06
-1.179023e-05 3.618810e-06 -1.113161e-06
-1.024537e-05 -9.855279e-06 -2.117070e-06
4.082433e-06 -1.473921e-05 -1.773815e-06
-1.456299e-05 6.890746e-06 7.659694e-07
-1.354687e-05 8.700846e-06 -7.927003e-07
-8.618350e-06 1.013980e-05 1.950045e-06
2.476442e-06 1.199199e-05 -9.559613e-07
6.831505e-06 -1.131394e-05 1.908786e-06
-8.851956e-06 -8.297935e-06 -6.915472e-07
-1.344433e-05 7.731538e-06 1.613270e-06
-1.295658e-05 -2.537519e-06 1.902112e-06
-1.269477e-05 5.703675e-08 1.553251e-06
1.144068e-05 -4.543528e-06 1.074634e-06
1.144068e-05 4.543528e-06 1.074634e-06
-1.293750e-05 3.046367e-06 1.943064e-06
1.404153e-05 -4.570772e-06 -2.022425e-06
1.404153e-05 4.570772e-06 -2.022425e-06
-2.830918e-06 -1.185219e-05 8.280013e-07
6.831505e-06 1.131394e-05 1.908786e-06
1.232662e-05 1.582794e-06 -1.253657e-06
1.232662e-05 -1.582794e-06 -1.253657e-06
1.605254e-05 1.018178e-06 8.302772e-07
1.605254e-05 -1.018178e-06 8.302772e-07
-3.728939e-06 1.223034e-05 1.633180e-06
1.119177e-06 1.308979e-05 -1.868734e-06
-1.251746e-05 -3.700921e-06 1.821120e-06
-3.970633e-06 1.491824e-05 1.671350e-06
6.449891e-07 -1.205015e-05 -4.589957e-07
1.245615e-05 6.985784e-06 2.113579e-06
-3.732350e-06 -1.503543e-05 1.627723e-06
1.245615e-05 -6.985784e-06 2.113579e-06
1.253666e-05 5.272508e-06 2.049820e-06
1.253666e-05 -5.272508e-06 2.049820e-06
-1.526016e-05 -1.574705e-06 -1.742177e-06
-6.536862e-06 -1.296597e-05 2.083338e-06
-9.127770e-06 1.151557e-05 -2.043599e-06
1.231254e-05 1.043424e-05 -6.888704e-07
1.231254e-05 -1.043424e-05 -6.888704e-07
-2.830222e-06 1.508845e-05 1.734933e-06
-3.408629e-06 1.510807e-05 -1.630994e-06
1.273015e-05 1.010666e-05 -5.189056e-22
-1.467288e-05 -6.676312e-06 7.412125e-07
1.176714e-05 -2.697510e-06 4.808347e-07
1.176714e-05 2.697510e-06 4.808347e-07
-1.186808e-05 -4.346702e-06 1.499491e-06
-1.352840e-05 -8.732766e-06 -7.883327e-07
-1.721671e-06 1.606628e-05 6.305471e-07
-1.226637e-05 -1.926334e-07 -9.998964e-07
-6.840707e-06 -1.011380e-05 -8.832956e-07
-1.359662e-05 -4.078134e-06 2.117761e-06
-1.417682e-05 -4.111430e-06 -2.024217e-06
-1.507526e-05 -1.291236e-06 1.870523e-06
-1.409214e-05 7.480677e-06 1.086273e-06
1.496425e-05 5.970043e-06 7.653858e-07
1.496425e-05 -5.970043e-06 7.653858e-07
1.555734e-05 -4.327341e-06 6.626714e-07
1.555734e-05 4.327341e-06 6.626714e-07
2.199464e-06 -1.375923e-05 2.108964e-06
-2.292904e-06 1.191471e-05 -6.921401e-07
-1.239671e-05 -9.574213e-06 -1.467764e-06
-2.395830e-06 -1.459175e-05 -2.015950e-06
[...]
POINT_DATA 1560
VECTORS 10.000GHz_fone_imag double
2.651662e-05 -1.167665e-03 2.238361e-02
8.992266e-04 -5.777090e-04 2.227810e-02
6.157936e-04 -6.614507e-04 2.420195e-02
-3.811363e-02 -1.517684e-02 -4.461272e-03
3.566272e-02 -1.718052e-02 -2.620604e-02
-3.963447e-02 5.918077e-03 -3.102766e-02
-9.152915e-03 -4.452965e-03 2.107539e-02
3.212467e-02 1.048242e-02 -4.057574e-02
3.263854e-02 -1.129515e-02 -4.106485e-02
-2.868507e-02 -8.116745e-03 1.126430e-02
-3.735421e-02 -1.869594e-02 -2.562107e-02
-3.737313e-02 1.864799e-02 -2.565392e-02
2.384299e-03 2.222244e-02 -5.398923e-02
-5.197026e-05 9.563612e-04 2.392845e-02
-7.891553e-03 -4.630413e-03 2.344921e-02
-7.806280e-03 4.643167e-03 2.334735e-02
-2.671493e-02 -2.015259e-02 -4.601544e-06
7.211268e-03 -1.120541e-02 -6.193532e-02
-6.801020e-03 5.028202e-03 2.152871e-02
-7.903517e-03 -7.264083e-03 2.287752e-02
2.168054e-02 -3.188870e-02 -3.678075e-02
-1.443438e-02 -2.096838e-02 1.566677e-02
-2.080945e-02 2.239681e-02 -4.463656e-02
-2.155978e-02 -2.348971e-02 -4.508309e-02
-8.088633e-05 -5.106838e-04 2.209583e-02
1.554210e-03 3.618974e-02 -5.151342e-03
-2.323245e-02 -1.209579e-02 -5.467538e-02
-2.288645e-02 1.292091e-02 -5.454739e-02
5.844889e-03 3.882317e-02 -1.521654e-02
7.099953e-05 -1.000702e-02 2.235140e-02
-6.051009e-03 4.060333e-02 -7.761474e-03
-1.272793e-03 -7.966918e-03 2.164915e-02
-2.859031e-02 2.825168e-02 -1.014997e-02
-3.167265e-02 -2.834674e-02 -1.316610e-02
-4.334366e-03 -1.072566e-02 1.960637e-02
-1.222815e-03 3.810836e-04 2.292522e-02
-3.034485e-02 2.503393e-02 -3.323052e-02
1.504547e-02 -3.532058e-02 1.824329e-03
8.026556e-03 3.493588e-03 2.250280e-02
7.963381e-03 -3.668715e-03 2.254263e-02
5.444668e-03 7.952243e-03 2.339180e-02
-1.601133e-03 -1.991594e-02 1.693102e-02
2.845893e-03 1.008161e-02 2.326817e-02
-8.448947e-03 2.342621e-02 1.556314e-02
-1.376114e-02 2.139576e-02 1.422677e-02
5.493358e-04 -3.887245e-02 -1.887668e-02
-1.129942e-02 4.168137e-04 2.336052e-02
-5.299961e-03 2.113896e-02 1.596002e-02
-3.027603e-02 -2.674165e-02 -1.171288e-02
5.747142e-03 -6.732775e-03 2.162779e-02
5.570962e-03 7.475319e-03 2.251340e-02
1.681556e-03 -8.567384e-03 2.143932e-02
2.362410e-03 -9.384613e-03 2.317987e-02
-2.613670e-02 -3.043284e-02 -1.071068e-02
2.865750e-02 -2.545641e-02 -2.295331e-02
2.714415e-02 1.989525e-02 4.305201e-03
4.084848e-04 -2.810794e-02 -4.784339e-02
-2.300957e-02 8.972244e-04 1.493267e-02
-9.379100e-03 -1.890390e-03 2.325302e-02
6.387863e-03 -8.345946e-03 2.259991e-02
-2.588141e-02 3.485017e-04 1.268045e-02
2.414237e-02 2.303699e-02 -3.927708e-02
2.556959e-02 -2.593859e-02 -4.090953e-02
-8.289273e-03 3.251258e-03 2.045282e-02
-8.275121e-03 -3.267205e-03 2.047801e-02
-3.426898e-02 -2.512139e-02 -2.367465e-02
2.672615e-02 -1.665448e-02 8.616316e-03
-2.918228e-03 3.230308e-04 -6.230832e-02
-3.433192e-02 -1.297857e-03 6.689606e-03
-1.809203e-03 2.411370e-03 -6.020058e-02
-1.436024e-02 2.283027e-02 1.400323e-02
-9.170319e-04 2.661122e-02 -4.710338e-02
1.885507e-02 8.798570e-03 1.702580e-02
1.247943e-02 -3.772372e-02 -2.273589e-03
1.847185e-02 3.680693e-02 -1.339846e-02
-2.173023e-02 -1.908460e-02 1.302155e-02
-5.204877e-03 8.139936e-03 2.321971e-02
-1.500281e-03 -4.801077e-03 -5.918661e-02
-1.275266e-02 4.812949e-03 -5.705565e-02
-4.155785e-02 9.556588e-04 -1.415619e-02
4.818874e-03 -7.267758e-03 2.345047e-02
1.507340e-02 -3.035092e-02 -4.327805e-02
1.299818e-02 -6.442261e-03 -6.024768e-02
-9.788870e-04 -2.488950e-02 -5.245725e-02
-3.482522e-03 -3.529510e-02 -1.828269e-04
-2.767311e-02 -2.059612e-02 7.333611e-03
-2.773135e-02 2.125371e-02 7.418919e-03
8.105765e-03 2.685832e-02 -4.845593e-02
2.158923e-02 -2.617585e-02 1.799903e-03
2.219838e-02 2.857515e-02 3.331208e-03
-3.640531e-02 -5.268255e-04 -3.171240e-02
3.777146e-03 -9.681332e-03 -6.248156e-02
-4.386920e-03 2.335638e-02 1.816833e-02
2.161847e-02 -8.116954e-03 1.738152e-02
2.171757e-02 8.300472e-03 1.749030e-02
-3.086462e-03 7.393349e-03 2.287534e-02
-1.217536e-02 -2.988489e-03 -5.796323e-02
-3.582857e-02 1.828529e-03 -2.608746e-03
-3.828574e-02 -2.916573e-03 2.142927e-05
1.392379e-02 -3.562090e-02 -2.319440e-02
1.085932e-02 -1.502745e-02 -5.446675e-02
-2.607854e-02 3.072055e-04 -5.411011e-02
1.833304e-02 -1.156638e-02 1.825795e-02
1.834540e-02 1.157442e-02 1.825130e-02
-8.366471e-03 3.576525e-02 -4.531435e-02
-1.631145e-02 -1.648494e-02 1.824581e-02
-2.651775e-02 -3.364972e-02 -9.679140e-03
-2.652694e-02 3.214389e-02 -8.825975e-03
2.093174e-02 3.180758e-02 -9.892214e-03
2.602771e-03 -2.643543e-02 1.426234e-02
-6.986066e-03 -5.967831e-03 2.072573e-02
3.329126e-03 -6.851349e-03 2.306811e-02
-2.123705e-04 9.766774e-04 2.392027e-02
1.045466e-03 2.552425e-04 -6.284387e-02
-4.483612e-03 7.814377e-03 2.232460e-02
-3.415672e-04 8.478051e-03 2.346321e-02
-3.899798e-02 -8.251819e-03 -8.913748e-03
-3.720728e-02 8.349104e-03 -1.126446e-02
-2.306580e-02 4.879345e-03 1.489644e-02
8.286059e-03 -4.635285e-04 2.348392e-02
7.329188e-03 -4.138689e-04 2.225217e-02
-7.707471e-03 -2.136148e-02 1.793308e-02
-1.988824e-03 -8.848137e-03 2.190410e-02
1.453735e-02 -1.958648e-02 -4.702829e-02
2.309910e-02 2.055787e-03 -5.028851e-02
-2.137865e-03 8.505636e-03 2.274008e-02
-1.510082e-02 -2.101857e-02 1.558073e-02
-1.809470e-02 1.653233e-02 1.692811e-02
-8.976001e-03 1.588748e-03 2.325960e-02
-5.870448e-03 6.781756e-03 2.074574e-02
-6.053441e-03 -7.780859e-03 2.286719e-02
2.289442e-02 3.348029e-02 -7.908111e-03
1.827381e-02 1.605653e-02 -4.990970e-02
1.641656e-02 -1.604651e-02 -5.093160e-02
1.815227e-03 -8.656733e-03 2.195190e-02
3.993461e-02 -1.410140e-03 -3.420732e-02
2.303824e-03 -8.928921e-03 2.264868e-02
3.750027e-02 2.030195e-02 -1.967807e-02
3.489817e-02 -2.043075e-02 -2.075061e-02
-1.035488e-03 9.851832e-03 2.052352e-02
-1.168906e-02 -2.062079e-02 1.575143e-02
4.015698e-02 -3.083531e-03 -3.428032e-02
-1.538911e-02 -1.160710e-02 -5.680897e-02
-1.848128e-02 -3.487005e-02 -3.186416e-02
-2.603858e-02 -7.373746e-03 1.394345e-02
-2.607431e-02 7.963200e-03 1.390831e-02
4.273567e-02 -6.064609e-04 -1.184520e-02
3.494463e-02 -2.041602e-02 -3.315668e-03
3.160806e-03 -8.708682e-03 2.390517e-02
1.800206e-02 -2.083323e-02 1.505814e-02
-1.759645e-03 7.493224e-03 -5.738784e-02
2.186386e-02 3.422217e-03 1.845748e-02
1.427758e-02 1.137726e-02 1.849950e-02
2.376148e-02 -3.067090e-02 -5.925287e-03
1.313403e-02 -2.361230e-02 1.404208e-02
-1.364654e-02 3.813554e-02 -4.902413e-03
8.848420e-03 -2.256379e-02 1.405827e-02
3.182151e-02 9.262550e-04 4.611221e-03
-3.117616e-02 2.108728e-02 -2.347599e-02
-1.145514e-02 -3.060426e-02 -4.391498e-02
-2.105293e-02 -1.310310e-02 1.516917e-02
5.997628e-03 1.793340e-02 -5.750590e-02
4.834044e-03 6.531262e-04 -6.221111e-02
3.729329e-02 1.804297e-02 -1.771762e-02
-1.029036e-02 1.306738e-02 -5.862840e-02
-4.063372e-02 -3.030252e-03 -2.227503e-02
-4.285252e-02 2.825689e-03 -2.294899e-02
7.045272e-03 1.114965e-02 -6.162476e-02
2.381901e-02 2.508696e-05 1.674319e-02
-2.545851e-03 -8.131647e-03 2.327222e-02
-9.329628e-03 3.296840e-03 -5.846759e-02
-2.533292e-02 2.658847e-03 1.379295e-02
7.871283e-03 -1.890855e-02 1.644424e-02
1.967157e-02 -3.655632e-02 -6.598915e-03
1.368453e-02 1.650012e-02 1.646262e-02
-5.343818e-03 5.834995e-03 2.294550e-02
8.843983e-03 7.964147e-04 2.347441e-02
6.992559e-03 6.843322e-03 2.149926e-02
-1.338040e-03 -1.136136e-02 -6.129237e-02
1.115944e-02 1.749439e-04 2.278831e-02
2.343688e-02 1.172672e-02 -5.070982e-02
2.396255e-02 -1.196553e-02 -5.092043e-02
-5.635853e-03 -2.172077e-02 1.895065e-02
-2.643116e-02 1.014016e-02 -5.036073e-02
-2.548030e-02 -2.533353e-02 -2.336106e-03
7.531803e-03 -2.281224e-02 1.516851e-02
8.086231e-03 -3.273927e-03 2.204337e-02
-8.070746e-03 5.374450e-03 2.288961e-02
2.766606e-02 -3.329756e-02 -1.910230e-02
7.286948e-03 2.276291e-02 -5.481394e-02
-2.238600e-02 3.661102e-02 -2.213843e-02
-1.665135e-02 -1.303630e-02 -5.186691e-02
1.874213e-02 -1.010215e-02 1.551038e-02
4.231926e-02 7.774653e-03 -2.335675e-02
3.776734e-02 -1.238487e-03 -3.974911e-02
-2.259676e-02 7.931292e-03 -5.075813e-02
-2.227499e-02 -9.235469e-03 -5.024557e-02
4.083498e-02 -1.070598e-02 -2.146467e-02
2.983546e-02 -9.325895e-03 1.115725e-02
2.776750e-02 9.265191e-03 1.046993e-02
5.955202e-03 2.074013e-02 -5.617209e-02
-2.245858e-02 -3.703760e-02 -2.351230e-02
2.844547e-02 3.413260e-03 -4.601919e-02
2.950029e-02 -2.496891e-03 -4.575225e-02
-9.717594e-03 -1.804545e-04 2.253184e-02
-7.567994e-03 3.919784e-04 2.155842e-02
1.113686e-02 -3.928559e-02 -3.341832e-02
2.997003e-03 4.204536e-02 -2.130427e-02
3.680570e-02 1.244881e-02 -2.584945e-02
5.026049e-03 -2.155448e-02 1.531671e-02
-1.242698e-03 -1.147221e-02 -5.641372e-02
-3.155126e-02 -1.707913e-02 1.602368e-03
5.633607e-03 2.249126e-02 1.831894e-02
-3.164017e-02 1.708253e-02 1.554287e-03
-3.634793e-02 -1.466683e-02 -9.378070e-03
-3.602416e-02 1.477324e-02 -9.208563e-03
-2.272038e-02 -2.802621e-03 1.568271e-02
1.618155e-02 3.224052e-02 5.190097e-03
-2.114857e-02 2.703793e-02 7.621966e-03
5.828395e-03 3.660986e-03 2.218537e-02
5.969128e-03 -5.147750e-03 2.368702e-02
4.592378e-03 -2.501165e-02 1.623590e-02
-5.523019e-03 2.230963e-02 1.752317e-02
-2.493158e-04 2.661626e-04 2.313175e-02
7.943464e-03 3.367930e-03 2.315981e-02
-1.204595e-02 9.369800e-04 -6.176486e-02
-1.184251e-02 -2.177070e-03 -5.925820e-02
3.510124e-02 1.371742e-02 -3.838757e-02
-7.446677e-03 -6.252642e-03 2.245430e-02
9.935349e-04 -7.918280e-03 2.348986e-02
-2.801980e-02 2.221869e-03 -5.078424e-02
-1.401557e-02 -1.700346e-02 -5.487950e-02
3.704275e-02 1.049784e-02 -7.139496e-04
-3.100186e-02 -9.804277e-03 9.155695e-03
2.695110e-02 2.147475e-03 1.085722e-02
1.254696e-02 -6.253890e-03 2.187257e-02
-6.531172e-03 -2.512233e-03 2.122089e-02
-6.441866e-03 2.444778e-03 2.124074e-02
-7.414876e-03 2.261727e-03 2.311455e-02
-7.218324e-03 -2.049779e-03 2.294235e-02
-6.039901e-03 3.559457e-02 -6.450848e-03
-5.507540e-03 2.191472e-02 -5.292992e-02
-1.606897e-02 -1.232883e-02 1.912332e-02
-4.907372e-03 -3.248920e-02 9.062047e-03
9.150485e-03 1.311068e-02 -5.251354e-02
-2.428525e-03 2.305510e-02 1.800352e-02
8.303052e-03 -3.126055e-02 9.342556e-03
-7.458474e-03 3.607578e-03 2.279442e-02
-4.812355e-03 -4.111463e-03 -6.252070e-02
4.194725e-02 6.919424e-03 -1.501587e-02
4.149610e-02 -7.829669e-03 -1.473427e-02
5.710113e-03 -5.437137e-03 2.340921e-02
1.074060e-02 3.995284e-02 -7.022718e-03
1.804106e-02 3.530109e-02 -2.629840e-03
1.361467e-02 -3.394999e-02 -3.714823e-02
7.794811e-03 -2.268381e-02 1.349879e-02
3.894409e-02 -1.740961e-02 -2.074593e-02
2.091499e-02 1.187520e-03 -5.095905e-02
3.913130e-02 1.770877e-02 -2.098095e-02
1.421682e-02 1.666850e-02 1.862990e-02
1.376224e-02 -1.542590e-02 1.874530e-02
-6.799872e-03 -5.068116e-05 2.242300e-02
-4.176432e-03 -8.537108e-03 2.275358e-02
-1.991816e-02 1.257540e-02 1.518424e-02
3.318683e-02 -1.849964e-02 -2.560175e-02
1.889595e-02 -1.782352e-02 1.263964e-02
1.904239e-02 1.783237e-02 1.488897e-02
-3.856188e-02 2.623961e-03 4.001750e-05
1.219390e-02 1.799557e-02 -5.614449e-02
-2.336035e-02 3.398052e-02 -5.807307e-03
8.790271e-03 -2.356762e-02 1.566795e-02
-2.329983e-03 -4.344549e-03 -5.819517e-02
2.437476e-02 -1.189064e-02 1.298107e-02
1.097197e-03 6.822139e-03 2.238425e-02
-2.134686e-03 -5.430327e-03 2.157814e-02
1.833005e-02 1.476628e-02 -5.668125e-02
1.738873e-04 8.230383e-03 2.339773e-02
1.057951e-02 -3.777721e-02 -1.595191e-03
2.620393e-02 1.325806e-02 -5.123137e-02
3.154589e-02 2.014251e-02 -1.365070e-02
2.573485e-02 -1.249769e-02 -5.123600e-02
-6.238042e-03 4.795488e-03 2.340250e-02
4.130090e-02 -3.232990e-03 -2.597540e-02
4.138262e-02 3.422687e-03 -2.858228e-02
-3.193152e-02 2.822500e-02 -1.162055e-02
-3.252445e-02 -2.762914e-02 -1.150300e-02
3.619415e-03 -8.173269e-03 2.305523e-02
2.356521e-03 2.660110e-02 -4.950755e-02
-2.251551e-02 2.141248e-03 1.752972e-02
-1.990738e-02 -3.036461e-03 1.776847e-02
3.167586e-02 -2.017490e-02 -1.212939e-02
1.768218e-03 2.273950e-02 1.595254e-02
1.269929e-02 -1.680528e-02 1.827929e-02
5.214877e-03 3.247476e-02 6.195533e-03
-1.160146e-03 8.862689e-03 2.329123e-02
-4.881615e-05 -8.533974e-03 2.360852e-02
-6.647194e-03 -2.206184e-02 1.825902e-02
3.511762e-02 -6.352099e-03 5.044952e-03
-4.278137e-02 -7.440217e-04 -1.269585e-02
-3.348641e-02 -2.505655e-02 -1.624347e-02
-3.435551e-02 2.485673e-02 -1.664310e-02
-2.402687e-02 -1.526528e-02 1.212185e-02
1.205034e-02 -1.572321e-02 1.964949e-02
2.503376e-02 3.193938e-02 -1.765134e-02
2.760907e-02 -3.341458e-02 -1.703736e-02
6.596297e-03 -3.510959e-04 2.184231e-02
4.626433e-03 6.441906e-03 2.348905e-02
-5.292995e-03 7.220933e-03 2.135252e-02
-3.715304e-02 1.499748e-02 -2.045617e-02
-3.922673e-02 -1.665390e-02 -2.222703e-02
-3.171556e-02 -2.206594e-03 5.108986e-03
5.968741e-03 7.783064e-03 2.152898e-02
-2.402005e-02 1.532121e-02 1.223183e-02
8.926002e-03 1.350895e-05 2.316288e-02
2.401415e-02 -2.272858e-02 7.407638e-03
-1.870785e-02 -1.243917e-02 1.776200e-02
-3.434176e-02 -1.405751e-02 -3.597214e-02
2.725330e-03 3.587990e-02 4.821375e-03
3.293683e-03 8.016176e-03 2.322418e-02
-3.553291e-02 1.846909e-02 -1.363147e-02
-3.556171e-02 -1.853425e-02 -1.359162e-02
1.880167e-02 -6.668149e-03 1.849124e-02
-1.485070e-02 -1.482037e-02 1.912131e-02
-1.091279e-02 1.071514e-02 2.072993e-02
2.428182e-02 2.782279e-02 -5.981291e-03
3.453240e-03 -3.539525e-02 -3.844615e-02
4.058747e-03 -4.058698e-02 -9.529430e-03
-8.201328e-03 3.763690e-02 3.321372e-04
-1.376386e-02 -3.079621e-02 8.233915e-03
7.449958e-04 2.327869e-02 1.336314e-02
3.150536e-02 -6.355914e-03 8.281569e-03
1.907055e-02 -1.361547e-02 1.772064e-02
1.911649e-02 1.371866e-02 1.778374e-02
-1.211248e-02 -2.289610e-02 -5.599233e-02
4.421457e-04 -1.589537e-04 2.415179e-02
8.013382e-03 -1.432034e-02 -5.482534e-02
2.749670e-02 -7.618845e-03 -4.472155e-02
-2.189894e-02 -3.526800e-02 -2.144881e-02
-1.367412e-02 3.453024e-02 2.989839e-03
3.258329e-03 7.289802e-03 2.321338e-02
-1.844785e-02 3.756675e-02 -9.111050e-03
3.965561e-02 7.026958e-03 -3.689179e-02
3.975838e-02 -6.355638e-03 -3.745136e-02
-1.547725e-02 1.982053e-02 -5.602133e-02
2.982461e-02 5.032748e-04 6.904730e-03
-1.600433e-02 -9.743557e-03 1.766387e-02
1.055663e-03 1.183914e-02 -5.588442e-02
-1.586637e-02 9.725764e-03 1.778855e-02
-2.690014e-02 2.793435e-02 -6.105791e-03
-3.307447e-02 8.847169e-03 7.589636e-03
-8.865845e-03 -3.557434e-02 -4.110997e-02
6.039766e-03 -3.121853e-02 9.907550e-03
8.953328e-03 1.953482e-02 1.672765e-02
-2.589584e-02 4.922032e-03 1.256073e-02
-2.710110e-02 -4.759066e-03 1.492211e-02
-1.405065e-02 1.867911e-02 1.804378e-02
-1.417457e-02 -1.895634e-02 1.719735e-02
4.385054e-03 -1.939647e-02 -5.668489e-02
-2.494860e-03 -4.145159e-02 -1.352838e-02
-1.599357e-02 -2.650662e-02 6.480566e-03
3.722095e-02 5.482897e-03 -3.230386e-02
1.503562e-02 -2.707885e-02 -4.228968e-02
1.409576e-02 -3.553774e-02 -2.706463e-02
-8.013585e-03 -5.270762e-05 2.354153e-02
-1.764988e-02 1.457437e-02 1.487959e-02
-2.994563e-02 2.261563e-02 3.955753e-03
3.255797e-02 -2.584558e-02 -1.174427e-02
-6.539260e-03 6.192066e-03 2.058330e-02
-1.466190e-02 -2.275973e-02 -5.248203e-02
2.484791e-02 1.897626e-02 -4.493976e-02
-1.697641e-02 2.968895e-02 7.337086e-03
2.133064e-02 -3.191327e-02 -3.106886e-02
-2.841103e-02 1.840866e-02 -4.251548e-02
-2.958987e-02 -1.928789e-02 -4.585589e-02
-3.666796e-02 1.020831e-02 -4.175443e-02
-3.395890e-02 -1.033520e-02 -4.115981e-02
3.087021e-02 2.506115e-02 -8.718046e-03
3.080096e-02 -2.783847e-02 -7.587449e-03
-1.648194e-02 -3.382956e-02 -2.923658e-03
-1.392612e-02 2.060789e-02 -4.606684e-02
2.012389e-02 2.469576e-02 9.793157e-03
2.082512e-03 -1.898241e-02 -5.846627e-02
1.108528e-02 3.691856e-02 -3.541677e-02
-1.034581e-02 -4.051489e-02 -1.006483e-02
-7.016720e-03 -2.877423e-02 -4.461652e-02
-2.246877e-02 -1.131215e-02 -4.998238e-02
3.907973e-03 1.311531e-03 -6.068794e-02
8.138329e-03 1.999043e-03 2.097740e-02
7.785923e-03 -1.308888e-03 2.131221e-02
2.656708e-02 9.468466e-03 1.234259e-02
-2.078006e-02 9.317448e-03 -5.734018e-02
-3.787516e-02 -1.864283e-02 -3.043832e-02
4.270977e-02 3.948116e-03 -1.008449e-02
2.709222e-02 3.275049e-02 -2.142668e-02
-1.960562e-02 3.307505e-02 -9.334815e-03
1.954295e-04 -3.431294e-02 6.746888e-03
3.035854e-02 2.293409e-02 -3.665427e-02
3.191152e-02 -2.387756e-02 -3.375024e-02
8.000598e-03 -2.160179e-04 2.321730e-02
6.991588e-03 2.748560e-04 2.217669e-02
1.704906e-02 3.531528e-02 -2.764118e-02
-2.881682e-03 -1.119294e-03 -5.668132e-02
6.546559e-04 8.471665e-03 2.054189e-02
-3.770817e-02 -3.627781e-03 -1.289814e-02
-4.088839e-02 -9.481475e-03 -3.189014e-02
-4.007741e-02 1.019601e-02 -2.999369e-02
-2.329797e-02 1.519299e-02 -5.255391e-02
-2.378784e-02 -1.674148e-02 -5.101394e-02
1.469258e-02 3.607274e-02 -3.402850e-03
-5.783693e-03 -1.721064e-03 -5.693618e-02
-5.502947e-03 9.850697e-04 -5.722836e-02
-2.331070e-03 2.135390e-02 1.812697e-02
1.816654e-02 5.912075e-03 1.941798e-02
-5.765310e-03 -3.311494e-03 2.358420e-02
-2.004931e-02 3.116861e-02 -2.768077e-02
-3.219388e-02 -1.066918e-02 7.356209e-03
-3.345598e-02 9.766704e-03 6.128926e-03
-9.147435e-03 1.623685e-02 1.997214e-02
-1.993943e-02 2.960509e-02 4.229214e-03
5.022664e-03 -7.138985e-03 2.145749e-02
-6.273656e-03 -1.471342e-02 -5.796232e-02
-3.912242e-03 -5.341450e-03 2.121828e-02
-1.764543e-02 1.705995e-02 1.541580e-02
1.766119e-02 -6.269257e-03 1.785487e-02
-4.947950e-03 1.668532e-02 -5.654598e-02
2.994294e-02 2.401359e-02 -1.081903e-02
3.074308e-02 -2.457925e-02 -8.621889e-03
-7.806519e-03 1.234715e-03 2.360936e-02
-4.469221e-03 -4.967943e-03 2.215391e-02
-2.045436e-02 -3.507125e-02 -3.747730e-02
-2.387526e-02 -1.937067e-02 -4.122336e-02
-2.364023e-02 2.131566e-02 -3.991268e-02
9.298836e-03 -2.108749e-02 -5.288421e-02
-2.015684e-02 3.248403e-02 -3.742678e-03
-9.693842e-03 3.313515e-02 -4.577136e-02
-2.091054e-02 -3.433753e-02 -9.172523e-03
-5.657246e-03 2.344790e-02 1.801569e-02
-3.061610e-02 1.557539e-02 -4.525969e-02
-3.070235e-02 -1.542388e-02 -4.514867e-02
-3.403044e-02 -2.012812e-02 -4.070289e-03
-3.669276e-02 1.583753e-02 -3.196211e-03
-1.619727e-02 -2.756417e-02 -3.847114e-02
-1.495105e-02 -3.790698e-02 -3.525690e-02
8.051781e-03 -4.931786e-03 2.363975e-02
-1.533746e-02 2.691755e-02 1.113337e-02
-9.160622e-04 1.233904e-04 2.390268e-02
-3.173454e-02 2.168909e-02 -3.794046e-02
2.997154e-02 -2.092737e-02 4.337059e-03
1.606683e-03 -3.742176e-02 -5.814108e-03
4.266895e-03 -1.237501e-03 -6.248661e-02
3.388055e-03 2.693248e-03 -6.109215e-02
6.485384e-03 7.875702e-04 2.305187e-02
5.581409e-03 3.869620e-03 2.374965e-02
-7.803966e-03 1.307044e-03 2.265329e-02
2.112299e-02 6.158090e-03 1.650584e-02
1.992018e-02 1.319808e-02 1.720593e-02
2.156226e-02 -3.619618e-02 -8.590151e-03
-7.774055e-03 -2.605182e-02 -5.535243e-02
-1.962120e-02 -3.384457e-02 -5.307892e-03
3.872598e-03 -8.159289e-03 2.308622e-02
5.611351e-03 -4.343120e-03 2.299646e-02
-5.326699e-03 3.317808e-03 2.341640e-02
-5.450319e-03 -3.280840e-03 2.361222e-02
9.097012e-04 7.867158e-03 2.326651e-02
2.826287e-02 1.625711e-02 6.049074e-03
6.381494e-03 1.904534e-03 2.299217e-02
6.394703e-03 -1.937544e-03 2.294872e-02
-6.701052e-03 3.893548e-02 -3.653281e-02
-1.602861e-02 -4.328808e-03 1.869075e-02
3.196074e-02 -1.207194e-02 2.890199e-03
-1.743245e-02 3.169601e-02 -4.014696e-02
3.830623e-03 -4.824659e-03 -5.980655e-02
3.765520e-02 1.029244e-02 -3.679456e-02
3.780203e-02 -1.061677e-02 -3.797434e-02
2.609274e-03 -2.795001e-03 -6.283250e-02
-1.029423e-02 -2.293287e-02 -5.647899e-02
6.400937e-03 -4.221067e-02 -2.214646e-02
7.970722e-03 2.662166e-03 2.299490e-02
8.302421e-03 -2.754753e-03 2.323301e-02
-1.644775e-02 3.917156e-03 1.813574e-02
3.617982e-02 1.295395e-03 3.334898e-03
3.319562e-02 -1.035560e-03 4.167786e-03
-3.147522e-02 2.156781e-02 -2.081142e-02
-1.894073e-02 -2.515918e-02 6.302052e-03
-4.321616e-02 -5.601407e-03 -2.361980e-02
-4.231468e-02 4.920321e-03 -2.488421e-02
3.423191e-03 7.341025e-03 2.360689e-02
-2.591559e-02 -2.714826e-02 -1.357236e-03
-1.280344e-02 6.919148e-04 -5.710722e-02
3.296286e-03 -9.151314e-03 -6.216277e-02
-1.753689e-02 -6.272920e-03 -5.568579e-02
-2.031117e-02 1.181311e-02 -5.584625e-02