# vtk DataFile Version 2.0
Electric current density generated by TTH
ASCII
DATASET UNSTRUCTURED_GRID
POINTS 1386 double
1.398744e-05 -3.425934e-21 -5.557066e-22
1.119752e-05 8.382359e-06 -5.557066e-22
1.241970e-05 -3.041950e-21 -2.157799e-06
-4.778758e-06 8.152505e-06 -2.253074e-08
-1.217708e-05 6.564253e-06 8.210158e-07
9.546154e-06 -5.861095e-06 2.209216e-06
9.546154e-06 5.861095e-06 2.209216e-06
9.908711e-07 9.420139e-06 3.177484e-07
2.178804e-07 -1.385842e-05 7.493162e-07
-6.490802e-06 -1.223928e-05 7.668871e-07
1.032997e-05 -9.216403e-06 -7.944997e-07
1.032997e-05 9.216403e-06 -7.944997e-07
-1.224717e-05 -4.236003e-07 -2.204645e-06
1.323675e-05 -3.242068e-21 -1.686080e-06
8.699875e-06 -5.452697e-06 -1.744054e-06
8.699875e-06 5.452697e-06 -1.744054e-06
-3.930095e-06 -8.617990e-06 3.157067e-07
5.777861e-06 -7.478931e-06 -6.988105e-08
-9.377156e-06 -1.318792e-06 -2.982571e-07
-1.315855e-05 4.424557e-06 6.819875e-07
-9.275908e-06 -4.260541e-06 -1.692481e-06
8.845298e-06 4.643725e-06 1.469764e-06
8.845298e-06 -4.643725e-06 1.469764e-06
1.170578e-05 6.256448e-06 -1.652862e-06
1.379129e-05 -3.377891e-21 -9.228221e-07
1.170578e-05 -6.256448e-06 -1.652862e-06
-9.780117e-06 -1.214228e-07 -1.180207e-06
9.092150e-06 -9.364976e-06 -1.835244e-06
9.092150e-06 9.364976e-06 -1.835244e-06
-1.749197e-07 9.560610e-06 -7.054563e-07
1.357955e-06 -1.309657e-05 -1.746542e-06
-8.127275e-06 5.453682e-06 -1.191030e-06
-1.293195e-05 4.932420e-06 -8.027788e-07
-1.241272e-08 -9.453620e-06 -1.326144e-07
-1.141536e-05 -3.511207e-06 2.257703e-06
-7.435933e-07 -9.423372e-06 -1.149864e-07
5.946764e-06 1.033622e-05 2.259451e-06
5.954992e-06 -1.030706e-05 2.261282e-06
3.116347e-06 -9.786516e-06 1.746795e-06
8.763261e-06 -3.685847e-06 -5.058176e-07
8.763261e-06 3.685847e-06 -5.058176e-07
1.186129e-06 1.173218e-05 2.267657e-06
-1.306271e-05 4.060803e-07 -1.823185e-06
9.914008e-06 -3.465136e-06 1.915168e-06
9.914008e-06 3.465136e-06 1.915168e-06
1.292523e-05 -3.100673e-06 1.634696e-06
-7.634664e-07 9.418860e-06 -3.502814e-09
1.292523e-05 3.100673e-06 1.634696e-06
-1.047492e-05 3.254145e-06 2.141352e-06
-4.312324e-06 1.110929e-05 2.260161e-06
-9.921283e-06 3.995018e-06 2.025036e-06
-6.667865e-06 1.129219e-05 -1.789080e-06
1.488508e-06 -9.678403e-06 -1.198606e-06
-9.169518e-06 2.434944e-06 4.111223e-07
-2.878822e-07 -1.319086e-05 -1.723609e-06
4.508038e-06 -1.243145e-05 -1.697829e-06
-9.997487e-07 1.029130e-05 1.801788e-06
7.300901e-06 8.255740e-06 2.158909e-06
-4.827511e-06 -8.132876e-06 1.900606e-07
-1.242684e-05 -2.084259e-06 2.090466e-06
-8.905648e-06 4.780846e-06 1.597783e-06
5.822651e-06 7.727649e-06 -9.871072e-07
1.352685e-05 -2.938609e-06 7.982842e-07
1.352685e-05 2.938609e-06 7.982842e-07
-6.752748e-06 9.115364e-06 2.237730e-06
2.949815e-06 -1.278480e-05 -1.783756e-06
1.852700e-06 -9.366511e-06 6.603903e-07
9.975368e-06 8.523093e-06 -1.783796e-06
7.300901e-06 -8.255740e-06 2.158909e-06
9.975368e-06 -8.523093e-06 -1.783796e-06
6.600558e-06 -7.365540e-06 -1.343537e-06
6.661617e-06 7.288243e-06 -1.321016e-06
-2.244418e-09 -1.005468e-05 -1.542418e-06
-6.929416e-06 -6.857205e-06 1.125772e-06
-9.485391e-06 -8.891878e-06 1.871334e-06
-2.420042e-06 1.305247e-05 1.650902e-06
-1.363737e-05 2.596402e-06 -6.825484e-07
-9.411513e-06 1.008444e-06 2.659170e-07
-1.297985e-05 3.465736e-06 -1.484275e-06
-1.089927e-05 7.567497e-06 1.656657e-06
-3.625033e-06 -1.267906e-05 1.729501e-06
-8.792828e-06 -3.743477e-06 6.878782e-07
5.858342e-06 7.415278e-06 -4.589457e-08
6.788572e-06 -6.591731e-06 -2.385761e-07
6.691234e-06 6.686928e-06 -2.132192e-07
2.486213e-07 1.128174e-05 2.226926e-06
1.841742e-06 -1.210473e-05 -2.207161e-06
-6.048748e-06 -1.245730e-05 -7.826635e-07
-8.167094e-06 -1.029426e-05 1.767991e-06
1.534339e-07 -9.814448e-06 1.235497e-06
-9.547589e-06 4.375983e-07 6.912409e-07
-4.249997e-06 -8.759007e-06 -1.102520e-06
6.280344e-06 -1.238337e-05 6.743603e-07
-9.579204e-06 8.210983e-06 -2.083516e-06
-1.130497e-06 1.096645e-05 -2.160088e-06
-5.726136e-06 1.059060e-05 2.246035e-06
-9.643647e-06 1.128161e-06 1.053966e-06
-8.084728e-06 1.038871e-05 -1.748932e-06
-8.350582e-06 -4.997309e-06 -1.095342e-06
-5.118448e-06 -8.619614e-06 1.509523e-06
-1.028933e-05 6.866900e-06 -2.173227e-06
9.373366e-06 5.860789e-06 -2.169573e-06
-5.124229e-06 -1.289161e-05 7.124391e-07
-5.927230e-06 7.682672e-06 -1.042380e-06
-8.164592e-06 1.119823e-05 7.536615e-07
6.123738e-06 8.752464e-06 -2.018216e-06
-2.408751e-06 1.321936e-05 -1.481437e-06
-1.381155e-05 3.582787e-07 -8.647018e-07
7.626901e-06 8.981940e-06 -2.267923e-06
7.626901e-06 -8.981940e-06 -2.267923e-06
-2.098335e-06 -1.309969e-05 1.658632e-06
-4.187322e-06 -9.779580e-06 -1.995160e-06
1.057100e-05 9.159823e-06 -5.557066e-22
9.373366e-06 -5.860789e-06 -2.169573e-06
-7.999332e-06 -5.056366e-06 2.486094e-07
1.384347e-05 7.598122e-07 7.372791e-07
1.384347e-05 -7.598122e-07 7.372791e-07
5.585218e-06 -1.009823e-05 -2.261795e-06
-1.338720e-05 -3.630392e-06 -7.183262e-07
6.897701e-06 -1.134138e-05 1.651560e-06
6.900605e-06 1.133909e-05 1.651979e-06
6.296192e-06 1.237457e-05 6.764945e-07
7.127163e-06 6.623162e-06 1.091363e-06
7.127163e-06 -6.623162e-06 1.091363e-06
-7.365262e-06 -6.411970e-06 -1.154199e-06
-8.257389e-06 -9.505679e-06 -2.094261e-06
-1.119908e-05 3.414098e-06 2.268819e-06
-1.251954e-05 4.397349e-06 -1.656146e-06
8.029842e-07 -1.235551e-05 2.169819e-06
1.636293e-06 1.184105e-05 -2.256643e-06
-1.576911e-06 1.379473e-05 6.754205e-07
5.496158e-06 8.243331e-06 1.366714e-06
-6.990737e-06 -9.994789e-06 2.217838e-06
1.213455e-05 -4.759744e-06 1.848137e-06
1.213455e-05 4.759744e-06 1.848137e-06
1.162971e-05 5.472641e-06 1.964877e-06
2.644226e-06 9.618707e-06 1.452388e-06
-5.626940e-06 -1.077064e-05 2.227080e-06
1.018349e-05 -5.878766e-07 1.686080e-06
1.018349e-05 5.878766e-07 1.686080e-06
-5.781437e-06 -1.200880e-05 -1.599176e-06
-3.503681e-06 1.095956e-05 2.258861e-06
3.245657e-06 -8.881872e-06 1.725199e-07
-1.187612e-05 -2.441894e-06 -2.232228e-06
6.118395e-06 -8.652696e-06 -1.972429e-06
-9.239830e-06 -2.812887e-06 -9.506357e-07
1.162971e-05 -5.472641e-06 1.964877e-06
-1.840084e-06 -1.315304e-05 -1.645032e-06
-1.036819e-05 8.146174e-06 1.730778e-06
5.133455e-06 8.228395e-06 -1.032691e-06
-1.252022e-05 3.948201e-06 1.777993e-06
-2.903943e-06 1.175381e-05 2.235312e-06
-9.215262e-06 2.860166e-06 -9.295670e-07
-6.667060e-06 1.151917e-05 1.617678e-06
1.468593e-06 -1.019097e-05 1.767647e-06
-5.183429e-06 1.110692e-05 -2.204059e-06
2.145105e-06 -1.367775e-05 7.913930e-07
-5.406311e-06 7.786568e-06 -3.655483e-07
-2.971937e-07 -1.143785e-05 2.251886e-06
1.275763e-05 4.128210e-06 1.513418e-06
1.275763e-05 -4.128210e-06 1.513418e-06
1.089035e-05 6.752192e-07 2.120345e-06
1.085744e-05 -6.180637e-07 2.106189e-06
-3.501952e-06 -1.131375e-05 -2.265413e-06
-8.663997e-06 -1.086630e-05 -6.323750e-07
5.440277e-06 -1.271910e-05 -8.208880e-07
-1.076231e-05 4.719614e-06 -2.268603e-06
-1.566251e-07 1.064699e-05 -2.000450e-06
1.678007e-06 9.300566e-06 -6.662467e-08
5.635414e-06 -8.066134e-06 1.271830e-06
-7.922245e-06 5.205251e-06 -3.648238e-07
1.381018e-05 1.022559e-06 -7.831512e-07
1.381018e-05 -1.022559e-06 -7.831512e-07
9.604379e-06 -5.211153e-06 -2.126288e-06
9.604379e-06 5.211153e-06 -2.126288e-06
-2.542296e-06 9.139890e-06 4.087855e-07
2.178225e-06 9.272935e-06 5.807509e-07
9.433118e-06 5.622000e-07 -2.207423e-08
9.433760e-06 -5.528365e-07 -2.980850e-08
1.663816e-06 -9.309696e-06 -1.837872e-07
3.820806e-06 1.076888e-05 2.249978e-06
9.831016e-06 -6.666343e-06 2.263231e-06
9.831013e-06 6.666344e-06 2.263231e-06
3.781269e-06 -1.073354e-05 2.243454e-06
-2.633964e-06 -9.230565e-06 -8.093491e-07
3.392168e-06 8.831138e-06 2.177515e-07
-1.486965e-06 1.383080e-05 -5.858116e-07
-9.236458e-06 -1.034233e-05 7.312674e-07
2.986253e-07 1.315433e-05 -1.754015e-06
1.201889e-05 1.840162e-06 -2.225701e-06
-8.421843e-06 4.553212e-06 -7.401754e-07
1.201889e-05 -1.840162e-06 -2.225701e-06
-1.444087e-06 9.390329e-06 -4.782178e-07
-2.603379e-06 -1.209109e-05 2.173863e-06
-1.206818e-05 -6.816748e-06 7.487242e-07
-3.453811e-07 -1.161535e-05 -2.266722e-06
1.055707e-05 1.978447e-06 2.047361e-06
1.055707e-05 -1.978447e-06 2.047361e-06
8.034423e-06 -7.405855e-06 -2.126261e-06
8.034423e-06 7.405855e-06 -2.126261e-06
4.698228e-06 -8.219949e-06 2.863246e-07
-9.762785e-06 3.224279e-06 1.755630e-06
1.100067e-05 7.710162e-06 -1.485411e-06
1.100067e-05 -7.710162e-06 -1.485411e-06
2.692460e-06 1.091980e-05 -2.219258e-06
1.313030e-05 -1.706891e-06 1.682443e-06
1.312388e-05 1.719200e-06 1.686748e-06
8.745509e-06 1.080487e-05 6.213660e-07
8.745509e-06 -1.080487e-05 6.213660e-07
-9.729147e-06 8.690551e-06 1.840458e-06
-6.184158e-06 -7.895606e-06 1.514441e-06
1.225843e-05 5.510498e-06 1.477927e-06
5.782564e-06 -8.213645e-06 -1.531906e-06
1.225843e-05 -5.510498e-06 1.477927e-06
-6.286098e-06 1.239559e-05 6.293514e-07
-6.507879e-06 -1.148048e-05 -1.721258e-06
-7.740277e-06 7.392598e-06 2.029040e-06
-4.921067e-06 9.623245e-06 -2.078314e-06
1.280712e-05 5.366403e-06 -6.708609e-07
1.280712e-05 -5.366403e-06 -6.708609e-07
-5.181630e-06 9.068912e-06 1.877546e-06
-1.246617e-05 -4.769736e-07 2.138940e-06
-1.139184e-06 -1.060236e-05 -2.008529e-06
9.890612e-06 9.890612e-06 -5.557066e-22
5.707233e-06 8.298333e-06 -1.560350e-06
-1.322401e-05 2.004490e-06 -1.550407e-06
-7.105220e-06 1.041573e-05 -2.087083e-06
5.317864e-06 -8.771105e-06 -1.735582e-06
-6.027965e-06 1.205122e-05 -1.436540e-06
1.021749e-06 -1.080697e-05 2.098130e-06
1.104460e-05 6.372659e-06 -2.020224e-06
1.104460e-05 -6.372659e-06 -2.020224e-06
-1.075559e-05 -8.797500e-06 6.400903e-07
-8.690976e-06 -1.085524e-05 6.033888e-07
-7.296259e-06 1.180053e-05 -7.084242e-07
-9.224124e-06 -3.807609e-06 1.456641e-06
1.016714e-05 -5.999013e-07 -1.671882e-06
1.015731e-05 6.265428e-07 -1.664322e-06
2.161648e-06 9.296339e-06 -6.483270e-07
-1.372822e-05 -1.817728e-06 7.830132e-07
-7.329534e-06 9.161572e-06 -2.268800e-06
-1.383577e-05 -1.487499e-06 -5.667856e-07
2.269206e-06 -1.369472e-05 -6.853529e-07
-7.350758e-06 6.139711e-06 7.507606e-07
[...]
POINT_DATA 1386
VECTORS 10.000GHz_fone_imag double
5.445263e-04 4.114510e-04 2.557342e-02
3.217781e-04 5.531979e-04 2.499733e-02
3.610240e-02 1.128852e-03 9.299264e-03
-4.457252e-05 3.684757e-04 -8.689575e-02
7.245092e-03 -3.026054e-03 2.514368e-02
-4.629346e-02 2.833031e-02 -1.587093e-02
-4.685665e-02 -2.758289e-02 -1.554736e-02
1.215962e-03 -1.382776e-02 -8.550335e-02
-1.597441e-04 8.902221e-03 2.417006e-02
4.875697e-03 9.470109e-03 2.654566e-02
6.482259e-03 -5.703490e-03 2.485553e-02
7.051164e-03 6.409339e-03 2.420699e-02
-4.335803e-02 -1.599267e-03 8.277487e-03
2.683994e-02 -3.356091e-04 2.138887e-02
4.437967e-02 -2.727197e-02 -4.574678e-02
4.420777e-02 2.722182e-02 -4.592299e-02
5.274418e-03 1.099010e-02 -8.844046e-02
-1.652465e-03 -4.202714e-03 -8.805969e-02
-1.073706e-02 -2.456061e-04 -8.970991e-02
8.769725e-03 -1.250709e-03 2.548707e-02
-4.916016e-02 -2.397454e-02 -5.180175e-02
-4.319533e-02 -2.171949e-02 -6.112973e-02
-4.294199e-02 2.519991e-02 -5.990430e-02
2.207204e-02 1.183517e-02 2.208811e-02
1.064177e-02 1.008188e-04 2.524973e-02
2.231233e-02 -1.209606e-02 2.186583e-02
-3.832693e-02 9.465555e-04 -6.685517e-02
2.031912e-02 -2.209418e-02 1.954274e-02
1.960416e-02 2.023899e-02 1.746285e-02
-1.073285e-03 2.692817e-02 -8.178110e-02
4.173283e-03 -2.630935e-02 1.969073e-02
-3.576013e-02 2.194976e-02 -6.899896e-02
-1.098807e-02 5.203468e-03 2.458613e-02
-4.949229e-04 -8.076257e-03 -8.257452e-02
4.516305e-02 1.312026e-02 1.155786e-03
2.916774e-03 -2.573449e-03 -8.383378e-02
-2.269111e-02 -4.167924e-02 4.765811e-04
-2.372144e-02 4.047096e-02 2.438261e-03
-1.555371e-02 5.254790e-02 -4.955193e-02
1.715489e-02 -8.418006e-03 -8.790226e-02
1.774907e-02 6.035943e-03 -8.092180e-02
-4.869350e-03 -4.638858e-02 -2.133159e-03
-2.623220e-02 1.231498e-03 1.785927e-02
-4.945544e-02 1.948363e-02 -3.821245e-02
-5.166262e-02 -1.906043e-02 -3.982168e-02
-2.168421e-02 4.474726e-03 2.032936e-02
1.280168e-03 -8.499303e-04 -9.054584e-02
-2.435052e-02 -6.005688e-03 2.226394e-02
5.104122e-02 -1.271389e-02 -2.507481e-02
1.880106e-02 -4.430057e-02 4.015552e-04
4.776699e-02 -1.944815e-02 -3.225498e-02
-1.421726e-02 2.488080e-02 1.968275e-02
4.498420e-03 -3.959910e-02 -7.207983e-02
1.390748e-02 -5.277170e-03 -7.945746e-02
-7.025240e-04 -2.344338e-02 2.003663e-02
8.903273e-03 -2.354268e-02 2.132320e-02
5.899357e-03 -5.285832e-02 -4.932219e-02
-3.357884e-02 -3.919053e-02 -2.528907e-02
4.732548e-03 7.953826e-03 -8.979736e-02
3.356695e-02 5.186902e-03 1.342786e-02
4.320656e-02 -2.255237e-02 -4.856275e-02
1.849572e-02 2.923390e-02 -7.783463e-02
-1.065887e-02 2.417354e-03 2.673519e-02
-1.009979e-02 -2.171516e-03 2.464666e-02
3.207711e-02 -4.003267e-02 -1.194801e-02
5.753766e-03 -2.508907e-02 1.768649e-02
-6.846793e-03 1.752545e-02 -8.490940e-02
2.206325e-02 1.825719e-02 2.056092e-02
-3.761147e-02 4.206473e-02 -2.059441e-02
2.221048e-02 -1.800014e-02 1.892643e-02
2.799791e-02 -3.603995e-02 -6.006860e-02
2.780059e-02 3.344212e-02 -6.792793e-02
6.029039e-04 -5.107235e-02 -5.753575e-02
2.465727e-02 2.739807e-02 -6.875170e-02
2.123482e-02 1.920640e-02 1.926216e-02
4.089802e-03 -2.305485e-02 1.962753e-02
-8.987956e-03 6.128563e-04 2.517714e-02
9.404776e-03 5.720174e-05 -8.819681e-02
-2.090838e-02 5.598568e-03 2.334620e-02
1.883707e-02 -1.418150e-02 2.039863e-02
7.339624e-03 2.637362e-02 2.062406e-02
2.030637e-02 7.837954e-03 -8.064614e-02
3.656070e-03 5.542199e-04 -8.235176e-02
1.291393e-02 -2.558413e-03 -8.688682e-02
8.465812e-03 6.099023e-03 -8.194472e-02
-3.364175e-03 -5.143300e-02 -1.169832e-02
7.795260e-03 -4.326726e-02 7.280518e-03
-4.213361e-03 -6.950606e-03 2.433307e-02
1.593486e-02 2.000143e-02 1.728455e-02
-1.996421e-03 3.934382e-02 -6.403430e-02
2.375724e-02 -3.184149e-03 -7.662422e-02
-1.629817e-02 -3.340750e-02 -7.638843e-02
-3.601083e-03 6.981646e-03 2.593846e-02
-2.851127e-02 2.430948e-02 1.462535e-02
-4.454952e-03 5.622597e-02 -2.363528e-02
1.878056e-02 -3.862764e-02 6.102640e-03
3.890639e-02 -7.353106e-03 -7.029492e-02
-1.495434e-02 1.905406e-02 1.884188e-02
-3.215010e-02 -2.082358e-02 -7.463756e-02
2.536310e-02 4.112060e-02 -6.086032e-02
-3.245562e-02 2.060296e-02 7.244899e-03
4.439445e-02 3.042308e-02 -2.296993e-02
3.583249e-03 8.664256e-03 2.529525e-02
-1.873630e-02 2.207659e-02 -7.347748e-02
5.896826e-03 -8.113612e-03 2.660275e-02
2.954292e-02 3.984641e-02 -3.020715e-02
-4.210986e-03 2.242114e-02 2.363225e-02
-1.213343e-02 3.466258e-04 2.681189e-02
3.207048e-02 3.750038e-02 -1.743388e-03
2.986595e-02 -3.387564e-02 2.387907e-05
3.776209e-03 2.501892e-02 2.256974e-02
-2.362635e-02 -4.939672e-02 -2.796352e-02
-7.008549e-04 -1.114415e-03 2.605209e-02
4.459646e-02 -3.041622e-02 -2.271572e-02
6.292753e-03 7.195994e-03 -8.011286e-02
-8.712192e-03 -5.417541e-04 2.680706e-02
-9.458286e-03 8.858148e-04 2.656664e-02
2.500111e-02 -4.643970e-02 -8.470166e-03
-1.010878e-02 -2.106175e-03 2.517194e-02
-1.307411e-02 2.235711e-02 2.045445e-02
-1.140445e-02 -2.045228e-02 2.201193e-02
-3.419989e-03 -7.459645e-03 2.592698e-02
-2.824045e-02 -2.815096e-02 -7.272546e-02
-2.893401e-02 2.602116e-02 -7.249138e-02
-2.931984e-02 -2.284915e-02 -6.791339e-02
-2.501382e-02 -2.924005e-02 1.330739e-02
4.865058e-02 -1.482837e-02 -2.651576e-03
-2.099129e-02 7.480580e-03 2.063607e-02
-2.540469e-03 3.847428e-02 7.864954e-03
5.751004e-03 4.607864e-02 2.799429e-03
1.452294e-03 -9.072331e-03 2.668697e-02
-2.656642e-02 -3.780923e-02 -6.591966e-02
2.592752e-02 3.626643e-02 7.324970e-03
-2.870198e-02 1.157889e-02 1.830743e-02
-2.812394e-02 -1.129171e-02 1.835360e-02
-2.838051e-02 -1.462850e-02 1.541910e-02
-1.354351e-02 -4.211722e-02 -5.785012e-02
1.944796e-02 3.842365e-02 4.120420e-03
-5.177397e-02 3.005576e-03 -5.083853e-02
-5.012263e-02 -2.470670e-03 -5.046326e-02
-9.606250e-03 -2.316006e-02 2.118208e-02
1.345118e-02 -4.398835e-02 -8.965470e-03
-1.719523e-03 7.238425e-03 -8.990439e-02
-4.415402e-02 -6.856075e-03 4.859492e-03
2.839861e-02 -4.510519e-02 -3.694993e-02
-3.354347e-02 -8.072266e-03 -7.747253e-02
-2.590069e-02 1.336838e-02 1.622188e-02
-2.938840e-03 -2.405902e-02 2.159437e-02
2.123624e-02 -1.565428e-02 1.922853e-02
1.984846e-02 3.199731e-02 -7.526483e-02
2.673465e-02 -8.635276e-03 1.947916e-02
1.003056e-02 -4.453177e-02 4.883912e-03
-3.330865e-02 9.927864e-03 -7.081416e-02
1.124838e-02 -1.824397e-02 2.178975e-02
-9.956018e-03 4.933182e-02 -4.538794e-02
-1.549475e-02 3.733588e-02 7.315680e-03
-1.393518e-03 9.413948e-03 2.667033e-02
-7.327784e-03 7.783302e-03 -8.160978e-02
1.218321e-03 5.153870e-02 -7.194259e-03
-2.060947e-02 -6.580514e-03 2.221509e-02
-2.114058e-02 7.712383e-03 2.249224e-02
-5.519518e-02 -2.921608e-03 -2.414417e-02
-5.185348e-02 4.484197e-03 -2.313048e-02
-1.168952e-02 -4.461995e-02 1.583662e-03
-5.181061e-03 -6.436804e-03 2.402785e-02
4.442911e-03 -1.057557e-02 2.607058e-02
-4.151253e-02 1.796949e-02 -3.754796e-03
-3.637643e-04 5.777721e-02 -3.462824e-02
9.500291e-04 -9.858849e-04 -9.025599e-02
-2.290710e-02 3.645016e-02 -6.656636e-02
-5.898706e-03 7.751056e-03 -8.210749e-02
9.499277e-03 2.161570e-04 2.662946e-02
8.509469e-03 -8.070737e-04 2.509732e-02
4.716827e-02 -2.376552e-02 -2.615758e-02
4.671736e-02 2.369807e-02 -2.638805e-02
-1.489685e-03 -1.090389e-02 -8.170899e-02
-5.165908e-03 -2.178885e-02 -8.079098e-02
5.297894e-03 8.363358e-04 -8.963469e-02
3.597211e-03 -7.231919e-05 -8.793106e-02
1.109354e-03 -9.946693e-03 -7.989527e-02
-1.635300e-02 -4.913182e-02 -9.297766e-03
-3.872510e-02 2.651362e-02 1.696089e-03
-3.973317e-02 -2.643424e-02 2.131950e-03
-1.590264e-02 4.508296e-02 -8.198396e-03
-9.850589e-03 -2.939958e-02 -7.990923e-02
-5.304678e-03 -7.420721e-03 -8.950852e-02
-1.740119e-03 6.963216e-03 2.502974e-02
5.177871e-03 7.173467e-03 2.569329e-02
3.733774e-05 2.764849e-02 2.093490e-02
4.429698e-02 6.402163e-03 6.559914e-03
-1.833360e-02 1.082131e-02 -7.976918e-02
4.365747e-02 -6.552290e-03 6.492215e-03
-1.228590e-03 1.823506e-02 -8.825815e-02
7.320102e-03 3.712792e-02 8.461444e-03
7.954130e-03 4.779464e-03 2.403424e-02
-4.013798e-03 -4.975582e-02 -6.682914e-03
-5.679660e-02 -1.122179e-02 -3.240092e-02
-4.947061e-02 9.538641e-03 -2.631653e-02
4.166950e-02 -3.813877e-02 -2.494370e-02
3.901804e-02 3.923791e-02 -2.358190e-02
-4.238960e-03 7.595652e-03 -8.912757e-02
4.755799e-02 -1.481043e-02 -4.577154e-02
1.772910e-02 1.245951e-02 2.312150e-02
1.770562e-02 -1.260668e-02 2.318892e-02
1.353099e-02 4.954977e-02 -1.579740e-02
-2.485360e-02 4.069497e-03 1.951292e-02
-2.237647e-02 -3.329569e-03 2.081694e-02
-4.931138e-03 -5.878170e-03 2.738150e-02
-4.927109e-03 6.558479e-03 2.414608e-02
2.293408e-02 -1.982835e-02 1.894391e-02
3.331365e-02 3.736216e-02 -5.505055e-02
-1.946392e-02 -8.124758e-03 2.155399e-02
2.756875e-02 -3.928073e-02 -5.564470e-02
-2.033648e-02 7.693328e-03 2.232498e-02
3.942199e-03 -7.731558e-03 2.697727e-02
-1.402307e-02 -2.336609e-02 2.049302e-02
4.062850e-02 -3.767360e-02 -3.187153e-02
-2.594120e-02 5.078895e-02 -3.029724e-02
7.407101e-03 3.479375e-03 2.691182e-02
8.047921e-03 -3.310296e-03 2.574913e-02
2.826523e-02 -4.449424e-02 -4.447059e-02
3.812056e-02 1.153995e-03 1.031519e-02
-6.124177e-03 -5.677023e-02 -3.523231e-02
-2.811482e-04 2.841434e-04 2.483915e-02
2.746696e-02 4.303988e-02 -5.441864e-02
-2.314023e-02 3.982493e-03 2.203543e-02
-2.026311e-02 2.851159e-02 1.116970e-02
2.811456e-02 -4.648223e-02 -4.705691e-02
-9.178764e-03 1.761033e-02 2.420761e-02
-5.107856e-03 5.720319e-02 -2.691408e-02
2.853484e-02 1.875712e-02 1.546950e-02
2.838037e-02 -1.894129e-02 1.527373e-02
6.877562e-03 5.446589e-03 2.710684e-02
4.632317e-03 5.756179e-03 2.684261e-02
-5.873386e-03 7.112434e-03 2.518748e-02
4.448931e-02 1.822418e-02 -5.801676e-02
5.045884e-02 -6.065475e-03 -5.069557e-02
5.171542e-02 4.475281e-03 -4.844855e-02
3.959128e-03 2.219272e-02 -7.874434e-02
1.078680e-02 3.214799e-04 2.522214e-02
-3.108018e-02 3.875523e-02 -3.298147e-03
-6.342810e-03 4.740385e-04 2.613407e-02
2.398736e-03 -8.408223e-03 2.656519e-02
1.681656e-02 -1.722148e-02 -7.493452e-02
-1.193539e-02 5.553002e-02 -3.047921e-02
2.200724e-02 3.054655e-03 2.236578e-02
1.755943e-02 5.527387e-03 2.114648e-02
2.175079e-02 -2.554094e-03 2.287375e-02
4.934921e-03 7.238785e-03 2.645583e-02
5.288129e-02 6.722344e-03 -4.423216e-02
5.220842e-03 -5.309385e-03 2.431121e-02
-3.199904e-02 -2.920139e-02 6.786509e-03
-6.992524e-03 -5.398263e-03 2.426281e-02
3.001239e-02 1.214943e-02 1.476031e-02
3.186542e-02 4.014025e-02 -4.763202e-03
-2.447298e-02 1.894541e-02 -7.913852e-02
-3.992462e-02 -2.807949e-02 -3.483551e-02
1.779512e-02 -4.660612e-03 2.360393e-02
-4.006633e-02 2.553430e-02 -3.819539e-02
-3.467361e-04 5.870678e-03 2.490166e-02
1.539726e-02 -9.139334e-04 -8.193209e-02
2.924520e-02 4.569563e-02 -2.824234e-02
1.424937e-03 6.007661e-03 2.457275e-02
-1.288821e-03 -3.514249e-03 -8.978749e-02
-3.722872e-02 -1.791767e-02 9.757827e-03
-3.793251e-03 5.859326e-03 2.507754e-02
1.089137e-02 1.859830e-02 2.056997e-02
1.880620e-02 1.339120e-02 2.134850e-02
-2.369449e-02 -4.830562e-02 -4.915816e-02
5.797369e-05 2.287172e-02 -8.508220e-02
-7.638947e-04 2.288757e-02 2.213944e-02
2.664430e-02 -9.649761e-03 1.685126e-02
2.458189e-02 -4.620453e-02 -7.874571e-03
1.918236e-02 2.180960e-04 2.464971e-02
1.878848e-02 -5.226290e-04 2.488070e-02
-6.415904e-03 4.625919e-03 2.472553e-02
-2.806036e-03 -8.370176e-03 2.654200e-02
1.968270e-03 2.966291e-02 1.867386e-02
3.681251e-02 1.875388e-02 -6.993796e-02
-2.282397e-02 -5.194084e-02 -2.567376e-02
3.514505e-02 -1.682072e-02 -6.705368e-02
-6.847135e-03 -6.285913e-03 2.580553e-02
-7.004103e-03 4.566306e-03 2.448964e-02
-3.871304e-03 -6.743486e-03 2.414337e-02
4.610345e-02 -8.035505e-03 1.523751e-03
-4.465697e-02 1.759856e-03 7.291016e-03
-3.981768e-02 -1.489962e-03 5.379875e-03
-5.572473e-02 1.123790e-02 -3.834550e-02
3.181751e-03 -5.112721e-02 -7.037616e-03
4.487021e-02 3.528023e-02 -3.375302e-02
-2.080038e-02 5.330831e-02 -2.478355e-02
1.138057e-02 -4.481047e-02 -3.423450e-03
-1.750154e-02 -4.173033e-02 2.822372e-03
6.537631e-05 1.519588e-02 -8.785864e-02
2.906814e-02 -3.948987e-02 -4.032429e-02
-2.095106e-02 -3.300016e-03 2.091526e-02
-1.180954e-03 -1.028276e-02 2.417468e-02
1.421656e-02 3.622202e-02 1.235819e-02
-3.754253e-02 -3.809916e-02 -2.771841e-02
8.231949e-03 -1.221712e-02 -8.021550e-02
1.813394e-02 2.724264e-02 -7.162360e-02
-5.096531e-02 9.562630e-03 -8.017343e-03
-4.112522e-03 -1.279694e-02 -8.065272e-02
2.554364e-04 4.754809e-02 -2.718513e-03
-8.486330e-03 2.188208e-02 2.209187e-02
-9.880431e-03 -2.121617e-02 2.155526e-02
7.032662e-03 4.384474e-02 1.981303e-03
-2.328438e-02 -2.331313e-03 1.843477e-02
-3.924518e-03 -3.781840e-03 2.502789e-02
-5.407346e-03 5.462666e-03 2.627732e-02
7.419239e-03 2.144720e-02 1.974736e-02
-1.696792e-02 -1.478133e-02 2.339125e-02
-4.860062e-02 -1.089668e-02 -4.275470e-03
2.876219e-02 -4.071443e-02 -5.734725e-02
2.855806e-02 3.460801e-02 2.999752e-03
-2.926057e-02 -1.719382e-02 1.579526e-02
1.253163e-02 -5.468208e-02 -3.110011e-02
2.856308e-03 4.173493e-03 -9.070891e-02
-1.815209e-02 3.210036e-02 -7.642599e-02
-8.724011e-03 1.145991e-03 2.582161e-02
-3.100280e-02 -3.646285e-02 -8.315913e-03
5.258028e-02 1.201098e-02 -1.189663e-02
-1.612693e-02 1.671799e-02 2.297039e-02
-1.246453e-02 1.560674e-04 -8.794127e-02
-1.714073e-02 -1.657948e-02 2.238326e-02
6.045685e-03 5.481076e-02 -1.701747e-02
5.705038e-03 2.604770e-02 2.124254e-02
-3.874382e-02 6.799010e-03 -7.148898e-02
7.517137e-03 5.298950e-02 -4.606613e-02
2.604118e-03 -8.147345e-03 2.658538e-02
4.582480e-02 -2.662536e-03 -3.417736e-03
2.393370e-03 3.104667e-02 1.874642e-02
-1.187912e-02 5.151750e-02 -2.995733e-02
-3.110379e-03 -6.937877e-03 2.489271e-02
1.650913e-03 5.552134e-04 2.489948e-02
-1.381937e-02 2.140085e-03 -7.896954e-02
2.866587e-02 1.485515e-02 -7.689932e-02
-7.659536e-03 -4.484408e-03 2.558294e-02
8.052912e-03 -4.351774e-03 2.505319e-02
-3.736495e-02 3.839923e-02 -3.050458e-02
-1.304522e-03 6.144300e-03 2.501031e-02
4.783753e-02 1.874288e-02 -8.155723e-03
1.924959e-03 -2.148713e-02 2.191443e-02
1.960764e-02 4.588180e-02 -9.508739e-03
-1.387136e-02 1.402209e-02 2.363201e-02
-3.042441e-02 -4.093834e-02 -6.623968e-03
5.615886e-02 1.385359e-02 -3.394631e-02
-3.232192e-02 3.704934e-02 -8.702661e-03
-4.191586e-02 -7.420501e-03 5.721685e-03
-4.298490e-02 6.538104e-03 6.640591e-03
2.562134e-02 -1.000100e-03 2.239103e-02
-1.340919e-02 -5.557805e-02 -2.367493e-02
4.217016e-02 -3.140007e-02 -4.910072e-02
4.089192e-02 3.158727e-02 -4.971782e-02
3.772702e-02 -3.091709e-02 -9.786624e-04
8.876452e-03 4.668926e-02 -5.330908e-02
1.453917e-02 -1.423910e-02 2.235648e-02
4.997784e-02 -1.461003e-02 -3.344808e-02
-3.544319e-02 1.647556e-02 9.854577e-03
-3.532530e-02 -1.900918e-02 8.723321e-03
-2.457356e-02 -4.005067e-02 -6.274897e-02
6.824837e-04 -1.051803e-02 2.455345e-02
3.843814e-03 1.754717e-02 -8.870007e-02
4.109838e-02 3.656479e-05 -7.081476e-02
1.488327e-02 1.433378e-02 2.169857e-02
2.420454e-02 1.125394e-02 2.071776e-02
2.521841e-02 -1.032252e-02 2.060920e-02
-9.607012e-03 1.102602e-02 -8.693448e-02
-4.980041e-02 1.300312e-02 -1.397942e-02
-4.418789e-02 -2.398992e-02 -1.423032e-02
-4.735399e-02 2.524416e-02 -1.662645e-02
1.856033e-03 -8.172288e-03 2.696950e-02
-2.039867e-02 1.236905e-02 1.940493e-02
2.221453e-02 -3.029373e-03 1.874587e-02
-4.933525e-03 -2.410037e-02 2.235803e-02
2.229875e-02 7.907846e-03 2.097319e-02
-4.304043e-02 2.108070e-02 -6.414726e-02
-2.681363e-02 7.293512e-03 -7.357457e-02
1.255522e-02 -5.003935e-02 -5.581887e-02
-4.897318e-02 -2.164202e-03 -1.116677e-02
-1.291496e-02 -5.348220e-02 -3.997915e-02
1.927888e-02 -4.176418e-02 -6.241738e-02
5.089627e-04 5.241446e-02 -5.070956e-02
-2.563710e-03 1.111834e-02 -8.431256e-02
-4.083880e-02 -3.317040e-02 -2.720886e-02
-4.280373e-02 3.567800e-02 -2.749165e-02
1.810143e-03 6.735253e-03 2.411447e-02
-2.672119e-02 -4.842366e-02 -3.747471e-02
-9.781708e-03 3.011193e-02 1.393328e-02
1.873476e-02 4.483504e-02 -2.918658e-03
-4.774635e-02 -1.729260e-02 -5.267621e-03
-2.866150e-03 -8.976827e-03 -8.638595e-02
-4.050633e-02 2.318426e-02 3.361626e-03
6.970658e-03 -2.216859e-04 2.673645e-02
5.176635e-03 3.950265e-03 2.556116e-02
1.898072e-02 -7.545312e-03 2.070386e-02
1.987991e-02 6.520969e-03 2.084746e-02
-8.420901e-04 1.769394e-02 2.304590e-02
8.311928e-05 7.416778e-03 2.720541e-02
3.373876e-02 -3.926882e-03 1.695577e-02
-4.412941e-03 4.384068e-03 2.681923e-02
3.760573e-02 2.913005e-02 -8.334169e-03
2.647773e-02 -3.421115e-02 -6.487852e-02
4.360196e-02 1.722321e-02 9.922619e-04
-8.010882e-03 4.263179e-03 2.703607e-02
-8.124224e-03 -4.266688e-03 2.711572e-02
2.978104e-02 4.977836e-03 1.612550e-02
2.922051e-02 -5.254816e-03 1.629018e-02
2.483326e-02 2.664405e-03 2.177950e-02
-1.608344e-02 1.343321e-02 -8.687529e-02
-1.515096e-02 -1.314598e-02 -8.735727e-02
-2.260391e-02 -2.682443e-02 -7.216374e-02
2.790715e-02 4.111454e-02 -1.193796e-02
4.148106e-02 3.151946e-02 -9.463103e-03
4.098085e-02 -3.174185e-02 -8.949207e-03
-4.262036e-02 3.545601e-03 9.285137e-03
1.349879e-02 -3.570660e-02 1.318405e-02
-2.284977e-02 3.518558e-02 6.731439e-03
-2.632666e-02 -3.548518e-02 5.825117e-03
1.935891e-02 -2.740312e-02 1.553387e-02
8.237495e-03 -3.476104e-03 2.572512e-02
3.227525e-03 3.225221e-02 -7.972218e-02
-6.041829e-03 5.435558e-03 2.698594e-02
1.356470e-02 4.730361e-02 -1.032394e-02
-6.052175e-03 -5.439391e-03 2.630152e-02
-3.255120e-02 -1.229861e-02 -7.706686e-02
-2.853884e-02 1.270702e-02 -7.726648e-02
2.059301e-02 -6.068789e-03 -8.514583e-02
1.472835e-02 -3.494379e-02 1.243703e-02
-3.508300e-03 -7.571277e-03 2.414978e-02
4.280138e-03 -5.718647e-03 2.572852e-02
-2.533396e-03 9.446833e-04 -9.044403e-02
9.320597e-04 3.771058e-04 2.518061e-02
-2.398466e-03 -3.335956e-03 -8.980585e-02
-1.836710e-02 5.313841e-02 -1.582042e-02
-8.556192e-04 5.309853e-02 -1.015929e-02
-2.718314e-02 4.047633e-02 -6.035176e-03
1.691342e-02 -4.598264e-02 -2.125997e-02
3.666372e-02 -4.354828e-02 -2.004471e-02
1.949631e-03 -5.639115e-02 -2.834157e-02
-3.762799e-02 2.795671e-02 -2.558946e-03
1.496424e-02 -4.266762e-02 -1.704895e-03
2.497756e-03 -4.622414e-02 -9.676471e-03
-1.008569e-03 1.735375e-03 2.658015e-02
-1.075500e-02 -4.318026e-02 2.129206e-04
1.559511e-02 4.921307e-02 -6.227534e-03
4.990892e-02 7.386054e-03 -1.142598e-03
4.257992e-02 -5.294080e-03 3.139506e-04
-2.881813e-02 -3.615976e-02 1.622774e-03
2.219560e-02 -3.672465e-02 8.900344e-03
2.218627e-02 3.521731e-02 8.653466e-03
-3.629095e-02 -2.620404e-02 4.335942e-03
-6.155909e-03 -3.923321e-02 9.391998e-03
-8.022633e-03 4.181307e-02 7.820057e-03
1.182897e-04 -1.708080e-03 2.581444e-02
9.360489e-04 4.288919e-02 3.714721e-03
-3.229915e-02 -2.282146e-02 8.842452e-03
-2.985358e-02 2.184113e-02 8.027471e-03
-3.549830e-02 1.923448e-02 1.039476e-02
2.576248e-02 -2.799463e-02 7.843306e-03
2.618349e-02 3.064971e-02 1.063398e-02
-2.506332e-02 -7.024824e-03 -8.582235e-02
4.688699e-02 -3.169656e-02 -3.853063e-02
4.279164e-03 1.209348e-02 -8.283196e-02
7.417789e-03 2.095207e-02 -7.794814e-02
-9.232575e-04 1.338762e-04 2.592735e-02
6.915900e-03 -1.331005e-02 -8.232207e-02
3.256353e-02 -1.557203e-02 1.036662e-02
3.270609e-02 1.484096e-02 1.059797e-02
-3.169300e-02 -1.763610e-02 -7.570358e-02
-1.692954e-03 7.737006e-03 -8.773703e-02
-6.502508e-03 -1.042359e-02 -8.942348e-02
3.527018e-02 1.744144e-02 1.044796e-02
8.112059e-03 -3.666232e-02 1.377716e-02
-4.426330e-02 2.506506e-02 -3.152155e-02
-4.954214e-02 -2.614827e-02 -3.215984e-02
9.429406e-04 -1.398741e-04 2.521222e-02
3.208039e-02 -1.366129e-02 1.071321e-02
4.428586e-03 3.178875e-02 1.245110e-02
-1.893017e-02 -3.131750e-02 1.419190e-02
-1.629244e-02 2.845603e-02 1.304331e-02
2.885538e-02 3.987900e-03 1.633727e-02
3.152873e-02 -5.699910e-03 1.463229e-02
1.830124e-02 -3.166695e-02 1.435378e-02
-3.398498e-02 3.248951e-02 -5.342135e-02
-4.300269e-03 4.840338e-02 -4.595551e-02
-5.174988e-03 3.159189e-02 1.278341e-02
-1.626991e-05 -3.884822e-04 2.438406e-02
2.033497e-02 -1.879203e-02 -7.416827e-02
-1.415366e-02 -3.254944e-02 1.318649e-02
-3.163136e-02 2.776852e-03 1.492524e-02
-3.019692e-02 1.073689e-02 1.562254e-02
-2.058681e-02 3.550508e-03 2.000363e-02