# vtk DataFile Version 2.0
Electric current density generated by TTH
ASCII
DATASET UNSTRUCTURED_GRID
POINTS 2039 double
-4.442433e-06 -1.690077e-05 -4.990897e-22
1.532949e-05 -8.217268e-07 2.035886e-06
-7.098430e-06 1.162637e-05 -9.259861e-07
-1.364328e-05 3.319484e-06 1.484474e-06
6.878965e-06 -1.332195e-05 -1.988720e-06
-7.641728e-06 -1.554249e-05 -7.804317e-07
-1.648714e-05 1.717301e-07 1.745822e-06
1.263582e-05 -1.016772e-05 -1.881858e-06
-1.090268e-05 8.355671e-06 -1.122103e-06
-1.433041e-06 -1.720270e-05 9.061903e-07
7.371403e-06 1.128071e-05 -5.517020e-07
-3.470343e-06 -1.712682e-05 -4.990897e-22
5.348745e-06 -1.365268e-05 -1.884906e-06
-1.710158e-05 -2.584552e-06 -8.353389e-07
-1.614209e-05 -6.284686e-06 7.734891e-07
6.604144e-06 1.299879e-05 1.848732e-06
-8.568484e-06 -1.127311e-05 -1.587649e-06
-7.024068e-06 1.468036e-05 -1.857829e-06
-1.025090e-05 9.851573e-06 -1.632267e-06
-6.446346e-06 1.420846e-05 2.030978e-06
-7.588783e-06 -1.193934e-05 1.577207e-06
1.187005e-05 1.261926e-05 7.678749e-07
-2.486934e-06 -1.729701e-05 -4.990897e-22
1.119620e-05 -7.388821e-06 2.470509e-07
-7.247578e-06 -1.128797e-05 -2.458444e-07
-1.335546e-05 -5.900129e-06 -1.858073e-06
-1.607699e-05 -4.315861e-06 1.640257e-06
-7.679009e-06 1.405007e-05 -1.955047e-06
1.641769e-05 -2.165570e-06 -1.700495e-06
1.641769e-05 2.165570e-06 -1.700495e-06
1.468345e-05 -6.134601e-06 -1.981254e-06
2.664287e-06 -1.612013e-05 -1.827358e-06
1.207501e-05 1.106704e-05 -1.806762e-06
-1.495413e-06 -1.741077e-05 -4.990897e-22
1.916470e-06 -1.725570e-05 -6.693452e-07
1.258355e-05 4.621343e-06 -1.538556e-07
1.018922e-05 8.938531e-06 7.789075e-07
-1.000961e-05 1.192094e-05 2.033611e-06
1.266577e-05 -4.621322e-06 5.757192e-07
-4.517522e-06 -1.308900e-05 -1.273737e-06
-1.367350e-05 -1.059274e-05 8.336192e-07
5.810679e-06 1.632683e-05 7.545802e-07
-1.141237e-05 -8.168396e-06 1.477979e-06
-1.305395e-05 -3.555404e-06 -7.160817e-07
-4.990134e-07 -1.746775e-05 -4.990897e-22
-1.274429e-06 1.374545e-05 -1.219097e-06
6.839712e-07 1.455117e-05 1.842649e-06
-3.037742e-06 -1.706332e-05 -7.505549e-07
-1.426849e-05 1.664110e-06 -1.732922e-06
-5.684029e-06 1.227874e-05 7.189413e-07
-3.745901e-06 1.291886e-05 4.551148e-07
-1.534944e-05 8.024094e-06 -7.786017e-07
6.822862e-06 -1.200531e-05 1.224774e-06
-1.432741e-05 -9.676654e-06 -8.500905e-07
1.450756e-05 7.282934e-06 1.875861e-06
4.990134e-07 -1.746775e-05 -4.990897e-22
1.450756e-05 -7.282934e-06 1.875861e-06
-1.409158e-05 -8.610464e-06 -1.729919e-06
1.032784e-05 -1.021072e-05 1.821206e-06
5.846499e-06 1.635273e-05 -6.558543e-07
-6.222895e-06 1.197821e-05 -6.265777e-07
-1.314133e-05 -8.249249e-06 2.036166e-06
4.270345e-06 -1.282203e-05 -6.747364e-07
-8.584782e-06 -1.290140e-05 2.036822e-06
-5.079766e-06 -1.541429e-05 -1.877241e-06
1.081251e-05 1.020640e-05 -1.956811e-06
1.495413e-06 -1.741077e-05 -4.990897e-22
-8.082699e-06 -1.092266e-05 8.560414e-07
-6.505374e-06 -1.300796e-05 -1.831483e-06
-2.197614e-06 -1.495424e-05 2.012033e-06
1.280622e-05 8.393407e-06 -2.033822e-06
-3.017560e-06 -1.705953e-05 7.686223e-07
4.160010e-06 1.283892e-05 -6.198201e-07
5.861648e-06 -1.633922e-05 -6.778376e-07
-6.389350e-06 -1.608179e-05 8.155320e-07
5.773529e-06 -1.246993e-05 -1.130182e-06
-8.621293e-06 1.096804e-05 1.393843e-06
2.486934e-06 -1.729701e-05 -4.990897e-22
-1.342094e-05 -9.912009e-06 1.611401e-06
-2.226360e-06 -1.353908e-05 1.098436e-06
1.124118e-05 8.686603e-06 -1.623973e-06
1.105057e-05 1.232648e-05 -1.703937e-06
1.410918e-05 -8.043312e-06 1.872528e-06
1.410668e-05 8.045869e-06 1.872919e-06
-1.430318e-05 4.017104e-06 1.953223e-06
1.377148e-05 -1.050792e-05 7.730846e-07
-1.634234e-05 -2.527382e-06 1.715642e-06
-6.672224e-06 1.296816e-05 -1.850454e-06
3.470343e-06 -1.712682e-05 -4.990897e-22
8.435793e-08 -1.671833e-05 -1.584393e-06
-1.220582e-05 -5.657287e-06 4.644637e-07
8.572453e-06 -1.354326e-05 -1.950062e-06
1.522395e-05 -5.649817e-06 1.873517e-06
1.522395e-05 5.649817e-06 1.873517e-06
-9.644092e-07 -1.731245e-05 -7.308648e-07
-1.146683e-05 -6.975769e-06 3.018336e-07
5.323629e-06 -1.294219e-05 1.438868e-06
3.664928e-06 1.685076e-05 -9.407773e-07
1.533684e-05 -8.092419e-06 7.267365e-07
4.442433e-06 -1.690077e-05 -4.990897e-22
1.533684e-05 8.092419e-06 7.267365e-07
-5.134948e-06 1.507636e-05 1.977982e-06
1.726980e-05 8.698606e-07 8.443871e-07
1.726980e-05 8.698606e-07 -8.443871e-07
1.726980e-05 -8.698606e-07 8.443871e-07
1.726980e-05 -8.698606e-07 -8.443871e-07
2.812347e-06 1.312544e-05 -3.109103e-07
-6.700301e-06 1.598542e-05 7.474175e-07
1.208439e-05 1.235877e-05 -8.589089e-07
1.083958e-05 -1.190142e-05 1.927621e-06
5.400033e-06 -1.661959e-05 -4.990897e-22
1.649313e-05 -5.358941e-06 7.240465e-07
1.649313e-05 5.358941e-06 7.240465e-07
-5.658242e-06 -1.233046e-05 8.084078e-07
1.345850e-05 -1.849114e-06 8.493072e-07
1.436767e-06 -1.348283e-05 7.906997e-07
4.898330e-06 1.661535e-05 7.735392e-07
-6.149315e-07 1.522040e-05 -2.027414e-06
8.928766e-06 -1.026064e-05 8.847601e-07
6.082657e-06 1.385302e-05 -2.014340e-06
8.476575e-06 1.321455e-05 -2.020724e-06
6.340019e-06 -1.628421e-05 -4.990897e-22
1.419002e-05 8.226637e-07 -1.629604e-06
1.419002e-05 -8.226637e-07 -1.629604e-06
-2.134995e-06 -1.330619e-05 -5.544559e-07
-1.263424e-05 1.179651e-05 -8.582817e-07
3.605591e-06 -1.691656e-05 8.336578e-07
-1.431748e-05 9.790040e-06 7.169077e-07
1.259158e-05 6.263413e-06 1.504919e-06
-1.552777e-05 5.078700e-06 -1.828143e-06
-6.248294e-06 -1.463593e-05 1.981144e-06
-1.175337e-05 -7.381834e-06 1.313376e-06
7.259325e-06 -1.589570e-05 -4.990897e-22
-3.371152e-06 1.486569e-05 -2.028428e-06
1.113888e-05 -1.326110e-05 7.827689e-07
4.612827e-06 1.427958e-05 -1.991579e-06
-1.434857e-06 1.723219e-05 -8.440883e-07
5.819626e-06 -1.553336e-05 1.681781e-06
-1.581066e-05 -7.084391e-06 -7.663308e-07
-3.381000e-06 1.489551e-05 2.031176e-06
1.012817e-05 1.404724e-05 -7.846143e-07
-1.122703e-05 9.692470e-06 -1.945767e-06
-1.075547e-05 -8.289964e-06 -8.374380e-07
8.154953e-06 -1.545535e-05 -4.990897e-22
-1.485683e-05 -6.976032e-06 -1.788777e-06
9.905423e-07 1.732260e-05 -6.999045e-07
3.496799e-06 1.313793e-05 8.716079e-07
-4.988705e-06 -1.372769e-05 1.860479e-06
1.304178e-05 -3.732081e-06 -8.050368e-07
-4.690802e-06 -1.666671e-05 -7.930070e-07
1.186421e-05 -8.054744e-06 1.717141e-06
1.428747e-05 9.829675e-06 7.230682e-07
1.428747e-05 -9.829675e-06 7.230682e-07
-1.096810e-05 -1.342263e-05 7.445963e-07
9.023981e-06 -1.496459e-05 -4.990897e-22
1.609088e-06 -1.620234e-05 -1.854288e-06
-6.447276e-06 1.606784e-05 -7.957205e-07
1.142462e-05 9.493163e-06 -1.952459e-06
4.483431e-06 -1.580617e-05 -1.779613e-06
-1.391091e-05 6.827179e-06 2.036841e-06
-1.513063e-05 -5.992387e-06 -1.857912e-06
-1.580822e-05 7.911481e-07 -1.999859e-06
2.168150e-07 1.733784e-05 -7.311300e-07
-9.562275e-06 -1.217315e-05 -2.037244e-06
9.186259e-06 1.467711e-05 7.914809e-07
9.863574e-06 -1.442502e-05 -4.990897e-22
-3.385691e-06 -1.623766e-05 -1.682372e-06
4.475268e-06 1.396197e-05 1.884343e-06
1.465910e-05 -4.312489e-06 2.031638e-06
1.465410e-05 4.321619e-06 2.031465e-06
1.476486e-05 1.929994e-06 -1.962975e-06
1.476484e-05 -1.929851e-06 -1.962965e-06
-1.197734e-05 6.639470e-06 1.056038e-06
-8.303103e-06 -1.518591e-05 8.085103e-07
-1.404231e-05 -3.530780e-06 -1.798557e-06
-1.642122e-05 -8.209892e-07 1.772867e-06
1.067099e-05 -1.383839e-05 -4.990897e-22
-1.565681e-05 -5.554584e-06 1.664279e-06
9.708960e-06 1.013444e-05 -1.478174e-06
-1.493333e-05 -7.020657e-06 1.737748e-06
1.262795e-05 -4.536643e-06 -2.749500e-07
-1.189086e-05 1.135310e-05 1.773644e-06
-3.557412e-06 -1.291866e-05 -7.948400e-09
-3.541548e-07 -1.430411e-05 -1.696532e-06
-5.547366e-06 -1.430370e-05 -2.035452e-06
-1.639631e-05 3.850698e-06 -1.475639e-06
-7.874982e-06 1.543355e-05 -7.631603e-07
1.144361e-05 -1.320663e-05 -4.990897e-22
1.495670e-05 -8.706541e-06 -8.116214e-07
1.397948e-05 6.534252e-06 2.037680e-06
1.397785e-05 -6.534592e-06 2.037675e-06
1.578819e-05 -7.131286e-06 -7.694085e-07
3.391038e-06 1.533521e-05 2.019924e-06
1.204942e-05 9.847488e-06 2.033890e-06
1.203983e-05 -9.843252e-06 2.034483e-06
1.305930e-05 -4.028005e-06 1.008184e-06
1.132149e-05 -1.089597e-05 -2.018936e-06
7.978898e-06 -1.241907e-05 -1.922332e-06
1.217890e-05 -1.253179e-05 -4.990897e-22
1.578830e-05 7.130346e-06 -7.701026e-07
1.495973e-05 8.702908e-06 -8.097989e-07
-1.666348e-05 1.892047e-06 1.540879e-06
7.195707e-07 -1.729964e-05 7.921408e-07
-1.219025e-05 -9.405568e-06 2.037292e-06
1.162033e-05 -7.704144e-06 -1.384667e-06
-1.176703e-05 -1.275376e-05 -6.945532e-07
-1.649024e-05 2.929673e-06 1.559718e-06
-3.148099e-06 1.703360e-05 -7.742133e-07
1.083142e-05 1.176383e-05 1.961028e-06
1.287446e-05 -1.181607e-05 -4.990897e-22
-1.620224e-05 2.460132e-06 -1.802285e-06
-1.299209e-05 4.246090e-06 1.011630e-06
1.562992e-05 -6.257599e-06 1.481693e-06
1.562992e-05 6.257599e-06 1.481693e-06
1.555226e-05 -4.889635e-06 1.844692e-06
1.555226e-05 4.889635e-06 1.844692e-06
1.564969e-05 4.586625e-06 -1.842256e-06
1.565287e-05 -4.568717e-06 -1.843190e-06
-1.213871e-05 8.806145e-06 1.989475e-06
8.664929e-06 1.075276e-05 1.225921e-06
1.352803e-05 -1.106181e-05 -4.990897e-22
1.373787e-05 5.199938e-06 1.895384e-06
1.374750e-05 -5.130071e-06 1.889167e-06
-5.887411e-06 -1.573922e-05 -1.511009e-06
-1.053088e-06 -1.364662e-05 1.043892e-06
-1.230242e-05 1.220499e-05 7.558790e-07
1.307779e-05 -6.644566e-06 1.887332e-06
-1.278387e-05 -4.664353e-06 -8.983520e-07
-1.035125e-06 -1.582373e-05 -1.993858e-06
-1.515619e-05 -2.353030e-06 -2.035261e-06
-1.655059e-05 5.118298e-06 -7.696218e-07
1.413747e-05 -1.027147e-05 -4.990897e-22
-8.482639e-07 -1.583363e-05 1.994114e-06
1.322227e-05 1.115514e-05 -8.274830e-07
-1.530942e-05 -8.164929e-06 7.006402e-07
-4.247556e-06 1.510415e-05 -2.021941e-06
4.218156e-06 1.275882e-05 3.943591e-07
1.100891e-05 1.073707e-05 2.036827e-06
-2.190044e-06 -1.459634e-05 -1.921775e-06
-1.336865e-05 -3.413978e-06 1.210037e-06
1.003752e-05 -1.047035e-05 -1.811696e-06
-9.742421e-06 -1.100920e-05 1.900024e-06
1.470080e-05 -9.447630e-06 -4.990897e-22
[...]
POINT_DATA 2039
VECTORS 10.000GHz_fone_imag double
-3.008759e+10 8.970721e+09 -2.524183e+09
-3.375959e+08 -5.098630e+10 -6.625745e+08
5.054872e+10 2.939737e+10 5.519720e+08
2.150668e+10 6.863440e+10 -4.321020e+09
-5.250205e+10 -2.866992e+10 -6.619864e+08
-2.940841e+10 1.426849e+10 1.910649e+08
1.376185e+09 3.335930e+10 1.479754e+07
-2.660231e+10 -2.846673e+10 1.204126e+09
3.581396e+10 4.629157e+10 -8.249758e+08
-3.112372e+10 2.473084e+09 5.371390e+07
5.251703e+10 -3.707445e+10 -4.843205e+08
-3.453745e+10 6.736785e+09 -5.639596e+08
-5.432738e+10 -2.547622e+10 -1.967850e+09
-5.442270e+09 4.072462e+10 -1.205317e+09
-1.034327e+10 2.698636e+10 3.189129e+07
4.965242e+10 -2.983998e+10 -3.127904e+09
-4.425923e+10 3.336320e+10 -7.261695e+08
3.258101e+10 1.760347e+10 -7.166031e+08
4.134503e+10 4.571556e+10 -9.966150e+08
3.628110e+10 1.630610e+10 1.140928e+09
-5.566439e+10 3.232741e+10 1.630295e+08
2.413073e+10 -2.041086e+10 -8.992199e+08
-3.392950e+10 4.552887e+09 -5.186943e+08
-4.602296e+10 -6.265859e+10 1.708063e+09
-8.058392e+10 4.845955e+10 -9.673101e+08
-2.649220e+10 5.796471e+10 -7.605205e+08
-7.362845e+09 3.349537e+10 5.741267e+06
2.954801e+10 1.640244e+10 -1.834828e+09
-4.655603e+09 -3.282964e+10 2.102443e+08
5.062269e+09 -3.257572e+10 -1.182292e+09
-2.044426e+10 -4.423178e+10 7.091855e+07
-4.280328e+10 -1.247292e+10 1.437546e+09
2.481443e+10 -2.816119e+10 1.629194e+08
-2.985476e+10 3.119990e+09 7.371380e+08
-2.622554e+10 -2.653694e+09 -5.568235e+08
2.706536e+10 -7.701385e+10 -1.027437e+09
5.095013e+10 -5.371554e+10 1.282148e+09
3.224927e+10 2.630007e+10 -5.609724e+08
-2.422529e+10 -7.116081e+10 5.513683e+09
-6.922147e+10 2.026204e+10 -8.960137e+08
-2.034024e+10 2.891764e+10 3.181686e+08
3.260071e+10 -1.220118e+10 2.028523e+09
-2.960758e+10 3.918093e+10 1.114140e+09
-1.741907e+10 7.056122e+10 1.467305e+09
-4.113139e+10 1.204300e+09 6.084647e+08
5.965974e+10 4.417983e+08 6.094537e+09
5.694209e+10 1.435804e+09 1.378250e+09
-2.510733e+10 3.755368e+09 -5.545106e+08
5.202425e+09 5.142991e+10 9.851231e+08
5.159285e+10 2.788787e+10 4.681466e+08
7.062719e+10 2.044163e+10 -1.157406e+09
1.261401e+10 2.545337e+10 2.913945e+09
-6.402791e+10 -3.556103e+10 -1.794070e+09
-1.501636e+10 2.199093e+10 1.892049e+08
1.540002e+10 -3.872871e+10 2.501845e+09
-3.565847e+10 -1.570890e+09 1.815527e+09
-1.575141e+10 -3.244399e+10 3.630486e+08
-2.491270e+10 4.291454e+10 -3.430129e+08
-3.646528e+10 -3.851271e+10 7.816369e+08
3.289982e+10 -1.395552e+10 -1.660601e+09
4.890527e+10 2.541520e+10 3.982645e+08
-2.741122e+10 3.606446e+10 1.019025e+09
-7.553361e+10 -2.393084e+10 -1.054940e+09
-3.334288e+10 2.269502e+10 -3.057818e+08
-4.961930e+10 1.532006e+10 5.032862e+08
4.234721e+10 -4.289857e+10 -1.305386e+09
-2.928837e+10 -1.675736e+09 -1.482245e+09
-4.753569e+10 3.518116e+10 9.827747e+08
-5.416697e+10 2.623232e+10 3.580812e+09
-5.417583e+10 3.645624e+09 4.067062e+09
2.461128e+10 -3.570131e+10 1.151085e+09
-3.462008e+10 5.765337e+09 7.950262e+08
6.566761e+10 -2.393239e+10 7.065773e+09
-3.708486e+10 -1.352503e+10 1.049253e+09
-2.764967e+10 1.238047e+10 1.379714e+09
-6.010984e+10 -3.317934e+10 -6.594737e+09
6.034665e+10 4.286138e+10 -3.742526e+09
-3.626581e+10 -4.993625e+09 5.801078e+08
-2.470334e+10 3.351238e+10 3.167709e+08
-7.440123e+10 1.572080e+10 -6.598689e+09
4.013260e+10 -5.483920e+10 -1.489881e+09
3.257398e+10 -2.834130e+10 -1.070281e+09
-1.725892e+10 -3.248706e+10 -5.761894e+08
1.951478e+10 -3.480145e+10 1.130711e+09
7.948314e+09 5.750653e+10 2.720307e+09
-2.315854e+10 -2.904024e+10 1.735883e+09
-6.014891e+09 3.303886e+10 -1.632092e+09
5.453080e+10 2.915444e+10 -6.359553e+08
-3.305182e+10 -6.900827e+09 2.829343e+09
-3.358095e+10 1.863699e+08 -1.461383e+09
-2.260053e+10 5.685398e+10 -1.373446e+09
-3.355244e+10 -2.397121e+10 1.565108e+09
-1.743999e+10 -4.607906e+10 5.398579e+08
1.282750e+10 -3.325016e+10 1.816554e+09
-3.066231e+10 2.787891e+09 -2.144496e+09
-3.984734e+10 6.935966e+10 -2.063599e+09
-6.965540e+10 -3.180846e+10 1.179161e+09
2.864214e+10 -6.642331e+09 -1.923775e+09
-1.545475e+10 -3.236575e+10 -2.152064e+09
-3.166268e+10 -8.364294e+09 -2.594796e+09
1.496561e+10 -3.010590e+10 2.203471e+08
3.724628e+10 9.136466e+09 -6.021281e+08
2.741559e+09 -3.334418e+10 -2.734264e+09
9.571967e+08 -2.877758e+10 6.999972e+08
1.166363e+08 -3.773249e+10 -2.443053e+09
-1.225334e+09 -3.815630e+10 2.845822e+08
8.639407e+10 -1.843873e+10 -3.526565e+09
2.808191e+10 1.280705e+10 -9.734744e+08
2.351101e+10 -2.195025e+10 1.049234e+09
-3.497509e+10 -3.017839e+10 7.930799e+08
-3.160487e+10 -9.802218e+09 2.928688e+09
-1.011147e+10 -3.501692e+10 -2.693550e+09
1.063635e+10 -3.470227e+10 7.239967e+08
-5.684951e+10 2.458610e+10 7.439230e+08
-1.213429e+10 -7.982203e+10 -5.504439e+09
-7.038290e+10 -7.820988e+09 3.911507e+09
3.081309e+10 -8.734789e+09 7.182961e+08
5.230317e+10 4.728308e+08 -3.547290e+07
-4.920373e+10 -4.681513e+10 -4.189724e+09
4.307906e+10 -1.919137e+10 -2.208238e+09
4.042098e+10 -2.213541e+10 -2.835857e+08
-3.157639e+10 -1.238709e+10 -4.085213e+09
5.663391e+09 -6.875406e+10 4.374218e+09
-3.434746e+09 -5.209921e+10 2.164928e+09
-7.259936e+10 1.111321e+10 2.275499e+09
2.157325e+10 2.306909e+10 4.119086e+07
-2.743307e+10 -7.657829e+09 -9.681022e+07
1.449385e+10 2.131667e+10 1.022383e+09
2.636546e+10 -6.249004e+10 -1.362471e+09
1.163048e+10 3.615645e+10 7.325127e+08
-3.832187e+10 1.892809e+10 1.155131e+09
-3.993133e+10 6.253517e+10 -2.024646e+08
-2.516936e+10 -1.300929e+10 -1.041506e+08
3.838200e+10 7.285541e+09 -6.381768e+08
-2.788016e+10 -2.225398e+10 -7.023054e+07
5.522753e+10 -1.481240e+10 -2.093236e+09
3.285983e+10 3.185128e+09 3.035535e+09
-3.015476e+10 -1.168017e+10 -7.715611e+08
-1.436138e+10 2.994800e+10 -1.729986e+09
5.148608e+10 1.414747e+10 1.070448e+09
2.518319e+10 -1.620323e+10 1.103541e+09
3.973850e+10 3.967101e+10 2.327445e+09
-3.835234e+10 4.203267e+10 2.302805e+09
-2.917815e+10 -1.226672e+10 -5.450864e+08
-1.280173e+10 2.775329e+10 2.648451e+08
2.941232e+10 -1.838819e+09 2.787988e+08
6.899958e+10 -1.564790e+10 2.371652e+09
-6.673680e+10 2.502471e+10 -2.444870e+08
-1.695553e+10 -5.012042e+10 -2.812391e+09
-3.402619e+10 8.814790e+09 -2.259509e+08
-3.086735e+10 -4.567133e+10 1.863811e+09
1.993027e+10 -3.052056e+10 -1.579639e+09
-1.908392e+10 -2.961617e+10 -1.620527e+09
-1.949025e+10 1.563497e+10 -1.197239e+09
-3.270304e+10 -1.986345e+10 -1.442313e+08
-3.601772e+10 -3.242218e+09 1.202437e+09
2.534673e+10 1.208652e+10 -6.852176e+08
3.037204e+10 -3.838641e+10 1.646206e+09
-3.495914e+10 -9.964428e+09 1.614577e+09
1.722280e+10 3.618311e+10 3.325804e+08
-1.436370e+10 3.104381e+10 -1.434882e+07
2.020517e+09 4.618028e+10 5.572648e+08
3.267708e+10 1.876634e+08 -6.770968e+08
-4.243960e+10 3.442134e+10 -8.099363e+08
2.303389e+10 -1.529242e+10 -2.451213e+09
-2.877478e+10 -1.989709e+10 2.221429e+09
-4.315555e+10 1.107297e+10 -1.772595e+09
5.787991e+10 -1.383642e+10 1.795706e+09
-1.833135e+10 -5.535682e+10 -3.422195e+08
1.278592e+10 -4.867748e+10 -1.023644e+09
1.239612e+09 -5.487547e+10 8.467741e+08
-7.210384e+09 -4.500377e+10 3.131833e+08
2.837692e+10 5.174312e+10 2.094970e+09
-2.940825e+10 1.259327e+10 -4.094341e+09
-1.813991e+10 5.313458e+10 -8.395972e+08
-3.842511e+09 3.501686e+10 -7.791250e+08
-2.782385e+10 -2.062308e+10 -3.404769e+09
-1.521050e+10 3.816022e+10 -5.938599e+08
4.734846e+10 -4.398040e+10 -3.235804e+09
-1.934191e+10 3.600150e+10 -1.405672e+09
-2.302023e+10 -6.462400e+10 -3.466070e+09
2.297708e+10 2.449715e+10 9.337017e+08
-6.820072e+10 1.953803e+10 -9.028914e+08
-6.369333e+10 -1.888897e+07 -6.610944e+08
-4.450350e+10 1.934765e+10 -1.553816e+09
3.898552e+09 2.903750e+10 3.026283e+08
2.632231e+10 1.324961e+10 9.398790e+08
-2.436153e+10 -2.251198e+10 1.748131e+08
-1.703040e+10 -2.891165e+10 -3.589880e+08
2.761693e+10 -5.437598e+10 -2.389312e+06
-2.628475e+10 -4.660754e+10 1.110781e+09
-1.273840e+10 -2.576466e+10 -3.751512e+09
5.002528e+10 -1.124904e+10 5.190989e+08
3.221263e+10 -3.734609e+10 2.222162e+09
-3.311451e+10 -4.003054e+10 -1.275712e+09
-2.342726e+10 -6.544163e+10 3.032555e+09
-2.548916e+10 -2.810021e+10 -4.958418e+08
-6.422074e+10 -3.736829e+10 3.590129e+09
-2.277279e+10 -2.154321e+10 2.824700e+09
1.330276e+10 -3.194462e+10 -2.290937e+09
1.324927e+10 -2.609078e+10 -2.890862e+09
5.203571e+09 4.709041e+10 5.704678e+08
-2.572650e+10 -2.729108e+09 -5.031265e+08
-3.149210e+10 4.632283e+10 7.390532e+08
-4.107470e+10 -5.951749e+10 -7.544078e+08
-2.448722e+10 2.059491e+10 6.755319e+08
7.385014e+09 3.295165e+10 -7.877020e+08
3.100326e+10 5.186003e+09 1.900456e+09
3.094154e+10 -3.004378e+10 3.561344e+08
-2.044100e+10 -2.292047e+10 -1.492000e+09
6.558563e+09 4.744153e+10 3.443663e+08
2.449933e+10 6.726392e+10 -4.959617e+09
-1.170726e+10 -2.790299e+10 -1.773067e+09
1.545110e+10 -2.947719e+10 1.095059e+08
-1.086521e+10 -3.583881e+10 1.120774e+09
1.293111e+10 -3.904339e+10 4.589468e+08
1.212835e+10 -4.483660e+10 4.406311e+07
-5.318468e+09 -3.927798e+10 1.412398e+09
2.784864e+10 3.764304e+10 -1.456969e+08
5.501265e+10 -4.477448e+10 -7.831679e+08
-1.944429e+10 -2.390140e+10 1.126667e+09
1.711394e+10 -4.253753e+10 1.321300e+09
-1.576806e+10 -4.647149e+10 -7.164056e+08
-3.273329e+10 1.178889e+10 9.266304e+08
-6.121246e+10 4.786925e+09 1.109707e+09
2.572271e+10 2.481407e+10 5.970042e+08
-2.278594e+10 -4.684499e+10 2.056846e+09
-2.613718e+10 7.354609e+10 -1.198501e+09
-4.454615e+10 2.283881e+08 4.618517e+08
-5.773166e+09 5.354611e+10 -1.499955e+09
1.143127e+10 3.377742e+10 -1.076710e+09
-1.870459e+10 -2.630852e+10 -6.589116e+08
-4.144554e+10 7.152133e+08 -4.880314e+06
1.751307e+10 -2.130442e+10 -7.338768e+08
-1.179817e+10 2.355946e+10 -1.501991e+09
4.104062e+10 1.499502e+10 -9.160448e+08
7.955215e+10 -2.720115e+10 -6.127598e+09
3.618394e+10 -4.233060e+10 -4.910013e+08
-4.751445e+10 8.683816e+09 -2.329107e+09
-1.591949e+10 5.486962e+10 -2.925593e+09
-3.486971e+10 -3.694941e+10 -6.587625e+08
-3.682443e+10 3.341954e+10 1.824555e+08
-1.462562e+10 -2.244970e+10 5.626435e+08
-6.118450e+10 -2.998079e+10 1.238940e+10
-3.490598e+10 1.750188e+10 2.685929e+09
-1.785557e+10 2.253381e+10 -2.192171e+09
5.711217e+10 3.780763e+10 7.254819e+09
3.167535e+10 5.491852e+09 -8.185197e+08
-2.606617e+10 -1.566878e+10 -2.157677e+09
-3.717591e+10 -3.894697e+10 -1.235458e+07
4.076728e+10 -5.337111e+09 1.963284e+09
4.474097e+09 3.593800e+10 3.309874e+09
2.216885e+10 -2.065345e+10 -4.484073e+09
-1.418379e+10 -2.605829e+10 -3.101783e+09
-1.767552e+09 7.109776e+10 1.119619e+08
-4.667229e+10 4.337773e+10 -1.778992e+09
2.302421e+10 7.968038e+10 -9.208524e+09
5.339487e+10 1.184006e+10 1.321003e+09
5.334582e+10 -2.958744e+10 -1.628912e+08
4.239620e+10 -5.128576e+10 -4.739844e+09
-3.680381e+09 5.813417e+10 5.127716e+08
6.162192e+10 -4.451964e+10 5.482162e+09
-1.921843e+10 1.953048e+10 4.005310e+08
2.219842e+10 1.582727e+10 -6.927454e+08
-1.122665e+10 -2.485995e+10 2.305650e+09
-3.771352e+10 -6.782025e+09 3.548875e+08
-3.224472e+10 3.477305e+10 7.057329e+08
-3.873056e+10 6.779438e+10 3.774405e+09
-2.133503e+10 -1.849543e+10 -1.167509e+08
-2.169179e+10 -2.487618e+10 -2.201908e+07
1.942578e+07 3.307389e+10 -2.087359e+09
-3.153495e+10 3.875697e+10 2.329891e+09
3.108736e+10 -1.113928e+10 -2.930044e+08
-1.852267e+10 7.800922e+10 -3.993790e+09
-4.557171e+09 6.133202e+10 -5.581936e+08
-1.364095e+10 -2.860970e+10 -9.647986e+08
5.962805e+09 -2.726100e+10 -1.082138e+09
-5.942441e+09 -2.733860e+10 1.003179e+08
5.110349e+10 2.456685e+09 -1.801748e+09
-5.463189e+10 -2.550618e+10 -1.566338e+08
8.026818e+10 4.151974e+10 2.893145e+09
3.053513e+10 9.753983e+09 1.782401e+09
6.548134e+10 -9.858163e+09 2.957445e+09
-2.344195e+10 6.181493e+10 2.348021e+08
-3.039785e+10 3.295225e+10 -6.822935e+08
-3.139174e+10 1.994546e+10 7.936372e+08
-1.240755e+10 -3.397060e+10 -2.537282e+09
-2.517684e+10 2.803103e+10 1.394421e+09
-2.888447e+10 5.759939e+10 -4.261164e+08
-9.111219e+09 4.492029e+10 1.028154e+09
-4.255960e+10 2.302598e+10 -1.866593e+09
3.127805e+10 5.351504e+10 -1.852300e+09
-3.817345e+09 6.535443e+10 2.729641e+08
-5.250755e+10 1.453567e+10 -3.657683e+09
-5.422152e+10 -4.760337e+09 -1.655273e+08
3.528904e+10 4.675092e+10 9.398432e+08
-5.357947e+10 -8.200776e+09 -1.345987e+08
-7.848463e+09 -2.907766e+10 9.495486e+08
2.396176e+10 -3.024075e+10 1.764978e+08
3.294850e+10 2.250240e+10 2.323737e+09
-3.272946e+10 -1.710046e+10 -5.300873e+08
5.523275e+10 2.222640e+10 1.428252e+09
-1.128393e+10 3.781002e+10 1.857204e+09
-3.351531e+10 9.455628e+09 -9.412643e+07
-4.216406e+10 -1.575857e+10 4.568497e+08
-7.469680e+10 -2.577692e+10 5.258972e+09
7.623197e+10 -1.888723e+10 1.812814e+09
4.119432e+10 -1.605648e+10 -3.438910e+08
-8.640103e+09 -3.468669e+10 -9.432171e+07
-3.276256e+10 8.467828e+09 -1.613096e+09
-5.910858e+10 -3.925186e+10 -1.068959e+09
6.829436e+10 -1.256689e+10 -5.340685e+09
-5.518720e+10 4.483539e+10 1.152384e+09
-3.558171e+10 5.491171e+09 1.117284e+08
3.469535e+10 7.816069e+10 -7.619987e+09
4.256990e+10 2.272802e+10 1.596493e+09
5.454962e+10 1.985778e+10 1.323640e+08
-6.386224e+09 -2.841502e+10 5.775866e+07
5.422675e+09 -3.423359e+10 1.589357e+09
-5.443673e+09 -3.560777e+10 2.086484e+09
3.998856e+10 4.672676e+09 -6.527267e+08
-6.451853e+10 3.491194e+10 1.272491e+09
-5.110578e+10 -4.601135e+10 6.345336e+09
-6.794851e+10 -1.980903e+10 -4.930332e+09
-2.238954e+10 -3.067958e+10 2.194231e+09
2.003277e+10 -3.028415e+10 -6.273663e+08
-4.493554e+10 -2.872839e+10 9.211128e+08
-3.385164e+10 7.518286e+09 -1.427044e+09
-2.732437e+10 6.775317e+10 2.873753e+09
2.466776e+10 1.995510e+10 4.553424e+08
-4.333939e+09 -3.328676e+10 -2.191041e+09
-3.391017e+10 -1.444911e+10 -8.282110e+07
3.199034e+10 -5.930961e+09 -3.155780e+09
2.585154e+10 -8.097897e+08 6.111443e+08
3.417455e+10 3.334912e+10 -1.440814e+09
-2.588015e+10 2.420194e+10 1.445130e+09
2.816189e+10 -4.047753e+10 3.989731e+08
-2.668858e+10 -3.762600e+10 -1.983019e+09
2.781625e+10 2.578619e+10 -7.475113e+08
1.836061e+10 2.432179e+10 -1.653942e+09
-6.470232e+10 2.551951e+10 3.482561e+09
-1.087095e+09 -2.924801e+10 7.649326e+08
-3.308389e+10 -2.792145e+10 -7.559574e+08
7.889434e+10 -3.812521e+10 -3.894802e+09
-4.711368e+10 -1.277788e+10 2.429585e+07
2.475094e+10 3.670065e+10 1.680593e+08
-5.684400e+10 -2.122788e+10 9.361537e+07
-1.176130e+10 -3.625056e+10 1.000399e+09
1.317880e+10 -4.216200e+10 -1.677941e+09
-5.401496e+10 -1.258292e+09 1.808119e+09
2.103746e+10 4.129674e+10 2.185201e+09
1.961498e+10 5.119657e+10 1.865533e+08
-6.961648e+08 -3.625397e+10 2.504022e+09
-8.452142e+10 3.352829e+10 -4.851689e+09
4.099981e+10 -6.512126e+09 1.978606e+09
-1.728013e+10 -2.356301e+10 -6.183899e+08
5.661446e+10 -6.821589e+09 -7.728339e+08
2.396876e+10 -5.113365e+10 3.115122e+09
-1.209682e+10 3.441186e+10 1.801694e+08
1.283395e+10 7.437093e+10 -7.449427e+09
-7.122846e+10 -3.201269e+08 -1.172457e+09
3.133262e+10 -4.991431e+10 1.289702e+09
3.823691e+10 1.741487e+10 1.045473e+09
3.495738e+09 -3.977701e+10 -1.212035e+09
-2.381323e+10 2.852977e+10 1.883983e+09
3.468825e+09 -3.239350e+10 -2.148253e+09
-3.539313e+09 -3.762790e+10 -5.776302e+08
-1.143380e+10 5.369268e+10 -2.131803e+09
3.849097e+10 1.617029e+10 9.599146e+08
-4.171451e+10 -1.448194e+10 2.067729e+09
3.894019e+09 7.094555e+10 7.111202e+06
3.492342e+10 1.225754e+10 2.418789e+08
-2.169756e+10 2.786498e+10 1.100018e+09
-1.141466e+09 3.372572e+10 5.364064e+08
1.437021e+09 -4.080008e+10 2.032059e+08
4.114125e+10 1.082771e+10 5.254176e+08
-5.493489e+10 3.440110e+10 -1.431564e+09
-6.739804e+10 5.487107e+10 -2.363585e+09
3.496484e+10 1.433252e+10 2.498905e+09
-6.178998e+10 2.366552e+10 -1.297448e+09
3.153781e+10 2.812197e+10 6.670186e+08
-2.334116e+10 -2.302644e+10 -9.005615e+08
4.676829e+10 -2.133605e+10 -9.041278e+08
3.852651e+10 -5.190938e+10 -2.603311e+08
5.979805e+10 -6.082111e+09 -4.995180e+09
-2.009960e+08 -5.073683e+10 4.230256e+08
2.018617e+10 5.587142e+10 -8.139452e+08
-3.338541e+10 3.029688e+10 -1.814064e+07
3.424839e+10 -5.838202e+09 -3.923804e+08
-3.900322e+10 2.050715e+10 4.606209e+08
2.342891e+10 2.898233e+10 1.424747e+09
5.179168e+10 6.103717e+10 7.204453e+09
1.172639e+10 4.429159e+10 -3.625207e+09
4.570992e+10 -3.765591e+09 -2.566120e+09
-6.392313e+10 -5.042964e+09 -2.747504e+09
5.484279e+10 -2.868569e+10 -5.734412e+08
-4.463707e+08 -8.351790e+10 -9.383836e+08
-7.094025e+10 1.654287e+10 3.895802e+09
-4.035195e+09 -6.213373e+10 9.621284e+08
2.354530e+09 -5.733132e+10 2.028333e+09
-3.102176e+10 -1.033229e+10 -2.255207e+09
-3.854997e+10 -4.222120e+09 2.915745e+09
4.503310e+10 -4.870730e+09 -1.388259e+09
-2.721836e+10 -6.728141e+09 8.758765e+08
6.610768e+08 -3.844688e+10 -4.486121e+08
1.649724e+09 -3.040633e+10 -8.221266e+08
1.262423e+09 -3.966709e+10 2.794979e+09
1.126996e+09 -6.705264e+10 4.256005e+09
-2.932670e+09 -3.333620e+10 9.708557e+08
2.265097e+10 -2.739018e+10 1.532368e+09
4.815683e+10 4.850900e+10 -5.220548e+09
3.112198e+10 -3.382283e+09 8.718695e+08
1.035619e+10 -3.053913e+10 3.572116e+09
-1.074070e+10 -3.275410e+10 -4.476592e+09
7.102199e+10 1.409274e+10 1.180947e+09
2.590276e+10 2.128589e+10 1.112506e+09
-7.868052e+10 1.337034e+10 -4.842626e+09
-4.750726e+10 -3.657602e+10 1.151901e+09
-2.013073e+09 -5.728091e+10 2.888492e+09
5.622184e+10 4.483722e+10 -8.280868e+09
-2.742854e+09 -3.204505e+10 1.069578e+09
3.799796e+09 -3.065990e+10 2.472209e+09
-2.528380e+10 -2.134604e+10 -2.054842e+09
-1.631636e+10 -4.824788e+10 1.320959e+09
9.074076e+09 -3.790839e+10 -2.710662e+09
-3.584471e+10 -4.296510e+09 -8.684732e+08
3.711134e+10 2.967768e+10 2.219083e+09
-3.181523e+10 -6.557196e+10 7.739778e+09
-7.163138e+10 2.427641e+10 2.547332e+09
5.966047e+08 -6.521819e+10 -2.674944e+09
-7.052873e+09 2.568719e+10 -5.223826e+08
3.907758e+10 1.821990e+10 -3.316543e+09
-4.582784e+10 -5.845692e+10 -8.004686e+09
6.348166e+10 5.652932e+10 -1.336149e+09
3.436634e+10 -4.694698e+10 3.570175e+08
-4.611290e+10 -2.362258e+10 -5.780752e+08
2.667917e+10 -3.437546e+10 -1.059690e+09
3.758812e+10 1.971370e+10 -5.196264e+08
-9.897595e+09 -7.932957e+10 -2.166896e+09
-1.207247e+09 -6.518750e+10 -7.104713e+09
-1.175116e+09 -4.834927e+10 -9.363938e+08
1.396667e+10 -6.671687e+10 8.918049e+09
-3.006006e+10 1.915176e+10 -1.788877e+09
-3.910621e+10 -4.918283e+10 -3.483148e+09
-2.189585e+10 3.509775e+10 -1.816634e+09
2.815509e+10 1.544396e+10 -9.582376e+08
1.950121e+10 -4.790966e+10 -4.052245e+08
-2.051777e+10 -4.752373e+10 -1.318569e+09
-3.983786e+10 3.718348e+10 -7.114399e+08
3.745882e+10 -2.241501e+10 1.474761e+09
-3.202585e+10 -7.501171e+09 1.160058e+09
-2.990819e+09 -4.142498e+10 5.114796e+08
-2.085274e+10 -2.110016e+10 -6.147462e+08
-6.922292e+10 -1.226403e+10 4.826477e+08
-3.965552e+10 -2.077973e+10 5.369089e+08
5.375218e+10 -4.555724e+10 1.095420e+09
8.978496e+09 4.352545e+10 -2.015021e+08
4.240360e+10 -3.707986e+08 -1.952350e+09
2.526748e+10 9.107055e+09 -1.318722e+09
-5.623571e+10 -3.587790e+10 -2.470746e+09
5.681351e+10 2.376936e+10 2.999653e+09
-3.442612e+10 -1.909555e+10 -8.470105e+08
3.182673e+09 -4.080272e+10 1.933392e+09
9.527989e+10 -1.921640e+10 1.862886e+09
-1.689369e+10 2.617293e+10 4.062714e+09
2.926639e+10 -6.172922e+10 -2.630148e+09
3.857563e+10 3.495587e+10 1.345805e+09
1.521708e+10 -3.697420e+10 2.534513e+08
-1.528422e+10 -3.203814e+10 8.093763e+08
5.806637e+10 -3.240501e+09 1.002211e+09
3.567052e+10 4.648420e+10 4.927225e+08
6.834682e+10 -3.382977e+10 3.973649e+09
8.811596e+09 4.140579e+10 -1.808205e+09
7.334279e+07 -3.099974e+10 -6.050821e+08
-7.490079e+10 -2.196267e+10 5.061341e+09
1.239923e+10 -3.880592e+10 -1.307858e+09
-1.559372e+10 -4.305552e+10 -1.388395e+09
2.629272e+10 -1.802653e+10 1.746411e+08
1.060419e+10 2.900350e+10 -3.092129e+09
2.914860e+10 1.720673e+10 3.844763e+08
6.135147e+10 -6.366546e+10 6.981306e+09
-4.306364e+10 5.028427e+10 1.044838e+09
1.528597e+10 3.187288e+10 -4.807873e+08
-2.134311e+10 -2.032617e+10 1.876356e+07
-6.479833e+10 4.433145e+08 -5.772925e+08
5.585945e+10 7.293533e+09 1.470487e+09
-2.916320e+10 -2.369648e+10 -1.194529e+09
5.902999e+10 -4.295211e+10 7.555247e+08
6.167004e+10 1.279582e+09 5.178729e+09
-3.269793e+10 2.270446e+10 1.702896e+09
-2.497150e+10 -4.618307e+10 -4.887676e+08