# vtk DataFile Version 2.0
Electric current density generated by TTH
ASCII
DATASET UNSTRUCTURED_GRID
POINTS 7616 double
-5.000000e-05 -5.000000e-05 -2.000000e-07
5.000000e-05 -5.000000e-05 2.000000e-07
2.394964e-07 -5.000000e-05 -2.000000e-07
-4.900000e-05 3.265704e-05 -2.000000e-07
-4.900000e-05 3.095426e-05 -2.000000e-07
-4.900000e-05 2.949546e-05 -2.000000e-07
-4.900000e-05 2.837958e-05 -2.000000e-07
-4.900000e-05 2.724549e-05 -2.000000e-07
-4.900000e-05 2.573589e-05 -2.000000e-07
-4.900000e-05 2.391962e-05 -2.000000e-07
-4.900000e-05 2.257449e-05 -2.000000e-07
-4.900000e-05 2.161778e-05 -2.000000e-07
-4.900000e-05 2.093083e-05 -2.000000e-07
4.652229e-07 -5.000000e-05 -2.000000e-07
-4.900000e-05 2.016294e-05 -2.000000e-07
-4.900000e-05 1.910322e-05 -2.000000e-07
-4.900000e-05 1.817554e-05 -2.000000e-07
-4.900000e-05 1.750893e-05 -2.000000e-07
-4.900000e-05 1.676089e-05 -2.000000e-07
-4.900000e-05 1.570915e-05 -2.000000e-07
-4.900000e-05 1.423038e-05 -2.000000e-07
-4.900000e-05 1.270186e-05 -2.000000e-07
-4.900000e-05 1.158601e-05 -2.000000e-07
-4.900000e-05 1.026558e-05 -2.000000e-07
7.383921e-07 -5.000000e-05 -2.000000e-07
-4.900000e-05 8.535218e-06 -2.000000e-07
-4.900000e-05 7.162380e-06 -2.000000e-07
-4.900000e-05 6.185972e-06 -2.000000e-07
-4.900000e-05 5.491518e-06 -2.000000e-07
-4.900000e-05 4.904354e-06 -2.000000e-07
-4.900000e-05 4.099090e-06 -2.000000e-07
-4.900000e-05 2.966885e-06 -2.000000e-07
-4.900000e-05 1.374998e-06 -2.000000e-07
-4.900000e-05 -8.291033e-07 -2.000000e-07
-4.900000e-05 -2.842243e-06 -2.000000e-07
1.004960e-06 -5.000000e-05 -2.000000e-07
-4.900000e-05 -4.274058e-06 -2.000000e-07
-4.900000e-05 -5.362355e-06 -2.000000e-07
-4.900000e-05 -6.749214e-06 -2.000000e-07
-4.900000e-05 -8.699147e-06 -2.000000e-07
-4.900000e-05 -1.082172e-05 -2.000000e-07
-4.900000e-05 -1.234198e-05 -2.000000e-07
-4.900000e-05 -1.342324e-05 -2.000000e-07
-4.900000e-05 -1.425556e-05 -2.000000e-07
-4.900000e-05 -1.524324e-05 -2.000000e-07
-4.900000e-05 -1.648679e-05 -2.000000e-07
1.353199e-06 -5.000000e-05 -2.000000e-07
-4.900000e-05 -1.802601e-05 -2.000000e-07
-4.900000e-05 -1.981200e-05 -2.000000e-07
-4.900000e-05 -2.166593e-05 -2.000000e-07
-4.900000e-05 -2.303159e-05 -2.000000e-07
-4.900000e-05 -2.400911e-05 -2.000000e-07
-4.900000e-05 -2.498258e-05 -2.000000e-07
-4.900000e-05 -2.635125e-05 -2.000000e-07
-4.900000e-05 -2.827560e-05 -2.000000e-07
-4.900000e-05 -3.098125e-05 -2.000000e-07
-4.900000e-05 -3.473382e-05 -2.000000e-07
1.694557e-06 -5.000000e-05 -2.000000e-07
-4.900000e-05 -3.866818e-05 -2.000000e-07
-4.900000e-05 -4.177938e-05 -2.000000e-07
-4.900000e-05 -4.407587e-05 -2.000000e-07
-4.900000e-05 -4.570921e-05 -2.000000e-07
-4.900000e-05 -4.687090e-05 -2.000000e-07
-4.900000e-05 -4.769714e-05 -2.000000e-07
-4.900000e-05 -4.828478e-05 -2.000000e-07
-4.900000e-05 -4.870274e-05 -2.000000e-07
-5.000000e-05 -5.000000e-05 -8.901455e-08
-5.000000e-05 -5.000000e-05 1.078976e-08
2.118695e-06 -5.000000e-05 -2.000000e-07
-5.000000e-05 -5.000000e-05 1.005485e-07
5.000000e-05 -5.000000e-05 -1.458929e-07
5.000000e-05 -5.000000e-05 -9.125740e-08
5.000000e-05 -5.000000e-05 -3.608818e-08
-4.985102e-05 -5.000000e-05 2.000000e-07
-4.981675e-05 -5.000000e-05 2.000000e-07
-4.978035e-05 -5.000000e-05 2.000000e-07
-4.974170e-05 -5.000000e-05 2.000000e-07
-4.970065e-05 -5.000000e-05 2.000000e-07
-4.965740e-05 -5.000000e-05 2.000000e-07
2.707430e-06 -5.000000e-05 -2.000000e-07
-4.961264e-05 -5.000000e-05 2.000000e-07
-4.956637e-05 -5.000000e-05 2.000000e-07
-4.951854e-05 -5.000000e-05 2.000000e-07
-4.946909e-05 -5.000000e-05 2.000000e-07
-4.941685e-05 -5.000000e-05 2.000000e-07
-4.936041e-05 -5.000000e-05 2.000000e-07
-4.929940e-05 -5.000000e-05 2.000000e-07
-4.923347e-05 -5.000000e-05 2.000000e-07
-4.916132e-05 -5.000000e-05 2.000000e-07
-4.906594e-05 -5.000000e-05 2.000000e-07
3.237269e-06 -5.000000e-05 -2.000000e-07
-4.893196e-05 -5.000000e-05 2.000000e-07
-4.874379e-05 -5.000000e-05 2.000000e-07
-4.847947e-05 -5.000000e-05 2.000000e-07
-4.810822e-05 -5.000000e-05 2.000000e-07
-4.758677e-05 -5.000000e-05 2.000000e-07
-4.685436e-05 -5.000000e-05 2.000000e-07
-4.582562e-05 -5.000000e-05 2.000000e-07
-4.438066e-05 -5.000000e-05 2.000000e-07
-4.237592e-05 -5.000000e-05 2.000000e-07
-4.054741e-05 -5.000000e-05 2.000000e-07
3.696902e-06 -5.000000e-05 -2.000000e-07
-3.893629e-05 -5.000000e-05 2.000000e-07
-3.722336e-05 -5.000000e-05 2.000000e-07
-3.483548e-05 -5.000000e-05 2.000000e-07
-3.247880e-05 -5.000000e-05 2.000000e-07
-3.077935e-05 -5.000000e-05 2.000000e-07
-2.892668e-05 -5.000000e-05 2.000000e-07
-2.648557e-05 -5.000000e-05 2.000000e-07
-2.346087e-05 -5.000000e-05 2.000000e-07
-2.022279e-05 -5.000000e-05 2.000000e-07
-1.682785e-05 -5.000000e-05 2.000000e-07
-5.000000e-05 5.000000e-05 2.000000e-07
4.328413e-06 -5.000000e-05 -2.000000e-07
-1.347736e-05 -5.000000e-05 2.000000e-07
-1.019436e-05 -5.000000e-05 2.000000e-07
-7.114526e-06 -5.000000e-05 2.000000e-07
-4.460140e-06 -5.000000e-05 2.000000e-07
-2.177297e-06 -5.000000e-05 2.000000e-07
-3.812478e-09 -5.000000e-05 2.000000e-07
2.380707e-06 -5.000000e-05 2.000000e-07
4.828030e-06 -5.000000e-05 2.000000e-07
6.700566e-06 -5.000000e-05 2.000000e-07
8.099572e-06 -5.000000e-05 2.000000e-07
5.213077e-06 -5.000000e-05 -2.000000e-07
9.205073e-06 -5.000000e-05 2.000000e-07
1.008445e-05 -5.000000e-05 2.000000e-07
1.087877e-05 -5.000000e-05 2.000000e-07
1.168284e-05 -5.000000e-05 2.000000e-07
1.244460e-05 -5.000000e-05 2.000000e-07
1.300189e-05 -5.000000e-05 2.000000e-07
1.339866e-05 -5.000000e-05 2.000000e-07
1.372812e-05 -5.000000e-05 2.000000e-07
1.406062e-05 -5.000000e-05 2.000000e-07
1.439632e-05 -5.000000e-05 2.000000e-07
6.223252e-06 -5.000000e-05 -2.000000e-07
1.473110e-05 -5.000000e-05 2.000000e-07
1.505354e-05 -5.000000e-05 2.000000e-07
1.536342e-05 -5.000000e-05 2.000000e-07
1.566122e-05 -5.000000e-05 2.000000e-07
1.594923e-05 -5.000000e-05 2.000000e-07
1.627840e-05 -5.000000e-05 2.000000e-07
1.668253e-05 -5.000000e-05 2.000000e-07
1.717871e-05 -5.000000e-05 2.000000e-07
1.778788e-05 -5.000000e-05 2.000000e-07
1.858690e-05 -5.000000e-05 2.000000e-07
7.394509e-06 -5.000000e-05 -2.000000e-07
1.970913e-05 -5.000000e-05 2.000000e-07
2.127965e-05 -5.000000e-05 2.000000e-07
2.285494e-05 -5.000000e-05 2.000000e-07
2.412399e-05 -5.000000e-05 2.000000e-07
2.538594e-05 -5.000000e-05 2.000000e-07
2.701217e-05 -5.000000e-05 2.000000e-07
2.906041e-05 -5.000000e-05 2.000000e-07
3.097780e-05 -5.000000e-05 2.000000e-07
3.263752e-05 -5.000000e-05 2.000000e-07
3.420775e-05 -5.000000e-05 2.000000e-07
8.393149e-06 -5.000000e-05 -2.000000e-07
3.564802e-05 -5.000000e-05 2.000000e-07
3.671504e-05 -5.000000e-05 2.000000e-07
3.748636e-05 -5.000000e-05 2.000000e-07
3.815034e-05 -5.000000e-05 2.000000e-07
3.877857e-05 -5.000000e-05 2.000000e-07
3.936881e-05 -5.000000e-05 2.000000e-07
3.988757e-05 -5.000000e-05 2.000000e-07
4.033586e-05 -5.000000e-05 2.000000e-07
4.072532e-05 -5.000000e-05 2.000000e-07
4.106721e-05 -5.000000e-05 2.000000e-07
9.146538e-06 -5.000000e-05 -2.000000e-07
4.136804e-05 -5.000000e-05 2.000000e-07
4.165209e-05 -5.000000e-05 2.000000e-07
4.192978e-05 -5.000000e-05 2.000000e-07
4.219518e-05 -5.000000e-05 2.000000e-07
4.244104e-05 -5.000000e-05 2.000000e-07
4.268591e-05 -5.000000e-05 2.000000e-07
4.294375e-05 -5.000000e-05 2.000000e-07
4.321576e-05 -5.000000e-05 2.000000e-07
4.350273e-05 -5.000000e-05 2.000000e-07
4.380343e-05 -5.000000e-05 2.000000e-07
9.880031e-06 -5.000000e-05 -2.000000e-07
4.410763e-05 -5.000000e-05 2.000000e-07
4.438152e-05 -5.000000e-05 2.000000e-07
4.463359e-05 -5.000000e-05 2.000000e-07
4.489404e-05 -5.000000e-05 2.000000e-07
4.516699e-05 -5.000000e-05 2.000000e-07
4.546661e-05 -5.000000e-05 2.000000e-07
4.579949e-05 -5.000000e-05 2.000000e-07
4.616475e-05 -5.000000e-05 2.000000e-07
4.655756e-05 -5.000000e-05 2.000000e-07
4.692383e-05 -5.000000e-05 2.000000e-07
1.060640e-05 -5.000000e-05 -2.000000e-07
4.725720e-05 -5.000000e-05 2.000000e-07
4.762373e-05 -5.000000e-05 2.000000e-07
4.796275e-05 -5.000000e-05 2.000000e-07
4.820413e-05 -5.000000e-05 2.000000e-07
4.838179e-05 -5.000000e-05 2.000000e-07
4.852990e-05 -5.000000e-05 2.000000e-07
4.865941e-05 -5.000000e-05 2.000000e-07
4.880707e-05 -5.000000e-05 2.000000e-07
4.896049e-05 -5.000000e-05 2.000000e-07
4.908200e-05 -5.000000e-05 2.000000e-07
1.118171e-05 -5.000000e-05 -2.000000e-07
4.917309e-05 -5.000000e-05 2.000000e-07
4.924891e-05 -5.000000e-05 2.000000e-07
4.932411e-05 -5.000000e-05 2.000000e-07
4.939707e-05 -5.000000e-05 2.000000e-07
4.946440e-05 -5.000000e-05 2.000000e-07
4.952621e-05 -5.000000e-05 2.000000e-07
4.958219e-05 -5.000000e-05 2.000000e-07
4.963282e-05 -5.000000e-05 2.000000e-07
4.967794e-05 -5.000000e-05 2.000000e-07
4.971774e-05 -5.000000e-05 2.000000e-07
1.159038e-05 -5.000000e-05 -2.000000e-07
4.975284e-05 -5.000000e-05 2.000000e-07
4.978417e-05 -5.000000e-05 2.000000e-07
4.981285e-05 -5.000000e-05 2.000000e-07
4.983914e-05 -5.000000e-05 2.000000e-07
4.986323e-05 -5.000000e-05 2.000000e-07
4.988534e-05 -5.000000e-05 2.000000e-07
4.991154e-05 -5.000000e-05 2.000000e-07
4.994833e-05 -5.000000e-05 2.000000e-07
-5.000000e-05 5.000000e-05 5.772772e-08
-5.000000e-05 4.993233e-05 2.000000e-07
5.000000e-05 5.000000e-05 2.000000e-07
1.191353e-05 -5.000000e-05 -2.000000e-07
-5.000000e-05 4.984529e-05 2.000000e-07
-5.000000e-05 4.973336e-05 2.000000e-07
-5.000000e-05 4.958940e-05 2.000000e-07
-5.000000e-05 4.940425e-05 2.000000e-07
-5.000000e-05 4.916613e-05 2.000000e-07
-5.000000e-05 4.885989e-05 2.000000e-07
-5.000000e-05 4.846603e-05 2.000000e-07
-5.000000e-05 4.795949e-05 2.000000e-07
-5.000000e-05 4.730803e-05 2.000000e-07
-5.000000e-05 4.647018e-05 2.000000e-07
1.232544e-05 -5.000000e-05 -2.000000e-07
-5.000000e-05 4.539262e-05 2.000000e-07
-5.000000e-05 4.400677e-05 2.000000e-07
-5.000000e-05 4.222443e-05 2.000000e-07
-5.000000e-05 3.993767e-05 2.000000e-07
-5.000000e-05 3.715028e-05 2.000000e-07
-5.000000e-05 3.381985e-05 2.000000e-07
-5.000000e-05 2.994397e-05 2.000000e-07
[...]
POINT_DATA 7616
VECTORS 10.000GHz_fone_imag double
-8.587271e+09 6.027297e+09 -8.777303e+07
-4.865549e+09 -5.028177e+09 8.946979e+07
-1.052240e+11 -1.490956e+09 9.522303e+08
7.139702e+08 9.353766e+10 5.851319e+07
-4.372118e+08 9.284855e+10 6.259027e+07
8.051039e+08 9.461147e+10 4.598058e+08
2.066096e+08 9.076331e+10 -2.251558e+08
6.567625e+08 9.121579e+10 4.530071e+08
7.653470e+06 9.050783e+10 -5.290426e+08
1.550955e+08 8.902845e+10 5.957613e+08
-5.773316e+08 9.149732e+10 -1.191686e+09
-7.054391e+08 8.716849e+10 -1.209493e+08
-1.860054e+08 8.907621e+10 1.323885e+07
-1.051778e+11 -1.442512e+09 9.212908e+08
-2.297419e+09 8.921549e+10 3.063292e+07
3.616850e+08 9.512745e+10 -3.909512e+06
-4.612526e+08 9.224352e+10 -3.678064e+08
2.534663e+09 9.485602e+10 5.654215e+08
5.306189e+08 8.729688e+10 -3.377604e+08
4.445869e+06 8.807604e+10 -6.308178e+07
-1.234484e+09 9.217019e+10 -4.404724e+07
-1.165879e+07 9.140076e+10 -1.341064e+08
-1.395991e+09 9.015446e+10 -4.708116e+08
-5.324881e+08 9.117122e+10 -5.678865e+07
-9.422357e+10 -2.180963e+09 -1.559163e+09
-6.139029e+07 9.370263e+10 -5.316861e+06
-6.422826e+07 9.510809e+10 3.422722e+08
-9.498819e+08 9.515685e+10 -5.191361e+08
-2.927458e+08 9.680104e+10 -7.070295e+08
-9.044155e+08 9.830684e+10 -1.030354e+09
4.941114e+07 9.738076e+10 -1.549238e+08
1.065622e+08 9.832816e+10 6.588801e+08
2.291564e+08 9.606196e+10 3.323156e+08
3.537319e+08 9.302893e+10 1.554095e+08
-2.295033e+08 9.262808e+10 -2.392690e+06
-8.845385e+10 5.287517e+08 -2.173620e+08
1.286100e+09 9.637631e+10 7.767313e+08
1.046236e+08 9.221523e+10 -1.520551e+08
1.272201e+08 9.088872e+10 1.567579e+08
2.159811e+07 9.242194e+10 5.977286e+07
-3.350313e+08 9.430269e+10 4.065245e+08
6.215868e+08 9.078259e+10 -1.100858e+08
3.854715e+08 9.098192e+10 -1.101815e+08
1.487967e+09 9.010714e+10 6.856437e+08
1.291022e+08 8.997376e+10 2.836833e+08
1.940739e+08 9.069649e+10 5.153233e+07
-9.026409e+10 5.726615e+08 4.720203e+08
4.405997e+08 8.982728e+10 4.608419e+07
-5.079956e+08 8.762297e+10 -7.165617e+07
3.510762e+08 8.877825e+10 2.588391e+08
6.856262e+08 8.850854e+10 -6.827323e+06
1.097417e+09 8.807072e+10 1.091423e+08
1.795216e+08 8.711872e+10 -1.510912e+08
3.859310e+08 8.698969e+10 2.439241e+08
-4.116924e+08 9.080111e+10 2.979378e+07
-1.778477e+07 8.765005e+10 1.165331e+08
-1.746774e+08 8.871504e+10 6.480719e+07
-9.622430e+10 2.141627e+09 -8.893421e+08
9.942603e+07 8.882836e+10 -1.270281e+08
2.353220e+07 8.684829e+10 5.018552e+07
-1.376475e+08 8.932622e+10 -1.691923e+08
-1.591629e+09 9.346399e+10 5.600282e+08
-6.132316e+08 1.032778e+11 -6.476755e+08
-1.410163e+09 1.108129e+11 -9.528540e+07
-3.025299e+09 1.239671e+11 1.339201e+08
-6.294421e+09 1.474906e+11 2.698531e+07
-5.497204e+09 4.274012e+09 3.084425e+06
-3.127600e+09 3.877734e+09 -4.032143e+06
-9.600241e+10 1.166394e+09 8.841465e+08
-4.747605e+09 3.465689e+09 4.769552e+07
-3.056310e+09 -4.389638e+09 -5.602470e+07
-2.453632e+09 -3.811646e+09 2.928478e+08
-4.456572e+09 -3.932850e+09 2.717963e+07
-2.312555e+10 3.165342e+09 -8.131264e+07
-2.996525e+10 1.230037e+09 3.924745e+08
-3.324722e+10 1.441435e+09 5.938405e+08
-3.718461e+10 1.451345e+09 3.449321e+08
-4.096525e+10 1.314101e+09 6.805600e+08
-4.444340e+10 1.531338e+09 4.269566e+08
-9.205005e+10 -2.661465e+09 -9.197378e+08
-4.838275e+10 9.960827e+08 3.871533e+08
-5.246826e+10 1.065368e+09 2.500187e+08
-5.555515e+10 1.269124e+09 5.006195e+08
-5.867348e+10 1.269464e+09 5.134120e+08
-6.369427e+10 1.185961e+09 3.603949e+08
-6.723325e+10 1.346557e+09 4.821509e+08
-7.162091e+10 1.333352e+09 3.069168e+08
-7.520361e+10 9.505071e+08 5.713171e+08
-7.769879e+10 1.152811e+09 6.879822e+08
-8.095062e+10 1.174854e+09 2.642259e+08
-8.707918e+10 1.061150e+09 -4.042395e+08
-8.279941e+10 1.258421e+09 1.279018e+09
-8.389035e+10 1.781951e+09 1.240805e+09
-8.702840e+10 1.506325e+09 6.658023e+08
-8.850212e+10 4.677936e+08 3.292638e+08
-8.994571e+10 5.892542e+08 -9.481326e+07
-9.479209e+10 1.217674e+08 -4.482667e+08
-8.714777e+10 -1.062051e+09 3.618460e+08
-8.869115e+10 5.037767e+08 1.227188e+08
-9.043172e+10 7.847627e+08 -1.889211e+08
-9.300778e+10 -1.190052e+09 3.035236e+08
-9.082980e+10 -3.214306e+08 1.546135e+08
-9.150019e+10 9.010569e+08 -3.914824e+08
-9.234478e+10 -1.554664e+08 4.489014e+08
-9.213798e+10 -1.154277e+08 3.381801e+08
-9.166988e+10 3.080609e+08 -5.513109e+07
-9.227838e+10 1.994232e+08 -3.782481e+08
-9.235894e+10 3.956697e+08 -2.608221e+07
-9.012277e+10 -9.035404e+08 1.791888e+08
-8.912974e+10 2.599974e+08 -1.609488e+08
-9.105334e+10 2.673593e+07 -5.138325e+07
-8.900399e+10 -1.656088e+08 1.917377e+08
6.415029e+09 4.729633e+09 1.397236e+08
-9.032460e+10 6.583013e+08 6.140147e+08
-8.843592e+10 2.365407e+08 9.378102e+06
-9.043349e+10 1.061504e+08 1.004726e+08
-8.896444e+10 2.317283e+08 -5.749137e+07
-9.153547e+10 9.343747e+07 -1.573236e+07
-9.339264e+10 2.859349e+08 -1.453727e+07
-9.379143e+10 -9.725057e+07 1.935337e+08
-8.978471e+10 -2.000437e+08 -4.099456e+07
-8.996949e+10 3.759515e+08 -1.235473e+08
-8.780085e+10 -6.944516e+08 -1.827135e+08
-9.120008e+10 5.214898e+08 1.278561e+08
-9.876927e+10 4.648458e+08 -9.155079e+08
-9.657816e+10 4.348775e+07 8.182628e+07
-9.606260e+10 -3.039704e+08 -7.997217e+07
-9.717296e+10 -1.060510e+07 -3.694768e+08
-9.844193e+10 1.786975e+08 2.096794e+07
-1.050831e+11 5.135933e+08 -4.882512e+08
-1.066973e+11 1.150513e+08 -2.805923e+07
-1.077080e+11 -1.436812e+08 6.218350e+07
-1.045674e+11 -1.198922e+09 2.317232e+08
-1.041881e+11 4.164656e+08 -6.948045e+08
-1.039467e+11 -4.660402e+08 6.105254e+08
-8.942535e+10 -9.369766e+08 -1.049804e+08
-1.042588e+11 6.070936e+08 -3.011518e+08
-1.070208e+11 7.244762e+08 7.594777e+07
-1.097421e+11 -3.242496e+08 -4.193261e+08
-1.091889e+11 9.057348e+08 9.947295e+07
-1.105934e+11 -1.021304e+09 1.022819e+08
-1.082562e+11 6.822932e+08 -6.252510e+08
-1.095402e+11 -1.188208e+09 1.309265e+09
-1.032979e+11 -5.667649e+08 1.169488e+08
-9.897738e+10 -4.140248e+07 1.407101e+08
-9.900860e+10 1.451920e+08 -2.406491e+08
-9.064462e+10 4.322268e+08 -2.010701e+07
-9.574963e+10 -1.035623e+08 7.244314e+07
-9.600911e+10 2.148784e+07 7.584059e+07
-9.833538e+10 -5.226142e+06 1.379339e+07
-9.912101e+10 1.019795e+08 -1.165941e+08
-9.798818e+10 -8.900552e+07 2.599310e+07
-9.060434e+10 -5.196943e+08 1.471232e+08
-9.068800e+10 4.313374e+08 -1.704192e+08
-9.259350e+10 -2.957086e+06 1.909277e+07
-9.560717e+10 1.038089e+08 4.125436e+07
-9.959793e+10 -7.359617e+06 -1.132355e+08
-9.134234e+10 5.281929e+08 1.045901e+08
-9.635495e+10 -1.542988e+08 -3.748475e+07
-9.906245e+10 1.326188e+08 -2.054169e+08
-9.970649e+10 -2.940568e+08 2.130708e+08
-1.017766e+11 -1.332950e+08 3.357752e+08
-1.014823e+11 1.354562e+08 -1.258210e+08
-1.003501e+11 -2.887447e+08 2.442525e+08
-9.990430e+10 1.806116e+08 6.586926e+07
-1.000397e+11 6.853345e+07 3.122619e+07
-1.016458e+11 4.369378e+08 2.124273e+08
-1.013559e+11 -7.232173e+08 1.904055e+08
-9.509298e+10 1.508762e+08 4.851193e+07
-1.029942e+11 1.330210e+09 -5.863939e+08
-1.049933e+11 -8.351288e+08 -2.188731e+08
-1.033405e+11 4.504300e+08 2.820892e+07
-1.045908e+11 -4.693922e+07 -3.558712e+08
-1.061274e+11 4.289451e+08 -3.229419e+08
-1.095455e+11 2.728892e+07 -2.529962e+08
-1.090163e+11 -5.838736e+07 5.879017e+08
-1.039274e+11 -6.652644e+07 6.733283e+08
-1.053314e+11 5.340309e+08 -1.209788e+09
-1.114172e+11 5.240182e+08 8.886421e+07
-9.841552e+10 -1.872593e+08 2.207276e+08
-1.102815e+11 -3.886878e+08 6.190493e+08
-1.081682e+11 -2.500732e+07 4.930818e+08
-1.058647e+11 -3.256881e+08 -1.057086e+08
-1.071523e+11 7.179792e+08 -1.719651e+07
-1.062835e+11 -9.163898e+08 -1.008815e+08
-1.034338e+11 -9.830803e+07 -2.432366e+08
-1.013981e+11 -7.784766e+08 1.184486e+08
-1.003215e+11 5.572736e+08 2.266042e+08
-1.028973e+11 5.516452e+08 -2.984095e+08
-1.026175e+11 -9.818561e+08 5.706901e+07
-9.924781e+10 2.460011e+08 3.339863e+08
-9.672874e+10 -5.523084e+08 3.653693e+08
-9.685303e+10 2.960332e+08 -5.288989e+08
-9.980584e+10 2.663680e+08 1.777941e+08
-9.904414e+10 -6.573752e+08 -4.911186e+08
-9.409071e+10 -1.014625e+09 -9.419329e+08
-9.744000e+10 -8.608636e+08 -5.012470e+08
-9.472631e+10 -1.389200e+09 -3.078784e+08
-8.956840e+10 -1.751469e+09 -4.236293e+08
-8.432168e+10 -1.678703e+09 -6.336590e+08
-8.115985e+10 -1.432119e+09 -3.086207e+08
-9.875948e+10 -2.353278e+08 -5.316290e+08
-7.704850e+10 -1.536440e+09 -4.841235e+08
-7.246914e+10 -1.569226e+09 -2.927733e+08
-6.801984e+10 -1.332376e+09 -2.658046e+08
-6.339948e+10 -1.291499e+09 -3.064428e+08
-5.683675e+10 -2.005813e+09 -6.258251e+08
-5.369377e+10 -1.060765e+09 -6.350391e+08
-5.079688e+10 -1.509180e+09 -5.024863e+08
-4.562120e+10 -1.327173e+09 -4.448025e+08
-4.274227e+10 -8.180631e+08 -2.443370e+08
-3.935880e+10 -1.251138e+09 -3.765099e+08
-9.756995e+10 -1.785995e+08 7.107671e+08
-3.611795e+10 -1.122874e+09 -4.345113e+08
-3.315442e+10 -8.967102e+08 -3.667104e+08
-3.069549e+10 -7.567863e+08 -3.140185e+08
-2.844764e+10 -7.479113e+08 -1.966574e+08
-2.487893e+10 -1.251297e+09 -2.758520e+08
-2.168948e+10 -1.136381e+09 -3.519786e+08
-1.808185e+10 -1.432600e+09 -4.646886e+08
-1.342202e+10 -1.958843e+09 -4.260860e+08
4.738174e+09 4.657359e+09 -6.604038e+07
3.815945e+09 1.498005e+10 1.488746e+08
8.411252e+09 -6.569467e+09 -9.826515e+07
-1.008409e+11 5.004310e+08 -1.499770e+08
2.201539e+09 2.539267e+10 5.858660e+08
2.688222e+09 3.252936e+10 1.397820e+09
2.897936e+09 4.179472e+10 7.617819e+08
3.578785e+09 5.396717e+10 5.095550e+08
2.537439e+09 6.369429e+10 9.140003e+08
2.278723e+09 7.881627e+10 4.220125e+08
2.353491e+09 8.656216e+10 -3.007714e+08
4.493220e+08 9.147255e+10 4.365589e+08
4.482108e+08 9.454067e+10 -2.508985e+08
1.817448e+08 9.354621e+10 -1.482553e+08
-1.023282e+11 7.722576e+08 1.956158e+08
-2.297467e+08 9.300726e+10 1.482410e+08
-6.950705e+07 8.690796e+10 -3.435904e+07
-2.656288e+08 8.884133e+10 4.614500e+07
7.911638e+07 8.731555e+10 2.819824e+07
-8.056321e+07 8.611602e+10 -1.489544e+08
9.046832e+07 8.699496e+10 5.237930e+06
3.481396e+08 8.768465e+10 8.728324e+07
1.308050e+08 9.008022e+10 -1.194980e+08
6.617865e+08 8.931494e+10 2.001886e+08
-1.146054e+08 8.914408e+10 8.271907e+07
-1.079583e+11 1.231739e+09 5.598599e+08
-1.484894e+08 9.235250e+10 4.567799e+07
-3.661964e+08 8.938971e+10 6.460552e+07
-1.230538e+09 9.247197e+10 -5.872662e+08
3.387322e+07 8.740115e+10 5.205376e+07
-8.145947e+07 8.902959e+10 -1.646278e+08
5.965541e+08 9.023432e+10 1.455112e+08
-9.904561e+08 8.801609e+10 1.247478e+08
-9.318973e+08 8.787418e+10 -3.146312e+08
-1.537659e+09 9.047077e+10 -3.101659e+08
2.562150e+08 8.866676e+10 1.472642e+08
-1.123845e+11 -4.381774e+08 1.261923e+08
-3.555451e+08 8.860484e+10 -1.479405e+08
2.808178e+08 9.002071e+10 3.583461e+07
7.492519e+08 8.711005e+10 4.079176e+08
6.461661e+07 8.770452e+10 2.487338e+06
8.775720e+08 8.836949e+10 -1.092627e+08
-3.154684e+08 9.132501e+10 -1.037779e+08
-8.819247e+07 8.898626e+10 1.637774e+08
-2.652236e+08 8.787689e+10 -7.200445e+07
4.574854e+08 8.838514e+10 2.124296e+07
8.170968e+07 9.092022e+10 -3.094322e+07
-1.110661e+11 9.404242e+08 8.275642e+08
1.149532e+08 9.003178e+10 1.900937e+08
-9.257541e+07 9.000616e+10 -1.831635e+08
9.382977e+08 9.528997e+10 1.913016e+08
-5.128918e+08 9.296003e+10 -1.034128e+08
-3.956464e+07 9.241926e+10 -3.571514e+08
3.395144e+08 9.655552e+10 6.134729e+08
-3.120739e+08 9.307684e+10 1.080849e+08
-8.783566e+06 9.183673e+10 -1.550766e+08
-1.127693e+09 9.521900e+10 -8.438200e+08
-1.135544e+09 9.214875e+10 -7.016877e+08
-1.201048e+11 -2.244111e+08 1.559016e+08
-1.075366e+08 9.072707e+10 1.645944e+08
3.236742e+08 9.365720e+10 2.090765e+08
1.044306e+09 9.421699e+10 7.945522e+08
-4.734847e+08 9.112558e+10 -1.696843e+08
-6.766307e+07 8.839799e+10 2.777096e+08
-3.267256e+07 8.932728e+10 -1.758484e+08
-6.065215e+08 9.088241e+10 -2.161346e+07
1.097242e+09 9.352246e+10 2.515531e+07
-6.102777e+08 8.990161e+10 9.798308e+07
1.341874e+09 9.166158e+10 -2.013338e+07
-1.229658e+11 -3.666597e+08 7.500080e+08
-1.364740e+08 9.594755e+10 4.167289e+08
-5.247784e+08 9.210415e+10 1.636568e+08
5.047465e+08 8.905116e+10 -6.166067e+08
-1.582892e+08 9.018224e+10 5.037240e+08
3.569542e+08 8.822023e+10 -6.133910e+08
-3.044574e+08 9.439507e+10 -1.246507e+08
-8.251945e+08 9.165371e+10 1.021056e+08
1.933754e+08 9.109821e+10 -4.823514e+08
-1.562694e+09 9.086944e+10 -6.808736e+08
-1.277349e+09 8.321764e+10 -1.202261e+09
-1.201969e+11 -4.307554e+08 -5.042734e+08
-1.359258e+09 8.466922e+10 -7.973117e+08
-1.921545e+09 8.006429e+10 -4.204938e+08
-1.366893e+09 7.582432e+10 -9.853972e+08
-1.104862e+09 7.401636e+10 -4.988792e+08
-1.463213e+09 7.030704e+10 -4.577004e+08
-1.152364e+09 6.698488e+10 -4.094709e+08
-9.523209e+08 6.432510e+10 -4.679194e+08
-1.106861e+09 6.136285e+10 -2.493768e+08
-1.080785e+09 5.819505e+10 -3.541969e+08
-1.451421e+09 5.460958e+10 -2.169266e+08
-1.187002e+11 -7.400283e+07 4.230000e+07
-1.420779e+09 5.048691e+10 -5.141051e+08
-1.284420e+09 4.698517e+10 -6.661604e+08
-1.151629e+09 4.417189e+10 -3.334106e+08
-1.343976e+09 3.993033e+10 -2.235116e+08
-1.499706e+09 3.520551e+10 -3.190721e+08
-2.209035e+09 2.804908e+10 -3.427743e+08
-3.086924e+09 1.956112e+10 -3.829274e+08
7.503150e+09 -8.619922e+09 -2.592672e+08
-1.224426e+09 -1.259231e+10 3.677332e+08
-1.544764e+09 -1.776702e+10 2.740203e+08
-1.182453e+11 9.206535e+08 -5.464840e+08
-8.391684e+08 -2.194650e+10 2.467562e+08
-7.926485e+08 -2.456764e+10 1.875323e+08
-7.786502e+08 -2.725632e+10 2.806392e+08
-8.687070e+08 -3.028476e+10 2.983214e+08
-1.016969e+09 -3.307258e+10 2.799086e+08
-1.151344e+09 -3.622699e+10 3.674420e+08
-1.012006e+09 -3.934128e+10 3.603655e+08
-1.125358e+09 -4.290710e+10 3.881825e+08
-1.161134e+09 -4.648274e+10 3.172505e+08
-1.569871e+09 -5.061433e+10 4.480432e+08
-1.274884e+11 1.188048e+11 -2.415331e+09
-1.210226e+11 2.387118e+06 8.379972e+08
-1.766584e+09 -5.515093e+10 4.570768e+08
-1.634704e+09 -5.973602e+10 8.072157e+08
-2.031976e+09 -6.507809e+10 3.041011e+08
-1.390607e+09 -7.025880e+10 7.905219e+08
-1.999704e+09 -7.418776e+10 4.482416e+08
-1.823607e+09 -7.983477e+10 3.213717e+08
-1.567052e+09 -8.506121e+10 7.869825e+07
-1.147468e+09 -8.924906e+10 4.386360e+08
-1.306637e+09 -9.306672e+10 3.003037e+08
-7.340766e+08 -9.650462e+10 7.652298e+08
-1.116696e+11 -1.316057e+09 -1.603915e+09
-6.671691e+08 -9.807353e+10 5.280774e+06
2.598849e+08 -9.591254e+10 1.648204e+09
-1.824099e+09 -9.642991e+10 -5.070801e+08
-1.029567e+09 -1.031281e+11 -1.728202e+08
-3.995679e+08 -1.066090e+11 2.238977e+08
6.043583e+08 -1.012305e+11 9.521117e+08
-1.560470e+09 -1.047658e+11 -8.096490e+08
-4.165225e+08 -1.113633e+11 1.295920e+08
1.003422e+09 -1.049103e+11 1.038901e+09
-4.704662e+08 -1.039709e+11 2.992485e+08
-1.089505e+11 6.217087e+08 -4.450141e+08
1.026059e+09 -1.028757e+11 -3.883256e+08
-1.885893e+09 -1.040032e+11 3.766084e+08
-8.400424e+08 -1.086837e+11 -9.158787e+08
5.893263e+08 -1.141643e+11 -4.043998e+08
-9.817854e+08 -1.154065e+11 -2.303643e+07
1.960436e+09 -1.103775e+11 8.126517e+08
-3.006721e+07 -1.071242e+11 -9.859665e+07
-1.316840e+08 -1.063812e+11 6.687895e+08
1.164733e+09 -1.025838e+11 6.809637e+08
6.211102e+07 -9.857560e+10 1.120207e+08
-1.109082e+11 3.963168e+08 6.551237e+07
-3.868508e+07 -9.688875e+10 1.731305e+08
-2.708249e+08 -9.624655e+10 1.231211e+08
-1.576493e+08 -9.657050e+10 1.202640e+08
-3.879943e+08 -9.683030e+10 -2.700598e+08
7.847061e+08 -9.618908e+10 1.302378e+08
-7.198316e+08 -9.309275e+10 -9.609276e+08
9.556652e+08 -9.395965e+10 1.971027e+09
3.129998e+08 -8.937182e+10 -2.502802e+08
-2.601995e+09 -9.343677e+10 -6.956297e+08
3.856371e+08 -9.824001e+10 7.112878e+08
-1.119985e+11 -1.789852e+08 1.367970e+08
2.795996e+07 -9.827589e+10 -5.288243e+07
6.028285e+08 -9.414904e+10 1.064590e+08
2.621794e+08 -9.058385e+10 1.835544e+07
2.145398e+08 -8.932813e+10 6.980791e+07
-3.682605e+08 -8.809387e+10 7.232155e+07
-7.503691e+07 -9.109695e+10 -1.505644e+08
-3.278425e+08 -9.256157e+10 2.709254e+08
6.198196e+07 -9.388910e+10 -6.615849e+08
5.552964e+07 -9.134835e+10 1.124650e+08
5.601525e+08 -9.023395e+10 3.860171e+08
-1.116932e+11 4.812098e+08 -4.463617e+08
-3.721896e+08 -8.946819e+10 -2.581621e+07
5.891558e+08 -8.991549e+10 5.522838e+05
-1.262485e+09 -9.186953e+10 -2.346313e+07
-1.269622e+09 -9.517562e+10 8.788891e+08
7.252240e+08 -9.482509e+10 -2.497188e+08
1.117295e+09 -8.921860e+10 8.041383e+08
-3.186026e+09 -9.059405e+10 -1.294692e+09
-1.806723e+09 -1.055837e+11 6.685909e+08
-7.278262e+08 -1.064714e+11 2.572243e+08
-5.984758e+08 -1.088465e+11 5.615015e+07
-1.125858e+11 -7.326012e+08 7.771454e+08
7.191521e+08 -1.070565e+11 1.242875e+08
2.196081e+08 -1.045721e+11 2.671439e+08
4.052367e+08 -1.056713e+11 -1.105180e+09
3.636413e+09 -9.528433e+10 5.217643e+08
-1.339547e+09 -9.371129e+10 -1.340200e+08
3.208085e+08 -9.950004e+10 7.737381e+07
7.193591e+08 -9.181816e+10 2.169518e+08
4.486486e+08 -9.153870e+10 -2.774464e+08
1.795963e+08 -9.141116e+10 2.601790e+08
-7.669784e+07 -8.941297e+10 -3.468718e+07
-1.121773e+11 1.669250e+08 -2.953817e+08
-1.941932e+08 -8.932911e+10 -1.956758e+08
4.016608e+07 -8.721348e+10 3.789005e+08
-8.978709e+08 -8.818441e+10 -2.999946e+07
3.409724e+08 -8.947094e+10 -2.284655e+07
-3.981248e+08 -9.145974e+10 -4.737121e+07
-2.314158e+08 -9.143699e+10 -1.845905e+08
-9.575182e+08 -9.492615e+10 7.830444e+07
3.056727e+08 -9.716198e+10 1.845260e+07
1.659327e+08 -8.928217e+10 1.832499e+08
3.697742e+08 -8.886743e+10 1.434054e+08
-1.105869e+11 -1.121860e+09 -2.533097e+08
2.257660e+07 -8.607605e+10 -4.450718e+07
1.639588e+08 -8.654592e+10 3.407921e+07
-6.726408e+07 -8.682477e+10 -5.258944e+07
-5.250903e+07 -8.625606e+10 1.158797e+08
-1.085150e+08 -8.802434e+10 -5.305898e+07
3.455859e+08 -8.839348e+10 5.142941e+07
-4.380121e+08 -8.722700e+10 3.215538e+07
5.226740e+08 -9.089631e+10 4.712977e+07
6.115539e+08 -8.845988e+10 -4.933072e+08
1.278833e+09 -8.876314e+10 -4.000556e+08
-1.079017e+11 3.621245e+08 5.899052e+07
2.431130e+09 -7.969791e+10 -4.628614e+08
4.931365e+09 -6.178123e+10 -1.785973e+08
4.006719e+09 -4.602611e+10 -1.189871e+09
3.301937e+09 -3.158265e+10 -4.455845e+08
4.309076e+09 -1.775852e+10 -2.324875e+08
2.034652e+10 -3.919326e+09 5.712705e+08
3.480155e+10 -3.114760e+09 -6.697152e+07
4.677669e+10 -3.188623e+09 1.318014e+09
5.921279e+10 -4.593121e+09 1.916707e+08
7.782295e+10 -2.337472e+09 3.796002e+08
-1.960575e+11 -2.130129e+11 -3.187311e+09
-1.097522e+11 8.407009e+08 5.852077e+08
8.991611e+10 -1.281324e+09 1.884894e+08
9.200789e+10 -3.393142e+08 -8.430832e+06
9.062166e+10 3.835990e+08 4.096967e+08
8.720770e+10 1.049214e+08 -6.640873e+07
8.990544e+10 -7.202414e+08 5.799788e+06
8.788123e+10 -7.809055e+07 1.124365e+08
8.784153e+10 1.934167e+08 -4.586345e+07
8.842988e+10 1.587887e+08 6.544448e+07
8.766280e+10 -1.014700e+08 -8.134025e+07
8.856464e+10 -9.982578e+07 -1.083771e+07
-1.062443e+11 -1.437287e+09 -1.596038e+09
9.015236e+10 2.669531e+07 1.656453e+08
8.913731e+10 -1.083622e+08 2.797199e+07
9.027945e+10 -3.693246e+08 2.994710e+07
8.983315e+10 -4.563917e+07 2.024461e+07
9.082420e+10 -3.785339e+08 -6.983003e+07
9.241725e+10 7.285890e+08 2.994273e+08
9.226381e+10 1.145394e+08 -2.872040e+08
9.050481e+10 1.829968e+07 -3.010772e+08
8.981328e+10 -2.051206e+08 -2.368703e+08
9.706755e+10 -1.063680e+08 1.888414e+07
-1.023451e+11 -2.977475e+08 3.462889e+08
9.987092e+10 1.222691e+08 1.051313e+08
9.487100e+10 6.177556e+07 -1.135232e+08
9.152759e+10 4.868149e+08 2.500930e+07
9.662305e+10 -1.879462e+08 -6.580578e+07
8.917303e+10 7.338965e+08 -1.558043e+08
8.987081e+10 2.317406e+08 2.765502e+08
9.042860e+10 -3.651109e+08 -1.648162e+08
9.228958e+10 -4.539343e+08 2.157061e+07
9.047398e+10 -5.901968e+08 1.179153e+08
9.275569e+10 6.534813e+08 -1.165410e+08
-1.002810e+11 -3.756734e+08 -5.216248e+08
9.189395e+10 5.815500e+08 3.343276e+08
9.054359e+10 7.948213e+06 -3.535307e+07
9.217772e+10 -6.182923e+08 -3.633323e+08
9.201331e+10 5.179390e+08 2.755851e+08
9.140469e+10 -5.517932e+08 -1.070586e+08
9.241227e+10 8.699736e+08 -1.689888e+08
9.215041e+10 -4.170153e+08 -7.553634e+07
9.536577e+10 -8.280014e+08 -4.783024e+07
9.213099e+10 -2.576280e+07 1.604489e+07
9.100213e+10 6.706180e+07 1.125354e+08
-9.943725e+10 8.101235e+07 -3.368840e+07