# vtk DataFile Version 2.0
Electric current density generated by TTH
ASCII
DATASET UNSTRUCTURED_GRID
POINTS 5148 double
-5.000000e-05 -5.000000e-05 -2.000000e-07
5.000000e-05 -5.000000e-05 2.000000e-07
7.383921e-07 -5.000000e-05 -2.000000e-07
-4.900000e-05 2.949546e-05 -2.000000e-07
-4.900000e-05 2.837958e-05 -2.000000e-07
-4.900000e-05 2.724549e-05 -2.000000e-07
-4.900000e-05 2.573589e-05 -2.000000e-07
-4.900000e-05 2.391962e-05 -2.000000e-07
-4.900000e-05 2.257449e-05 -2.000000e-07
-4.900000e-05 2.161778e-05 -2.000000e-07
-4.900000e-05 2.093083e-05 -2.000000e-07
-4.900000e-05 2.016294e-05 -2.000000e-07
-4.900000e-05 1.910322e-05 -2.000000e-07
1.004960e-06 -5.000000e-05 -2.000000e-07
-4.900000e-05 1.817554e-05 -2.000000e-07
-4.900000e-05 1.750893e-05 -2.000000e-07
-4.900000e-05 1.676089e-05 -2.000000e-07
-4.900000e-05 1.570915e-05 -2.000000e-07
-4.900000e-05 1.423038e-05 -2.000000e-07
-4.900000e-05 1.270186e-05 -2.000000e-07
-4.900000e-05 1.158601e-05 -2.000000e-07
-4.900000e-05 1.026558e-05 -2.000000e-07
-4.900000e-05 8.535218e-06 -2.000000e-07
-4.900000e-05 7.162380e-06 -2.000000e-07
1.353199e-06 -5.000000e-05 -2.000000e-07
-4.900000e-05 6.185972e-06 -2.000000e-07
-4.900000e-05 5.491518e-06 -2.000000e-07
-4.900000e-05 4.904354e-06 -2.000000e-07
-4.900000e-05 4.099090e-06 -2.000000e-07
-4.900000e-05 2.966885e-06 -2.000000e-07
-4.900000e-05 1.374998e-06 -2.000000e-07
-4.900000e-05 -8.291033e-07 -2.000000e-07
-4.900000e-05 -2.842243e-06 -2.000000e-07
-4.900000e-05 -4.274058e-06 -2.000000e-07
-4.900000e-05 -5.362355e-06 -2.000000e-07
1.694557e-06 -5.000000e-05 -2.000000e-07
-4.900000e-05 -6.749214e-06 -2.000000e-07
-4.900000e-05 -8.699147e-06 -2.000000e-07
-4.900000e-05 -1.082172e-05 -2.000000e-07
-4.900000e-05 -1.234198e-05 -2.000000e-07
-4.900000e-05 -1.342324e-05 -2.000000e-07
-4.900000e-05 -1.425556e-05 -2.000000e-07
-4.900000e-05 -1.524324e-05 -2.000000e-07
-4.900000e-05 -1.648679e-05 -2.000000e-07
-4.900000e-05 -1.802601e-05 -2.000000e-07
-4.900000e-05 -1.981200e-05 -2.000000e-07
2.118695e-06 -5.000000e-05 -2.000000e-07
-4.900000e-05 -2.166593e-05 -2.000000e-07
-4.900000e-05 -2.303159e-05 -2.000000e-07
-4.900000e-05 -2.400911e-05 -2.000000e-07
-4.900000e-05 -2.498258e-05 -2.000000e-07
-4.900000e-05 -2.635125e-05 -2.000000e-07
-4.900000e-05 -2.827560e-05 -2.000000e-07
-4.900000e-05 -3.098125e-05 -2.000000e-07
-4.900000e-05 -3.473382e-05 -2.000000e-07
-4.900000e-05 -3.866818e-05 -2.000000e-07
-4.900000e-05 -4.177938e-05 -2.000000e-07
2.707430e-06 -5.000000e-05 -2.000000e-07
-4.900000e-05 -4.407587e-05 -2.000000e-07
-4.900000e-05 -4.570921e-05 -2.000000e-07
-4.900000e-05 -4.687090e-05 -2.000000e-07
-4.900000e-05 -4.769714e-05 -2.000000e-07
-4.900000e-05 -4.828478e-05 -2.000000e-07
-4.900000e-05 -4.870274e-05 -2.000000e-07
-5.000000e-05 -5.000000e-05 -8.901455e-08
-5.000000e-05 -5.000000e-05 1.078976e-08
-5.000000e-05 -5.000000e-05 1.005485e-07
5.000000e-05 -5.000000e-05 -1.458929e-07
3.237269e-06 -5.000000e-05 -2.000000e-07
5.000000e-05 -5.000000e-05 -9.125740e-08
5.000000e-05 -5.000000e-05 -3.608818e-08
-4.985102e-05 -5.000000e-05 2.000000e-07
-4.981675e-05 -5.000000e-05 2.000000e-07
-4.978035e-05 -5.000000e-05 2.000000e-07
-4.974170e-05 -5.000000e-05 2.000000e-07
-4.970065e-05 -5.000000e-05 2.000000e-07
-4.965740e-05 -5.000000e-05 2.000000e-07
-4.961264e-05 -5.000000e-05 2.000000e-07
-4.956637e-05 -5.000000e-05 2.000000e-07
3.696902e-06 -5.000000e-05 -2.000000e-07
-4.951854e-05 -5.000000e-05 2.000000e-07
-4.946909e-05 -5.000000e-05 2.000000e-07
-4.941685e-05 -5.000000e-05 2.000000e-07
-4.936041e-05 -5.000000e-05 2.000000e-07
-4.929940e-05 -5.000000e-05 2.000000e-07
-4.923347e-05 -5.000000e-05 2.000000e-07
-4.916132e-05 -5.000000e-05 2.000000e-07
-4.906594e-05 -5.000000e-05 2.000000e-07
-4.893196e-05 -5.000000e-05 2.000000e-07
-4.874379e-05 -5.000000e-05 2.000000e-07
4.328413e-06 -5.000000e-05 -2.000000e-07
-4.847947e-05 -5.000000e-05 2.000000e-07
-4.810822e-05 -5.000000e-05 2.000000e-07
-4.758677e-05 -5.000000e-05 2.000000e-07
-4.685436e-05 -5.000000e-05 2.000000e-07
-4.582562e-05 -5.000000e-05 2.000000e-07
-4.438066e-05 -5.000000e-05 2.000000e-07
-4.237592e-05 -5.000000e-05 2.000000e-07
-4.054741e-05 -5.000000e-05 2.000000e-07
-3.893629e-05 -5.000000e-05 2.000000e-07
-3.722336e-05 -5.000000e-05 2.000000e-07
5.213077e-06 -5.000000e-05 -2.000000e-07
-3.483548e-05 -5.000000e-05 2.000000e-07
-3.247880e-05 -5.000000e-05 2.000000e-07
-3.077935e-05 -5.000000e-05 2.000000e-07
-2.892668e-05 -5.000000e-05 2.000000e-07
-2.648557e-05 -5.000000e-05 2.000000e-07
-2.346087e-05 -5.000000e-05 2.000000e-07
-2.022279e-05 -5.000000e-05 2.000000e-07
-1.682785e-05 -5.000000e-05 2.000000e-07
-1.347736e-05 -5.000000e-05 2.000000e-07
-1.019436e-05 -5.000000e-05 2.000000e-07
-5.000000e-05 5.000000e-05 2.000000e-07
6.223252e-06 -5.000000e-05 -2.000000e-07
-7.114526e-06 -5.000000e-05 2.000000e-07
-4.460140e-06 -5.000000e-05 2.000000e-07
-2.177297e-06 -5.000000e-05 2.000000e-07
-3.812478e-09 -5.000000e-05 2.000000e-07
2.380707e-06 -5.000000e-05 2.000000e-07
4.828030e-06 -5.000000e-05 2.000000e-07
6.700566e-06 -5.000000e-05 2.000000e-07
8.099572e-06 -5.000000e-05 2.000000e-07
9.205073e-06 -5.000000e-05 2.000000e-07
1.008445e-05 -5.000000e-05 2.000000e-07
7.394509e-06 -5.000000e-05 -2.000000e-07
1.087877e-05 -5.000000e-05 2.000000e-07
1.168284e-05 -5.000000e-05 2.000000e-07
1.244460e-05 -5.000000e-05 2.000000e-07
1.300189e-05 -5.000000e-05 2.000000e-07
1.339866e-05 -5.000000e-05 2.000000e-07
1.372812e-05 -5.000000e-05 2.000000e-07
1.406062e-05 -5.000000e-05 2.000000e-07
1.439632e-05 -5.000000e-05 2.000000e-07
1.473110e-05 -5.000000e-05 2.000000e-07
1.505354e-05 -5.000000e-05 2.000000e-07
8.393149e-06 -5.000000e-05 -2.000000e-07
1.536342e-05 -5.000000e-05 2.000000e-07
1.566122e-05 -5.000000e-05 2.000000e-07
1.594923e-05 -5.000000e-05 2.000000e-07
1.627840e-05 -5.000000e-05 2.000000e-07
1.668253e-05 -5.000000e-05 2.000000e-07
1.717871e-05 -5.000000e-05 2.000000e-07
1.778788e-05 -5.000000e-05 2.000000e-07
1.858690e-05 -5.000000e-05 2.000000e-07
1.970913e-05 -5.000000e-05 2.000000e-07
2.127965e-05 -5.000000e-05 2.000000e-07
9.146538e-06 -5.000000e-05 -2.000000e-07
2.285494e-05 -5.000000e-05 2.000000e-07
2.412399e-05 -5.000000e-05 2.000000e-07
2.538594e-05 -5.000000e-05 2.000000e-07
2.701217e-05 -5.000000e-05 2.000000e-07
2.906041e-05 -5.000000e-05 2.000000e-07
3.097780e-05 -5.000000e-05 2.000000e-07
3.263752e-05 -5.000000e-05 2.000000e-07
3.420775e-05 -5.000000e-05 2.000000e-07
3.564802e-05 -5.000000e-05 2.000000e-07
3.671504e-05 -5.000000e-05 2.000000e-07
9.880031e-06 -5.000000e-05 -2.000000e-07
3.748636e-05 -5.000000e-05 2.000000e-07
3.815034e-05 -5.000000e-05 2.000000e-07
3.877857e-05 -5.000000e-05 2.000000e-07
3.936881e-05 -5.000000e-05 2.000000e-07
3.988757e-05 -5.000000e-05 2.000000e-07
4.033586e-05 -5.000000e-05 2.000000e-07
4.072532e-05 -5.000000e-05 2.000000e-07
4.106721e-05 -5.000000e-05 2.000000e-07
4.136804e-05 -5.000000e-05 2.000000e-07
4.165209e-05 -5.000000e-05 2.000000e-07
1.060640e-05 -5.000000e-05 -2.000000e-07
4.192978e-05 -5.000000e-05 2.000000e-07
4.219518e-05 -5.000000e-05 2.000000e-07
4.244104e-05 -5.000000e-05 2.000000e-07
4.268591e-05 -5.000000e-05 2.000000e-07
4.294375e-05 -5.000000e-05 2.000000e-07
4.321576e-05 -5.000000e-05 2.000000e-07
4.350273e-05 -5.000000e-05 2.000000e-07
4.380343e-05 -5.000000e-05 2.000000e-07
4.410763e-05 -5.000000e-05 2.000000e-07
4.438152e-05 -5.000000e-05 2.000000e-07
1.118171e-05 -5.000000e-05 -2.000000e-07
4.463359e-05 -5.000000e-05 2.000000e-07
4.489404e-05 -5.000000e-05 2.000000e-07
4.516699e-05 -5.000000e-05 2.000000e-07
4.546661e-05 -5.000000e-05 2.000000e-07
4.579949e-05 -5.000000e-05 2.000000e-07
4.616475e-05 -5.000000e-05 2.000000e-07
4.655756e-05 -5.000000e-05 2.000000e-07
4.692383e-05 -5.000000e-05 2.000000e-07
4.725720e-05 -5.000000e-05 2.000000e-07
4.762373e-05 -5.000000e-05 2.000000e-07
1.159038e-05 -5.000000e-05 -2.000000e-07
4.796275e-05 -5.000000e-05 2.000000e-07
4.820413e-05 -5.000000e-05 2.000000e-07
4.838179e-05 -5.000000e-05 2.000000e-07
4.852990e-05 -5.000000e-05 2.000000e-07
4.865941e-05 -5.000000e-05 2.000000e-07
4.880707e-05 -5.000000e-05 2.000000e-07
4.896049e-05 -5.000000e-05 2.000000e-07
4.908200e-05 -5.000000e-05 2.000000e-07
4.917309e-05 -5.000000e-05 2.000000e-07
4.924891e-05 -5.000000e-05 2.000000e-07
1.191353e-05 -5.000000e-05 -2.000000e-07
4.932411e-05 -5.000000e-05 2.000000e-07
4.939707e-05 -5.000000e-05 2.000000e-07
4.946440e-05 -5.000000e-05 2.000000e-07
4.952621e-05 -5.000000e-05 2.000000e-07
4.958219e-05 -5.000000e-05 2.000000e-07
4.963282e-05 -5.000000e-05 2.000000e-07
4.967794e-05 -5.000000e-05 2.000000e-07
4.971774e-05 -5.000000e-05 2.000000e-07
4.975284e-05 -5.000000e-05 2.000000e-07
4.978417e-05 -5.000000e-05 2.000000e-07
1.232544e-05 -5.000000e-05 -2.000000e-07
4.981285e-05 -5.000000e-05 2.000000e-07
4.983914e-05 -5.000000e-05 2.000000e-07
4.986323e-05 -5.000000e-05 2.000000e-07
4.988534e-05 -5.000000e-05 2.000000e-07
4.991154e-05 -5.000000e-05 2.000000e-07
4.994833e-05 -5.000000e-05 2.000000e-07
-5.000000e-05 5.000000e-05 5.772772e-08
-5.000000e-05 4.993233e-05 2.000000e-07
-5.000000e-05 4.984529e-05 2.000000e-07
-5.000000e-05 4.973336e-05 2.000000e-07
5.000000e-05 5.000000e-05 2.000000e-07
1.269364e-05 -5.000000e-05 -2.000000e-07
-5.000000e-05 4.958940e-05 2.000000e-07
-5.000000e-05 4.940425e-05 2.000000e-07
-5.000000e-05 4.916613e-05 2.000000e-07
-5.000000e-05 4.885989e-05 2.000000e-07
-5.000000e-05 4.846603e-05 2.000000e-07
-5.000000e-05 4.795949e-05 2.000000e-07
-5.000000e-05 4.730803e-05 2.000000e-07
-5.000000e-05 4.647018e-05 2.000000e-07
-5.000000e-05 4.539262e-05 2.000000e-07
-5.000000e-05 4.400677e-05 2.000000e-07
1.295654e-05 -5.000000e-05 -2.000000e-07
-5.000000e-05 4.222443e-05 2.000000e-07
-5.000000e-05 3.993767e-05 2.000000e-07
-5.000000e-05 3.715028e-05 2.000000e-07
-5.000000e-05 3.381985e-05 2.000000e-07
-5.000000e-05 2.994397e-05 2.000000e-07
-5.000000e-05 2.603662e-05 2.000000e-07
-5.000000e-05 2.219013e-05 2.000000e-07
[...]
POINT_DATA 5148
VECTORS 10.000GHz_fone_imag double
-1.162200e-03 -1.161745e-03 4.038450e-03
-1.154304e-03 1.155624e-03 4.016257e-03
-8.687547e-05 -1.038980e-02 1.382836e-02
-1.043510e-02 1.334003e-04 -1.445645e-02
-1.041261e-02 -6.257767e-05 -1.416186e-02
-1.041496e-02 5.940935e-05 -1.432684e-02
-1.032969e-02 -1.894612e-04 -1.410098e-02
-1.026470e-02 1.103960e-04 -1.417922e-02
-1.036693e-02 -1.823440e-04 -1.422993e-02
-1.056667e-02 -5.278730e-06 -1.414910e-02
-1.046644e-02 1.239308e-04 -1.402189e-02
-1.017912e-02 6.639202e-05 -1.409378e-02
-1.039075e-02 8.864785e-05 -1.429936e-02
-2.092590e-05 -1.038374e-02 1.368433e-02
-1.022244e-02 -7.355101e-05 -1.430731e-02
-1.024387e-02 -3.573699e-05 -1.431090e-02
-1.030908e-02 -5.634514e-05 -1.406142e-02
-1.025477e-02 7.326190e-05 -1.406688e-02
-1.038974e-02 -6.453794e-06 -1.413198e-02
-1.055335e-02 4.431265e-05 -1.410780e-02
-1.022588e-02 5.706327e-06 -1.415693e-02
-1.034831e-02 2.170475e-05 -1.413404e-02
-1.048195e-02 -9.369706e-05 -1.406978e-02
-1.060125e-02 6.583679e-05 -1.404356e-02
1.241830e-04 -1.037756e-02 1.370032e-02
-1.060866e-02 -4.097588e-05 -1.423872e-02
-1.062754e-02 -2.714855e-05 -1.400910e-02
-1.068762e-02 1.146529e-06 -1.396829e-02
-1.045533e-02 5.336879e-05 -1.389315e-02
-1.037443e-02 -9.497705e-05 -1.405495e-02
-1.053570e-02 5.890322e-05 -1.405850e-02
-1.040383e-02 1.553425e-04 -1.402006e-02
-1.026733e-02 -8.356283e-05 -1.407438e-02
-1.057950e-02 1.738560e-05 -1.424057e-02
-1.059428e-02 -6.163292e-05 -1.400519e-02
5.068240e-05 -1.026843e-02 1.390048e-02
-1.036258e-02 1.072108e-04 -1.411577e-02
-1.034447e-02 -2.658330e-05 -1.413930e-02
-1.044757e-02 3.544081e-05 -1.432483e-02
-1.015829e-02 -1.460920e-05 -1.408176e-02
-1.029747e-02 -4.088847e-05 -1.418023e-02
-1.030605e-02 4.237163e-05 -1.406307e-02
-1.025965e-02 -7.854894e-05 -1.410677e-02
-1.031709e-02 2.165356e-06 -1.425973e-02
-1.017118e-02 9.129023e-05 -1.412214e-02
-1.006481e-02 -1.305266e-04 -1.400480e-02
5.151640e-05 -1.033718e-02 1.390258e-02
-1.020376e-02 6.014638e-05 -1.415527e-02
-1.011171e-02 4.728429e-05 -1.411410e-02
-9.993427e-03 -2.908465e-05 -1.411306e-02
-1.019064e-02 -9.717713e-05 -1.414691e-02
-1.025161e-02 7.355474e-05 -1.415316e-02
-1.007404e-02 -1.030345e-05 -1.427128e-02
-1.068084e-02 1.758996e-05 -1.410474e-02
-1.030929e-02 -2.492962e-05 -1.420567e-02
-1.018539e-02 -1.440280e-04 -1.424323e-02
-1.028786e-02 -1.302816e-04 -1.434662e-02
-1.006261e-05 -1.013003e-02 1.382976e-02
-1.044107e-02 -6.597149e-05 -1.469643e-02
-1.065203e-02 -2.164206e-04 -1.516472e-02
-1.112938e-02 -2.131693e-04 -1.580783e-02
-1.137917e-02 -5.404178e-04 -1.690439e-02
-1.198446e-02 -1.188824e-03 -1.863427e-02
-1.276620e-02 -3.237534e-03 -2.169929e-02
-5.414561e-04 -5.404782e-04 4.475504e-03
6.555975e-05 6.565473e-05 4.560462e-03
6.084799e-04 6.061071e-04 4.441795e-03
8.680699e-04 -8.693505e-04 4.287888e-03
-1.431447e-04 -1.033775e-02 1.366681e-02
5.512712e-04 -5.486397e-04 4.445567e-03
2.217531e-04 -2.195593e-04 4.536772e-03
1.412894e-03 2.219361e-03 4.664620e-03
1.436545e-03 2.473675e-03 4.832372e-03
1.454274e-03 2.734430e-03 5.007181e-03
1.465198e-03 3.007875e-03 5.195352e-03
1.472129e-03 3.285091e-03 5.396657e-03
1.473769e-03 3.578503e-03 5.612180e-03
1.471286e-03 3.875179e-03 5.838420e-03
1.466389e-03 4.177240e-03 6.074285e-03
1.922856e-05 -1.044656e-02 1.375184e-02
1.457289e-03 4.483861e-03 6.314124e-03
1.445080e-03 4.788359e-03 6.566025e-03
1.427468e-03 5.110033e-03 6.833109e-03
1.409484e-03 5.447146e-03 7.115033e-03
1.382862e-03 5.807591e-03 7.420765e-03
1.346599e-03 6.180259e-03 7.736209e-03
1.300685e-03 6.567170e-03 8.066537e-03
1.215566e-03 7.041006e-03 8.484820e-03
1.098523e-03 7.606788e-03 9.014745e-03
9.099147e-04 8.242600e-03 9.676098e-03
1.592308e-04 -1.010688e-02 1.373317e-02
6.723934e-04 8.906888e-03 1.042066e-02
4.137179e-04 9.419739e-03 1.113831e-02
2.417989e-04 9.758805e-03 1.185081e-02
1.191947e-04 1.016049e-02 1.243122e-02
4.277860e-05 9.809348e-03 1.275321e-02
1.012856e-04 9.788946e-03 1.318487e-02
1.960194e-05 1.001285e-02 1.342922e-02
-1.192337e-04 1.033015e-02 1.337054e-02
-2.512927e-05 9.971795e-03 1.362362e-02
6.593791e-05 1.017857e-02 1.345641e-02
-1.093766e-04 -1.051116e-02 1.394433e-02
5.625576e-05 1.017616e-02 1.367830e-02
-6.419918e-06 1.031308e-02 1.369836e-02
-1.966472e-05 1.022025e-02 1.364541e-02
-8.863263e-05 9.919976e-03 1.380645e-02
4.199691e-05 9.736413e-03 1.376662e-02
1.970784e-04 1.006136e-02 1.362872e-02
1.104945e-04 1.036702e-02 1.346111e-02
1.336398e-04 1.024157e-02 1.359770e-02
1.821171e-04 1.008910e-02 1.365097e-02
5.338273e-06 9.996326e-03 1.381187e-02
1.152342e-03 -1.156557e-03 4.019740e-03
1.964699e-04 -1.015654e-02 1.364262e-02
3.831537e-06 9.862204e-03 1.375488e-02
-1.780122e-05 1.002654e-02 1.382472e-02
6.702138e-05 1.039127e-02 1.348963e-02
6.034779e-05 1.048332e-02 1.361732e-02
-7.480142e-05 1.028336e-02 1.348680e-02
1.552862e-04 1.031469e-02 1.347013e-02
6.863150e-05 1.008695e-02 1.366647e-02
-1.352298e-04 1.026542e-02 1.376179e-02
3.421653e-05 1.040756e-02 1.381792e-02
6.343590e-05 1.056098e-02 1.376440e-02
-1.682619e-04 -1.041770e-02 1.364795e-02
1.164773e-05 1.056768e-02 1.373159e-02
2.880131e-05 1.060044e-02 1.379271e-02
5.391258e-05 1.069317e-02 1.387847e-02
3.702201e-05 1.077005e-02 1.386921e-02
1.494025e-05 1.079193e-02 1.389957e-02
-3.851905e-05 1.072518e-02 1.383081e-02
-7.049881e-06 1.072433e-02 1.382890e-02
-1.007321e-05 1.071776e-02 1.382751e-02
1.432042e-05 1.072817e-02 1.382079e-02
2.704896e-05 1.075534e-02 1.388611e-02
-1.425800e-04 -1.028763e-02 1.374768e-02
-1.663490e-05 1.079733e-02 1.393019e-02
5.314412e-05 1.081595e-02 1.390203e-02
-3.607434e-05 1.083538e-02 1.392041e-02
-1.065338e-05 1.083248e-02 1.389894e-02
-1.893599e-05 1.082727e-02 1.396306e-02
-5.101667e-05 1.064842e-02 1.384954e-02
4.150553e-06 1.062344e-02 1.378672e-02
1.451756e-05 1.061415e-02 1.370530e-02
-1.411572e-05 1.056958e-02 1.367316e-02
-1.159589e-05 1.057117e-02 1.365454e-02
1.148945e-05 -1.040801e-02 1.385853e-02
1.802678e-05 1.057600e-02 1.369170e-02
1.455933e-05 1.061339e-02 1.363215e-02
-5.894039e-06 1.055456e-02 1.364412e-02
1.648450e-05 1.036704e-02 1.344088e-02
6.654910e-05 1.034904e-02 1.348738e-02
-1.809962e-05 1.043595e-02 1.354326e-02
4.614612e-05 1.047921e-02 1.355469e-02
-2.292084e-05 1.056389e-02 1.358785e-02
-2.862557e-05 1.045147e-02 1.361884e-02
-9.962180e-06 1.053153e-02 1.358486e-02
2.567675e-05 -1.058688e-02 1.382857e-02
-2.335021e-05 1.062483e-02 1.333591e-02
-3.063622e-05 1.055033e-02 1.328890e-02
-2.996749e-05 1.057474e-02 1.355199e-02
-4.851170e-05 1.056923e-02 1.354474e-02
-8.243386e-06 1.052003e-02 1.353218e-02
-1.548073e-05 1.056304e-02 1.350572e-02
1.469477e-06 1.057958e-02 1.350989e-02
-3.182464e-05 1.057719e-02 1.347000e-02
1.715564e-05 1.061300e-02 1.346136e-02
-1.564676e-05 1.060515e-02 1.346282e-02
4.506727e-05 -1.060037e-02 1.385094e-02
2.560572e-05 1.060873e-02 1.340187e-02
-2.374127e-06 1.061104e-02 1.340746e-02
-2.429254e-05 1.061264e-02 1.343899e-02
-1.884136e-05 1.067496e-02 1.354168e-02
-3.091756e-05 1.065859e-02 1.352048e-02
-8.560934e-06 1.064266e-02 1.334838e-02
-3.217473e-05 1.062935e-02 1.336635e-02
-1.536033e-05 1.069016e-02 1.345570e-02
-1.314919e-05 1.068514e-02 1.338734e-02
-4.363638e-05 1.062566e-02 1.330959e-02
-7.387052e-05 -1.057013e-02 1.379898e-02
-5.748536e-05 1.058491e-02 1.323423e-02
-2.012461e-05 1.058154e-02 1.319692e-02
-7.077875e-05 1.055924e-02 1.311683e-02
-6.776445e-05 1.047014e-02 1.306096e-02
-9.642281e-05 1.041121e-02 1.296318e-02
-4.102763e-05 1.033551e-02 1.281639e-02
-9.200197e-05 1.035176e-02 1.265915e-02
-1.548540e-04 1.023681e-02 1.246060e-02
-1.991978e-04 1.005376e-02 1.197115e-02
-2.693921e-04 9.936220e-03 1.181272e-02
2.359760e-05 -1.058465e-02 1.383332e-02
-3.546190e-04 9.779563e-03 1.146646e-02
-5.382825e-04 9.518117e-03 1.107093e-02
-6.656322e-04 9.182319e-03 1.071770e-02
-7.569295e-04 8.908583e-03 1.039389e-02
-8.720583e-04 8.567208e-03 1.001059e-02
-1.004228e-03 8.064843e-03 9.505045e-03
-1.144153e-03 7.463023e-03 8.903748e-03
-1.236030e-03 6.903340e-03 8.396586e-03
-1.299251e-03 6.442105e-03 7.982404e-03
-1.342592e-03 6.031435e-03 7.619309e-03
-7.772286e-05 -1.063800e-02 1.384555e-02
-1.376406e-03 5.604939e-03 7.260226e-03
-1.407139e-03 5.183612e-03 6.892451e-03
-1.436324e-03 4.773983e-03 6.547914e-03
-1.444061e-03 4.391672e-03 6.243729e-03
-1.455239e-03 4.041162e-03 5.966329e-03
-1.458790e-03 3.710169e-03 5.711812e-03
-1.456755e-03 3.413212e-03 5.487360e-03
-1.455012e-03 3.147796e-03 5.293247e-03
-1.448097e-03 2.907222e-03 5.122743e-03
-1.438495e-03 2.688832e-03 4.972725e-03
-2.407135e-05 -1.073215e-02 1.385660e-02
-1.425827e-03 2.485693e-03 4.837393e-03
-1.410676e-03 2.296531e-03 4.715618e-03
-1.392301e-03 2.120124e-03 4.604513e-03
-1.370746e-03 1.957786e-03 4.504009e-03
-1.339229e-03 1.765361e-03 4.388212e-03
-1.276318e-03 1.498713e-03 4.232565e-03
3.516297e-04 -3.535985e-04 4.516018e-03
1.610276e-03 -1.313177e-03 4.296303e-03
2.246893e-03 -1.411434e-03 4.684897e-03
3.021519e-03 -1.464015e-03 5.189748e-03
-1.166229e-03 -1.170835e-03 4.013787e-03
1.569608e-06 -1.082582e-02 1.392522e-02
3.945901e-03 -1.470226e-03 5.873201e-03
5.071973e-03 -1.439056e-03 6.782025e-03
6.388218e-03 -1.319969e-03 7.860549e-03
7.780317e-03 -1.034014e-03 9.162636e-03
8.927938e-03 -6.942696e-04 1.036872e-02
9.632582e-03 -3.845420e-04 1.136828e-02
1.003189e-02 -2.134999e-04 1.208974e-02
1.018110e-02 -1.307087e-04 1.259358e-02
1.026522e-02 -3.325668e-05 1.288639e-02
1.035461e-02 -2.236818e-05 1.287612e-02
1.276900e-05 -1.087809e-02 1.403986e-02
1.000241e-02 -1.753271e-05 1.333214e-02
1.026165e-02 -6.360373e-05 1.333934e-02
1.015046e-02 1.464913e-04 1.332998e-02
9.851514e-03 -1.029366e-04 1.348323e-02
9.873377e-03 -1.820962e-04 1.346840e-02
1.029887e-02 8.931237e-06 1.348808e-02
9.854980e-03 1.475384e-04 1.372886e-02
1.042313e-02 6.948100e-05 1.339583e-02
1.029767e-02 -5.319226e-05 1.379615e-02
9.943685e-03 -3.725516e-05 1.376592e-02
-2.753118e-05 -1.088708e-02 1.398633e-02
1.026881e-02 5.436213e-05 1.383040e-02
1.008663e-02 -4.138328e-05 1.372790e-02
1.011306e-02 6.721210e-05 1.371924e-02
9.961330e-03 9.626621e-06 1.379919e-02
9.881798e-03 -3.104244e-05 1.369734e-02
9.844085e-03 -1.502000e-05 1.373005e-02
9.901425e-03 -1.178682e-05 1.380948e-02
1.000300e-02 -3.394031e-05 1.380995e-02
9.969301e-03 2.762685e-05 1.372996e-02
9.886893e-03 -1.904315e-05 1.379163e-02
1.414246e-05 -1.098727e-02 1.414945e-02
1.008809e-02 -1.061818e-04 1.368053e-02
1.018201e-02 7.078454e-05 1.375679e-02
1.006023e-02 5.080141e-05 1.373439e-02
1.007666e-02 7.057811e-06 1.383954e-02
1.019566e-02 -6.940453e-05 1.375142e-02
1.015121e-02 3.733675e-05 1.375055e-02
1.002699e-02 1.007111e-05 1.367960e-02
1.019307e-02 2.695558e-05 1.379690e-02
1.017275e-02 1.104997e-05 1.373510e-02
1.018866e-02 -1.463810e-05 1.374141e-02
2.322772e-05 -1.100660e-02 1.420917e-02
1.067933e-02 -7.272318e-05 1.371689e-02
1.012811e-02 6.826254e-05 1.370251e-02
1.046505e-02 -3.109412e-05 1.357957e-02
1.047873e-02 -8.262405e-06 1.378707e-02
1.013008e-02 1.102126e-04 1.365635e-02
1.025027e-02 -1.796667e-04 1.363353e-02
1.056093e-02 6.932174e-06 1.366097e-02
1.040245e-02 3.529343e-05 1.367487e-02
1.036166e-02 -5.673191e-05 1.352676e-02
1.046327e-02 1.451965e-05 1.347998e-02
4.447829e-07 -1.096514e-02 1.422592e-02
1.050811e-02 7.598747e-05 1.355681e-02
9.838332e-03 6.424963e-05 1.377891e-02
1.032991e-02 -1.198074e-04 1.350952e-02
1.023591e-02 4.839257e-05 1.364637e-02
1.034004e-02 -1.933159e-05 1.357143e-02
1.054896e-02 -8.264475e-05 1.348432e-02
1.014712e-02 2.246807e-04 1.348265e-02
1.009494e-02 -5.784175e-05 1.345816e-02
1.043934e-02 1.534576e-04 1.350846e-02
1.020244e-02 -2.381378e-05 1.342896e-02
1.086868e-05 -1.094036e-02 1.420921e-02
1.013191e-02 6.463366e-05 1.314741e-02
1.006317e-02 -5.384158e-05 1.316949e-02
9.789611e-03 1.168767e-04 1.280406e-02
1.005852e-02 1.286770e-04 1.238193e-02
9.762832e-03 3.182397e-04 1.178482e-02
9.394043e-03 4.333052e-04 1.111232e-02
8.906686e-03 7.264300e-04 1.034934e-02
8.167742e-03 9.343481e-04 9.567513e-03
7.525848e-03 1.137544e-03 8.937472e-03
6.928675e-03 1.246153e-03 8.411716e-03
-1.899761e-05 -1.092578e-02 1.419530e-02
6.455200e-03 1.307937e-03 7.986761e-03
6.096942e-03 1.346811e-03 7.672904e-03
5.769547e-03 1.381543e-03 7.389008e-03
5.464753e-03 1.403444e-03 7.124233e-03
5.179021e-03 1.423123e-03 6.884560e-03
4.904102e-03 1.437101e-03 6.658698e-03
4.632207e-03 1.447572e-03 6.437038e-03
4.362264e-03 1.456674e-03 6.218543e-03
4.093645e-03 1.465987e-03 6.006627e-03
3.818288e-03 1.470760e-03 5.792907e-03
1.209860e-05 -1.095313e-02 1.419139e-02
3.515887e-03 1.471821e-03 5.566789e-03
3.181725e-03 1.468029e-03 5.322753e-03
2.817398e-03 1.456252e-03 5.065265e-03
2.450323e-03 1.435320e-03 4.814318e-03
2.089127e-03 1.397502e-03 4.578301e-03
-6.381192e-04 -6.498421e-04 4.426402e-03
-1.495480e-03 1.272824e-03 4.226494e-03
-1.756055e-03 1.336590e-03 4.382703e-03
-1.947531e-03 1.367437e-03 4.497880e-03
-2.104586e-03 1.388739e-03 4.595352e-03
-3.321035e-06 -1.082447e-02 1.406850e-02
-2.275265e-03 1.407460e-03 4.701867e-03
-2.460019e-03 1.423396e-03 4.821694e-03
-2.658730e-03 1.436710e-03 4.955371e-03
-2.875640e-03 1.447873e-03 5.100802e-03
-3.117658e-03 1.454953e-03 5.272657e-03
-3.401989e-03 1.458334e-03 5.475634e-03
-3.729554e-03 1.455539e-03 5.727123e-03
-4.120844e-03 1.450655e-03 6.027200e-03
-4.590214e-03 1.436167e-03 6.402713e-03
-5.102027e-03 1.414547e-03 6.829911e-03
1.320801e-02 1.312701e-02 -2.521529e-02
-3.654679e-05 -1.081569e-02 1.399070e-02
-5.601021e-03 1.387409e-03 7.246369e-03
-6.053061e-03 1.344989e-03 7.643686e-03
-6.456657e-03 1.302859e-03 7.992823e-03
-6.837900e-03 1.255070e-03 8.331310e-03
-7.210434e-03 1.199347e-03 8.668129e-03
-7.585297e-03 1.132945e-03 9.009974e-03
-7.994998e-03 1.040710e-03 9.404155e-03
-8.460100e-03 9.214444e-04 9.868105e-03
-8.942590e-03 7.419133e-04 1.042350e-02
-9.286046e-03 6.092457e-04 1.085032e-02
3.573025e-07 -1.085934e-02 1.400048e-02
-9.597691e-03 4.654313e-04 1.119287e-02
-9.858462e-03 3.680594e-04 1.161454e-02
-1.004885e-02 2.941719e-04 1.196848e-02
-1.011809e-02 2.090255e-04 1.209537e-02
-1.026073e-02 1.938564e-04 1.234222e-02
-1.043782e-02 1.568314e-04 1.263678e-02
-1.039463e-02 8.408275e-05 1.264378e-02
-1.043328e-02 8.839653e-05 1.274787e-02
-1.044036e-02 3.303304e-05 1.285906e-02
-1.048852e-02 1.194954e-04 1.291956e-02
-2.532398e-07 -1.087209e-02 1.400757e-02
-1.056055e-02 7.564262e-05 1.303557e-02
-1.064750e-02 3.960455e-05 1.318149e-02
-1.067270e-02 5.756713e-05 1.323021e-02
-1.060366e-02 1.883408e-05 1.322611e-02
-1.056299e-02 4.164000e-05 1.319852e-02
-1.055913e-02 4.956726e-05 1.319881e-02
-1.050348e-02 1.538583e-05 1.315409e-02
-1.045275e-02 -1.232573e-05 1.313921e-02
-1.040687e-02 5.176715e-07 1.324822e-02
-1.039642e-02 8.006347e-06 1.331250e-02
-1.872782e-05 -1.087729e-02 1.398916e-02
-1.042297e-02 -5.766708e-06 1.337001e-02
-1.041014e-02 6.457944e-06 1.339047e-02
-1.046625e-02 -1.382822e-05 1.342698e-02
-1.039265e-02 7.128066e-05 1.349616e-02
-1.037855e-02 1.351263e-05 1.355580e-02
-1.013567e-02 -1.447351e-04 1.349241e-02
-1.032025e-02 1.159397e-04 1.348727e-02
-1.044386e-02 5.965314e-05 1.365296e-02
-1.052965e-02 -1.159187e-06 1.360702e-02
-1.044445e-02 1.407502e-05 1.350072e-02
2.824621e-05 -1.087044e-02 1.402777e-02
-1.017563e-02 -1.400466e-05 1.371116e-02
-1.029938e-02 -6.159243e-05 1.362073e-02
-1.020670e-02 -1.820054e-05 1.364320e-02
-1.017261e-02 -9.842569e-06 1.380406e-02
-1.023114e-02 2.962056e-05 1.379517e-02
-1.019667e-02 -1.041918e-04 1.384379e-02
-1.027443e-02 5.810645e-05 1.370987e-02
-1.010413e-02 -4.960877e-05 1.374970e-02
-1.004496e-02 9.703263e-05 1.378417e-02
-1.024380e-02 -4.402585e-05 1.378195e-02
-1.463531e-05 -1.084695e-02 1.400372e-02
-1.026110e-02 -1.694212e-05 1.375498e-02
-1.059470e-02 3.660571e-05 1.375349e-02
-1.038761e-02 -1.734066e-04 1.374625e-02
-1.014241e-02 -1.545992e-05 1.377950e-02
-1.017712e-02 -9.647927e-06 1.371718e-02
-1.050969e-02 5.239223e-05 1.404361e-02
-1.062059e-02 6.071901e-05 1.410201e-02
-1.073195e-02 6.398050e-06 1.411888e-02
-1.065837e-02 -7.399121e-05 1.416163e-02
-1.063462e-02 6.194053e-05 1.405187e-02
2.690445e-05 -1.084065e-02 1.393877e-02
-1.067527e-02 -2.977776e-08 1.397706e-02
-1.031111e-02 -8.206181e-05 1.392779e-02
-1.021908e-02 1.400029e-04 1.386202e-02
-1.057106e-02 -3.307052e-05 1.399181e-02
-1.015974e-02 4.731767e-05 1.381934e-02
-1.034449e-02 4.363924e-05 1.378350e-02
-1.036390e-02 -2.152639e-05 1.381294e-02
-1.014618e-02 -1.009152e-04 1.377194e-02
-1.017521e-02 1.245975e-05 1.372307e-02
-1.007235e-02 -1.259284e-05 1.369596e-02
3.140968e-05 -1.078990e-02 1.394222e-02
-9.849135e-03 -8.725000e-05 1.371468e-02
-9.918803e-03 -1.433647e-04 1.369670e-02
-1.022904e-02 7.344096e-05 1.383300e-02
-1.011520e-02 -1.241067e-04 1.384914e-02
-1.039022e-02 8.237854e-05 1.384142e-02
-1.059287e-02 3.650322e-05 1.368582e-02
-1.013845e-02 -1.549286e-04 1.367962e-02
-9.747694e-03 7.369762e-06 1.372170e-02
-9.868242e-03 1.657739e-04 1.355408e-02
-1.010870e-02 4.774728e-05 1.359052e-02
-3.174269e-06 -1.080534e-02 1.400378e-02
-1.032912e-02 -2.220026e-05 1.344743e-02
-1.002154e-02 8.596041e-05 1.344140e-02
-1.003145e-02 3.059036e-06 1.340598e-02
-9.882788e-03 -5.008674e-05 1.329970e-02
-1.003521e-02 -1.778749e-04 1.296786e-02
-9.943542e-03 -1.447749e-04 1.267487e-02
-9.846104e-03 -2.020909e-04 1.200008e-02
-9.375839e-03 -4.203825e-04 1.098113e-02
-8.089797e-03 -9.621287e-04 9.420809e-03
-6.190494e-03 -1.362771e-03 7.711164e-03
3.505326e-06 -1.077436e-02 1.386343e-02
-4.414297e-03 -1.473804e-03 6.340179e-03
-3.033184e-03 -1.421447e-03 5.226941e-03
-1.947187e-03 -1.359953e-03 4.461253e-03
-1.371103e-03 -1.934518e-03 4.477279e-03
-1.441638e-03 -2.985172e-03 5.183767e-03
-1.466958e-03 -4.263482e-03 6.158329e-03
-1.396257e-03 -5.800409e-03 7.411353e-03
-1.120239e-03 -7.606754e-03 8.994658e-03
-6.777210e-04 -9.055843e-03 1.050216e-02
-2.533332e-04 -9.779727e-03 1.161100e-02
-1.460066e-02 1.458205e-02 -2.683607e-02
6.679107e-05 -1.067169e-02 1.382164e-02
-6.447192e-05 -1.000049e-02 1.230823e-02
3.228439e-05 -9.644906e-03 1.285486e-02
-1.489568e-04 -9.957181e-03 1.317582e-02
-1.247569e-04 -9.910835e-03 1.324513e-02
1.468476e-04 -1.009508e-02 1.327494e-02
-6.479590e-05 -1.003060e-02 1.348627e-02
2.892142e-05 -9.957336e-03 1.357311e-02
-6.928413e-07 -9.921249e-03 1.360076e-02
4.124268e-05 -1.014431e-02 1.356235e-02
-1.711405e-04 -1.014597e-02 1.357902e-02
-9.871541e-06 -1.062265e-02 1.382274e-02
-4.404964e-05 -9.871256e-03 1.376157e-02
-2.080905e-04 -1.019426e-02 1.357515e-02
9.331692e-05 -9.936212e-03 1.381400e-02
7.361963e-06 -1.011694e-02 1.391747e-02
3.946866e-05 -1.020665e-02 1.380346e-02
5.949457e-05 -1.034677e-02 1.377160e-02
-5.504224e-05 -1.060796e-02 1.344985e-02
-1.176173e-05 -1.046943e-02 1.373348e-02
1.104891e-05 -1.050021e-02 1.383706e-02
1.214398e-04 -1.046161e-02 1.361928e-02
2.723957e-05 -1.058637e-02 1.381006e-02
2.750663e-05 -1.029732e-02 1.374388e-02
-1.283032e-04 -1.039969e-02 1.386655e-02
9.061125e-05 -1.008078e-02 1.370152e-02
-2.636411e-05 -1.023379e-02 1.374432e-02
3.368915e-05 -1.022404e-02 1.378310e-02
4.215548e-05 -1.036544e-02 1.378287e-02
-1.237123e-04 -1.019142e-02 1.376187e-02
5.219651e-05 -1.020149e-02 1.386197e-02
-5.396509e-05 -1.030080e-02 1.373677e-02
-3.027919e-05 -1.010293e-02 1.383821e-02
5.626080e-05 -1.057305e-02 1.383229e-02
6.216107e-05 -1.033258e-02 1.374141e-02
8.938355e-06 -1.031659e-02 1.378079e-02
-8.686572e-05 -1.005961e-02 1.380445e-02
9.352802e-05 -1.035207e-02 1.375679e-02
-8.550957e-05 -1.050626e-02 1.342078e-02
-1.259547e-04 -1.061985e-02 1.337619e-02
-1.830383e-04 -1.013635e-02 1.376787e-02
2.236373e-05 -1.029172e-02 1.353232e-02
1.897750e-04 -1.012810e-02 1.367889e-02
-3.595417e-05 -1.015806e-02 1.360733e-02
3.652865e-05 -1.068549e-02 1.368279e-02
1.229074e-05 -1.026409e-02 1.355608e-02
-1.701236e-05 -1.036137e-02 1.323902e-02
-2.606935e-05 -1.037977e-02 1.316662e-02
3.455006e-05 -1.025426e-02 1.331772e-02
-3.281099e-06 -1.025923e-02 1.315873e-02