# vtk DataFile Version 2.0
Electric current density generated by TTH
ASCII
DATASET UNSTRUCTURED_GRID
POINTS 19111 double
3.020000e-05 -7.396867e-21 -4.898587e-23
3.017883e-05 1.130709e-06 -4.898587e-23
2.767360e-05 1.209182e-05 -4.898587e-23
-1.592652e-05 -2.565903e-05 -4.898587e-23
-4.833156e-06 2.943229e-05 9.946077e-08
-7.247976e-06 2.893106e-05 9.709747e-08
-3.359250e-06 2.963651e-05 9.911241e-08
-2.302001e-05 -1.896571e-05 9.946077e-08
1.249551e-07 2.982489e-05 9.709747e-08
-2.921968e-05 5.979102e-06 9.709747e-08
-2.715294e-05 1.233926e-05 9.709747e-08
-2.976327e-05 -1.937778e-06 9.911241e-08
-2.804323e-05 -1.015464e-05 9.709747e-08
-1.639610e-05 -2.491536e-05 9.911241e-08
-1.581962e-05 -2.572508e-05 -4.898587e-23
-1.316750e-05 -2.676259e-05 9.946077e-08
-2.699680e-05 -1.267724e-05 9.709747e-08
2.242673e-05 2.016484e-05 -1.210249e-07
2.357251e-05 -1.861710e-05 1.964271e-07
1.437655e-05 2.612273e-05 8.177574e-08
1.437655e-05 -2.612273e-05 8.177574e-08
2.525192e-05 1.591669e-05 1.318693e-07
2.968390e-06 -2.966393e-05 6.846439e-08
2.965353e-05 5.536523e-06 -1.116132e-07
2.806359e-05 1.019868e-05 1.421457e-07
-1.571244e-05 -2.579068e-05 -4.898587e-23
2.982521e-05 -3.116360e-06 -1.996140e-07
2.982521e-05 3.116360e-06 -1.996140e-07
2.402648e-05 -1.763349e-05 -3.382397e-08
1.902962e-05 2.319995e-05 1.999078e-07
1.902962e-05 -2.319995e-05 1.999078e-07
9.794020e-06 -2.836268e-05 -1.999078e-07
2.761480e-05 1.173827e-05 1.999078e-07
2.761480e-05 -1.173827e-05 1.999078e-07
1.724024e-05 -2.455888e-05 1.999078e-07
1.724024e-05 2.455888e-05 1.999078e-07
-1.560499e-05 -2.585584e-05 -4.898587e-23
1.792939e-05 2.406037e-05 1.999078e-07
1.792939e-05 -2.406037e-05 1.999078e-07
2.727071e-05 -1.251672e-05 1.999100e-07
2.727071e-05 1.251672e-05 1.999100e-07
4.279456e-06 -2.968024e-05 1.995879e-07
2.615679e-05 -1.452661e-05 1.832595e-07
8.985017e-06 -2.862907e-05 -1.999130e-07
1.968031e-05 -2.265037e-05 1.999130e-07
1.968031e-05 2.265037e-05 1.999130e-07
-2.479131e-06 -2.972282e-05 9.866885e-08
-1.549726e-05 -2.592055e-05 -4.898587e-23
-2.886827e-05 7.464026e-06 8.200930e-08
-1.179013e-05 -2.738761e-05 8.200930e-08
-1.994202e-05 -2.217900e-05 9.866885e-08
-1.732976e-05 2.427492e-05 9.866885e-08
-7.369492e-06 -2.890126e-05 9.866885e-08
-1.339517e-05 -2.684903e-05 1.999371e-07
-1.470850e-05 -2.615028e-05 1.999782e-07
-2.935060e-05 -6.232436e-06 1.999371e-07
1.106829e-06 -2.998253e-05 1.999782e-07
-7.284741e-06 -2.910550e-05 1.999729e-07
-1.538927e-05 -2.598481e-05 -4.898587e-23
-2.429985e-05 -1.759813e-05 1.999782e-07
-2.648002e-05 1.410623e-05 1.999782e-07
-2.982255e-05 -3.285246e-06 1.999782e-07
-2.315485e-05 1.907957e-05 1.999782e-07
-2.151176e-05 2.091462e-05 1.999782e-07
-2.942064e-05 5.884175e-06 1.999729e-07
-2.242426e-05 -1.993313e-05 1.999782e-07
-4.698079e-06 2.963493e-05 1.999371e-07
-1.187454e-05 2.755533e-05 1.999371e-07
-1.754049e-05 2.434191e-05 1.999729e-07
-1.528102e-05 -2.604862e-05 -4.898587e-23
4.470138e-06 2.966843e-05 1.999729e-07
-7.420485e-06 2.907119e-05 1.999729e-07
7.405787e-06 2.907494e-05 1.999729e-07
-2.494170e-05 1.667599e-05 1.999782e-07
-1.203839e-05 -2.748414e-05 1.999371e-07
-5.968924e-06 2.940322e-05 1.999782e-07
-1.304873e-05 2.701681e-05 1.999782e-07
-2.514792e-05 -1.636335e-05 1.999782e-07
-2.339121e-05 -1.878905e-05 1.999782e-07
-2.905569e-05 -7.480953e-06 1.999729e-07
-1.517249e-05 -2.611198e-05 -4.898587e-23
-2.909667e-05 7.326973e-06 1.999371e-07
-9.219358e-06 -2.855173e-05 1.999729e-07
2.761969e-06 -2.984293e-05 -1.978081e-07
5.429025e-06 -2.966630e-05 1.213557e-07
2.705919e-05 -1.294875e-05 1.999882e-07
2.705919e-05 1.294875e-05 1.999882e-07
2.960856e-05 -5.792549e-06 1.055861e-07
1.568371e-05 2.576208e-05 1.191567e-07
1.568371e-05 -2.576208e-05 1.191567e-07
1.127996e-05 -2.770802e-05 -1.815410e-07
-1.506371e-05 -2.617489e-05 -4.898587e-23
-2.933451e-05 5.270204e-06 4.060449e-08
-9.713249e-06 -2.817696e-05 4.060449e-08
-2.956099e-05 3.799496e-06 4.060449e-08
-1.683138e-05 -2.459660e-05 4.060449e-08
-6.129423e-06 -2.916708e-05 4.060449e-08
-2.945693e-05 4.536264e-06 4.060449e-08
-2.871138e-05 -7.996543e-06 4.060449e-08
-2.727497e-05 -1.201517e-05 4.060449e-08
-2.045468e-05 -2.167705e-05 4.060449e-08
-7.750287e-06 2.877883e-05 4.060449e-08
-1.495466e-05 -2.623734e-05 -4.898587e-23
-2.821948e-05 9.589014e-06 4.060449e-08
-2.797131e-05 1.029049e-05 4.060449e-08
-5.209162e-06 -2.934541e-05 4.060449e-08
6.976263e-06 2.897620e-05 4.060449e-08
-1.336378e-06 2.977419e-05 4.060449e-08
-1.789546e-05 2.383361e-05 4.060449e-08
-2.770570e-05 1.098555e-05 4.060449e-08
6.250736e-06 2.914132e-05 4.060449e-08
-9.360765e-06 2.829601e-05 4.060449e-08
-8.466298e-06 2.857639e-05 4.060449e-08
2.762304e-05 1.220687e-05 -4.898587e-23
-1.484536e-05 -2.629934e-05 -4.898587e-23
-2.777108e-05 -1.081921e-05 4.060449e-08
-2.018249e-05 2.193069e-05 4.060449e-08
-1.948285e-05 2.255453e-05 4.060449e-08
1.638746e-06 2.975908e-05 4.060449e-08
-5.926872e-07 2.979827e-05 4.060449e-08
3.860990e-06 2.955302e-05 4.060449e-08
-2.962615e-05 3.252592e-06 4.060449e-08
-2.969812e-05 2.512000e-06 4.060449e-08
-2.820797e-06 2.967038e-05 4.060449e-08
-2.978648e-05 1.026581e-06 4.060449e-08
-1.473580e-05 -2.636088e-05 -4.898587e-23
9.124961e-06 2.837293e-05 4.060449e-08
-2.742283e-05 1.167376e-05 4.060449e-08
-1.006422e-05 2.805352e-05 4.060449e-08
9.830411e-06 2.813630e-05 4.060449e-08
-2.098944e-05 -2.115967e-05 4.060449e-08
-2.979697e-05 -6.546819e-07 4.060449e-08
-2.756641e-05 -1.133054e-05 4.060449e-08
-2.079235e-06 2.973155e-05 4.060449e-08
-2.629942e-05 -1.402244e-05 4.060449e-08
-2.594117e-05 -1.467460e-05 4.060449e-08
-1.462598e-05 -2.642197e-05 -4.898587e-23
-3.929699e-06 -2.954396e-05 4.060449e-08
-2.980403e-05 8.936503e-08 4.060449e-08
-2.975157e-05 1.769842e-06 4.060449e-08
-4.474968e-06 -2.946630e-05 4.060449e-08
-3.190947e-06 -2.963286e-05 4.060449e-08
-2.977134e-05 -1.398321e-06 4.060449e-08
-6.667353e-06 -2.904883e-05 4.060449e-08
1.052973e-05 2.788213e-05 4.060449e-08
-2.849569e-05 -9.288761e-06 -1.979463e-07
-7.766715e-07 -2.996135e-05 -1.979463e-07
-1.451591e-05 -2.648260e-05 -4.898587e-23
-1.567101e-05 -2.554809e-05 -1.979463e-07
-1.404693e-05 2.647583e-05 -1.979463e-07
-2.687130e-05 1.327474e-05 -1.979463e-07
-2.226434e-05 2.006451e-05 -1.979463e-07
-2.580263e-05 1.524827e-05 -1.979463e-07
-1.873000e-05 -2.339813e-05 -1.979463e-07
2.119793e-06 -2.989678e-05 -1.980077e-07
-1.821796e-05 -2.379952e-05 -1.980077e-07
-2.546593e-05 1.580499e-05 -1.980077e-07
-1.261350e-07 -2.997157e-05 -1.980077e-07
-1.440559e-05 -2.654277e-05 -4.898587e-23
-1.814064e-05 -2.385813e-05 -1.979649e-07
-2.541438e-05 1.588718e-05 -1.979649e-07
-2.911597e-08 -2.997153e-05 -1.979649e-07
2.022986e-06 -2.990319e-05 -1.979649e-07
2.912616e-05 -7.853047e-06 1.111527e-07
-1.575439e-05 -2.549658e-05 -1.979240e-07
-2.846502e-05 -9.381848e-06 -1.979240e-07
-8.746409e-07 -2.995849e-05 -1.979240e-07
-1.413336e-05 2.642961e-05 -1.979240e-07
-2.691443e-05 1.318673e-05 -1.979240e-07
-1.429502e-05 -2.660249e-05 -4.898587e-23
-2.585222e-05 1.516374e-05 -1.979240e-07
-2.232972e-05 1.999150e-05 -1.979240e-07
-1.880632e-05 -2.333664e-05 -1.979240e-07
2.867150e-06 -2.983119e-05 -1.975290e-07
2.976451e-05 -4.881668e-06 1.170406e-07
1.175320e-05 2.778167e-05 1.122585e-07
1.882688e-05 -2.311758e-05 -7.347775e-08
1.882688e-05 2.311758e-05 -7.347775e-08
2.747874e-05 1.156688e-05 -7.347714e-08
2.747874e-05 -1.156688e-05 -7.347714e-08
-1.418420e-05 -2.666174e-05 -4.898587e-23
1.704423e-05 -2.446156e-05 -7.347620e-08
1.704423e-05 2.446156e-05 -7.347620e-08
-2.921307e-05 -5.992425e-06 -8.989246e-08
-1.374609e-05 -2.685082e-05 -1.131672e-07
2.691119e-05 1.330554e-05 -1.989138e-07
2.691119e-05 -1.330554e-05 -1.989138e-07
3.142318e-06 -2.968417e-05 1.323225e-07
1.383070e-05 -2.658784e-05 1.977392e-07
1.383070e-05 2.658784e-05 1.977392e-07
2.873241e-05 -8.593134e-06 1.997442e-07
-1.407314e-05 -2.672053e-05 -4.898587e-23
2.003849e-05 -2.232646e-05 1.999999e-07
2.003849e-05 2.232646e-05 1.999999e-07
8.521480e-06 -2.876450e-05 -1.999999e-07
2.521517e-05 -1.655782e-05 1.120770e-07
2.888929e-05 -7.817636e-06 1.867262e-07
5.607145e-06 -2.964363e-05 -1.065185e-07
1.182155e-05 2.735509e-05 -8.295025e-09
1.266986e-05 -2.723436e-05 1.965023e-07
2.935332e-05 5.305091e-06 1.035141e-07
1.152695e-05 -2.762361e-05 1.881441e-07
-1.396183e-05 -2.677886e-05 -4.898587e-23
1.194339e-05 2.769908e-05 -1.140754e-07
-1.587703e-05 2.552148e-05 -1.916921e-07
2.823512e-05 -9.586236e-06 8.308915e-08
1.946716e-05 -2.256601e-05 -3.214668e-08
1.946716e-05 2.256601e-05 -3.214668e-08
9.024814e-06 -2.840330e-05 3.214667e-08
2.705313e-05 -1.253073e-05 -7.422087e-08
2.705313e-05 1.253073e-05 -7.422087e-08
1.588562e-05 -2.564208e-05 -1.144204e-07
1.683454e-05 -2.502933e-05 -1.144204e-07
-1.385029e-05 -2.683672e-05 -4.898587e-23
1.683454e-05 2.502933e-05 -1.144204e-07
2.845834e-05 -9.999599e-06 -1.144204e-07
1.759829e-05 2.449835e-05 -1.144204e-07
1.759829e-05 -2.449835e-05 -1.144204e-07
2.799028e-05 -1.124336e-05 -1.144207e-07
2.799028e-05 1.124336e-05 -1.144207e-07
1.041298e-05 -2.830970e-05 1.144209e-07
1.866026e-05 2.369945e-05 -1.144209e-07
1.866026e-05 -2.369945e-05 -1.144209e-07
2.763029e-05 -1.210106e-05 -1.144265e-07
2.757201e-05 1.232170e-05 -4.898587e-23
-1.373850e-05 -2.689412e-05 -4.898587e-23
2.763029e-05 1.210106e-05 -1.144265e-07
9.535135e-06 -2.861730e-05 1.144304e-07
1.938212e-05 -2.311281e-05 -1.144304e-07
1.938212e-05 2.311281e-05 -1.144304e-07
1.544025e-05 2.556343e-05 -1.471357e-07
2.998677e-05 8.008217e-07 1.999839e-07
2.998677e-05 -8.008217e-07 1.999839e-07
2.712079e-05 -1.235845e-05 -3.895880e-08
2.712079e-05 1.235845e-05 -3.895880e-08
2.847839e-05 9.941917e-06 1.146304e-07
-1.362647e-05 -2.695105e-05 -4.898587e-23
2.423047e-05 -1.796741e-05 1.126245e-07
2.928316e-05 -5.637490e-06 8.895856e-08
2.310380e-05 1.939081e-05 1.162943e-07
2.563950e-05 1.524125e-05 1.012001e-07
1.774704e-05 2.394341e-05 -3.684585e-08
1.774704e-05 -2.394341e-05 -3.684585e-08
[...]
POINT_DATA 19111
VECTORS 10.000GHz_fone_imag double
3.947887e-05 6.956635e-06 3.137394e-02
1.073748e-04 5.075682e-05 3.171568e-02
-1.246554e-05 -2.621419e-06 3.163428e-02
-6.794111e-05 -2.928226e-05 3.154436e-02
2.516253e-03 -1.648555e-02 -2.994993e-02
4.038501e-03 -1.572239e-02 -3.006311e-02
1.766882e-03 -1.646938e-02 -2.985206e-02
1.294742e-02 1.047763e-02 -2.985476e-02
6.800366e-05 -1.621065e-02 -2.999670e-02
1.594242e-02 -3.107637e-03 -3.002876e-02
1.483039e-02 -6.586494e-03 -3.001037e-02
1.653160e-02 9.865331e-04 -2.983611e-02
1.519392e-02 5.669009e-03 -2.999777e-02
9.184843e-03 1.377998e-02 -2.984557e-02
7.612130e-05 -4.326871e-05 3.150374e-02
7.529337e-03 1.489331e-02 -2.995434e-02
1.474833e-02 6.771284e-03 -3.001241e-02
1.466580e-02 1.319066e-02 2.502799e-02
-2.526624e-02 1.995835e-02 5.304851e-03
-6.600123e-03 -1.191413e-02 -3.130957e-02
-6.598694e-03 1.191471e-02 -3.130997e-02
-1.830633e-02 -1.160453e-02 -2.587748e-02
-1.106221e-03 1.128284e-02 -3.218793e-02
1.788673e-02 3.355955e-03 2.603634e-02
-2.199372e-02 -8.029066e-03 -2.446861e-02
1.466825e-05 -3.408585e-05 3.153694e-02
3.279495e-02 -3.328237e-03 -3.091190e-03
3.279478e-02 3.328320e-03 -3.091247e-03
4.411476e-03 -3.281835e-03 -3.347741e-02
-2.078974e-02 -2.534545e-02 3.522470e-05
-2.078969e-02 2.534552e-02 3.524507e-05
1.072012e-02 -3.096613e-02 6.008273e-05
-3.016128e-02 -1.282324e-02 1.051939e-05
-3.016138e-02 1.282330e-02 1.048900e-05
-1.883261e-02 2.682383e-02 4.529121e-06
-1.883245e-02 -2.682343e-02 4.377856e-06
-4.288930e-05 5.789713e-06 3.166785e-02
-1.963316e-02 -2.630478e-02 4.761027e-06
-1.963319e-02 2.630490e-02 4.972035e-06
-2.984567e-02 1.381076e-02 -5.622931e-05
-2.984578e-02 -1.381082e-02 -5.668703e-05
-4.719856e-03 3.258277e-02 -2.995217e-03
-2.639855e-02 1.460218e-02 -1.408404e-02
9.757539e-03 -3.146224e-02 -4.850195e-05
-2.166285e-02 2.477799e-02 -7.730926e-05
-2.166295e-02 -2.477805e-02 -7.790366e-05
1.408660e-03 1.642973e-02 -2.961780e-02
-2.881690e-05 5.101937e-05 3.174528e-02
1.332464e-02 -3.428388e-03 -3.133789e-02
5.455916e-03 1.264500e-02 -3.135209e-02
1.105732e-02 1.224216e-02 -2.962287e-02
9.632577e-03 -1.340287e-02 -2.964687e-02
4.028802e-03 1.600321e-02 -2.963838e-02
1.458508e-02 2.936450e-02 -2.291507e-04
1.589133e-02 2.861387e-02 -4.807553e-04
3.206248e-02 6.816092e-03 -2.458772e-04
-1.387822e-03 3.273304e-02 -4.749861e-04
7.961332e-03 3.181540e-02 -4.128723e-04
5.732971e-05 -5.332612e-05 3.149112e-02
2.664705e-02 1.902097e-02 -4.942677e-04
2.900568e-02 -1.521051e-02 -4.985786e-04
3.252025e-02 3.749012e-03 -4.956590e-04
2.540878e-02 -2.065526e-02 -5.070293e-04
2.334886e-02 -2.294839e-02 -4.873040e-04
3.215373e-02 -6.431570e-03 -4.251805e-04
2.462246e-02 2.159426e-02 -5.020994e-04
5.151988e-03 -3.236585e-02 -2.328449e-04
1.298766e-02 -3.008831e-02 -2.440212e-04
1.918127e-02 -2.660186e-02 -4.162093e-04
-8.502568e-05 3.074286e-05 3.169063e-02
-5.042617e-03 -3.239215e-02 -2.956454e-04
8.115877e-03 -3.175613e-02 -4.220004e-04
-8.077152e-03 -3.176786e-02 -4.209173e-04
2.731195e-02 -1.803929e-02 -4.910612e-04
1.316462e-02 3.005611e-02 -2.710845e-04
6.352391e-03 -3.211895e-02 -4.953879e-04
1.408569e-02 -2.955469e-02 -4.968725e-04
2.756236e-02 1.767558e-02 -5.001707e-04
2.566740e-02 2.032701e-02 -4.814964e-04
3.177991e-02 8.020347e-03 -3.095555e-04
-1.114074e-04 1.462719e-05 3.164166e-02
3.182111e-02 -8.008405e-03 -2.637921e-04
9.929328e-03 3.123384e-02 -3.038636e-04
3.037607e-03 -3.229416e-02 -5.825460e-03
-3.579106e-03 1.952394e-02 2.490514e-02
-2.972936e-02 1.425683e-02 -1.266432e-03
-2.972918e-02 -1.425668e-02 -1.266753e-03
-1.698396e-02 3.350249e-03 2.669892e-02
-1.014310e-02 -1.666072e-02 2.526300e-02
-1.011384e-02 1.667808e-02 2.527023e-02
1.131203e-02 -2.796308e-02 -1.486202e-02
-6.243416e-05 1.071436e-05 3.160262e-02
6.592528e-03 -1.331642e-03 -3.385548e-02
2.127878e-03 6.415221e-03 -3.371356e-02
6.755080e-03 -9.413129e-04 -3.385034e-02
3.913699e-03 5.409229e-03 -3.380611e-02
1.318599e-03 6.698074e-03 -3.383271e-02
6.672460e-03 -1.152395e-03 -3.386427e-02
6.527537e-03 1.735854e-03 -3.371012e-02
6.137782e-03 2.845976e-03 -3.388305e-02
4.555604e-03 5.018226e-03 -3.387044e-02
1.881427e-03 -6.474378e-03 -3.388178e-02
5.974585e-05 -4.885372e-05 3.175314e-02
6.463168e-03 -2.232837e-03 -3.380338e-02
6.272304e-03 -2.453301e-03 -3.384166e-02
1.319450e-03 6.562072e-03 -3.381102e-02
-1.447613e-03 -6.603101e-03 -3.388944e-02
1.772617e-04 -6.770279e-03 -3.387094e-02
4.004630e-03 -5.451821e-03 -3.372009e-02
6.254308e-03 -2.605641e-03 -3.387436e-02
-1.255839e-03 -6.577529e-03 -3.382265e-02
2.002143e-03 -6.468967e-03 -3.386021e-02
2.055955e-03 -6.447404e-03 -3.386829e-02
-3.422482e-05 -2.015749e-05 3.125653e-02
1.162922e-04 -4.563144e-05 3.173811e-02
6.389069e-03 2.405308e-03 -3.386164e-02
4.475707e-03 -5.066508e-03 -3.389254e-02
4.496477e-03 -4.944251e-03 -3.382083e-02
-4.318549e-04 -6.828892e-03 -3.378160e-02
-1.268678e-05 -6.686673e-03 -3.381458e-02
-1.041648e-03 -6.583793e-03 -3.380613e-02
6.716980e-03 -6.082242e-04 -3.390018e-02
6.759917e-03 -4.432459e-04 -3.387503e-02
5.113656e-04 -6.740191e-03 -3.390226e-02
6.694582e-03 -7.976707e-05 -3.379232e-02
9.268287e-05 1.311991e-05 3.184455e-02
-1.898840e-03 -6.418939e-03 -3.379829e-02
6.169254e-03 -2.767971e-03 -3.388490e-02
2.158970e-03 -6.403371e-03 -3.388353e-02
-2.093163e-03 -6.397538e-03 -3.384579e-02
4.722804e-03 4.847520e-03 -3.372830e-02
6.772067e-03 3.779060e-05 -3.387019e-02
6.185258e-03 2.680541e-03 -3.389143e-02
3.532736e-04 -6.760591e-03 -3.385968e-02
5.945789e-03 3.237418e-03 -3.372142e-02
5.755591e-03 3.426357e-03 -3.382121e-02
-1.308070e-05 4.985731e-05 3.165434e-02
7.879667e-04 6.698205e-03 -3.376299e-02
6.712444e-03 -1.689085e-04 -3.383106e-02
6.689468e-03 -2.553748e-04 -3.380281e-02
1.154827e-03 6.605009e-03 -3.387156e-02
5.934074e-04 6.743993e-03 -3.386916e-02
6.673885e-03 1.573150e-04 -3.381543e-02
1.660770e-03 6.464878e-03 -3.383628e-02
-2.272244e-03 -6.376278e-03 -3.389061e-02
-3.096738e-02 -1.006180e-02 -5.790044e-03
-7.806176e-04 -3.256408e-02 -5.790074e-03
3.858716e-05 -3.329812e-05 3.157322e-02
-1.697838e-02 -2.780455e-02 -5.800797e-03
-1.523767e-02 2.877226e-02 -5.784785e-03
-2.917745e-02 1.448232e-02 -5.780917e-03
-2.415713e-02 2.180698e-02 -5.791775e-03
-2.801400e-02 1.659023e-02 -5.801208e-03
-2.030547e-02 -2.545214e-02 -5.794102e-03
2.337184e-03 -3.250467e-02 -5.736842e-03
-1.983147e-02 -2.584697e-02 -5.749077e-03
-2.770493e-02 1.714663e-02 -5.748613e-03
-1.659499e-04 -3.260558e-02 -5.735433e-03
-5.530712e-05 -6.238068e-06 3.153348e-02
-1.967568e-02 -2.592082e-02 -5.792482e-03
-2.758500e-02 1.726948e-02 -5.790870e-03
2.608980e-06 -3.257297e-02 -5.779005e-03
2.167025e-03 -3.248289e-02 -5.777107e-03
-1.753224e-02 4.697131e-03 2.596788e-02
-1.714274e-02 -2.777644e-02 -5.899101e-03
-3.096187e-02 -1.024666e-02 -5.866005e-03
-9.409292e-04 -3.263916e-02 -5.885694e-03
-1.542794e-02 2.875139e-02 -5.845471e-03
-2.930163e-02 1.437103e-02 -5.886837e-03
-6.795706e-05 -2.331335e-05 3.169813e-02
-2.814744e-02 1.646238e-02 -5.874574e-03
-2.431475e-02 2.171084e-02 -5.869953e-03
-2.048636e-02 -2.542485e-02 -5.878171e-03
3.085811e-03 -3.221766e-02 -6.119858e-03
-1.879413e-02 3.097180e-03 2.535246e-02
-7.171183e-03 -1.687658e-02 2.594502e-02
7.678066e-03 -9.405490e-03 -3.155925e-02
7.678238e-03 9.405667e-03 -3.155898e-02
1.119598e-02 4.725177e-03 -3.157471e-02
1.119577e-02 -4.725135e-03 -3.157485e-02
-1.084012e-05 -1.103646e-04 3.154190e-02
6.950922e-03 -9.956774e-03 -3.156420e-02
6.951164e-03 9.957159e-03 -3.156439e-02
-1.464951e-02 -2.904320e-03 -3.044945e-02
-8.511503e-03 -1.645177e-02 2.580819e-02
2.920688e-02 1.447071e-02 2.459400e-03
2.920654e-02 -1.447058e-02 2.459552e-03
-2.295017e-03 2.161109e-02 -2.575775e-02
-1.494721e-02 2.889081e-02 -5.975263e-03
-1.494959e-02 -2.889089e-02 -5.973281e-03
-3.166115e-02 9.443375e-03 -2.638755e-03
-2.500239e-05 -5.755566e-05 3.168255e-02
-2.202917e-02 2.454076e-02 -8.940736e-04
-2.202928e-02 -2.454077e-02 -8.942518e-04
9.366825e-03 -3.163019e-02 -8.787471e-04
-1.530044e-02 1.011407e-02 2.603298e-02
-2.966579e-02 8.048982e-03 -1.277404e-02
3.290299e-03 -1.706390e-02 2.679440e-02
5.386505e-04 1.233364e-03 -3.399161e-02
-1.372836e-02 2.928317e-02 5.103640e-03
-1.678915e-02 -2.992365e-03 -2.928879e-02
-1.193944e-02 2.857277e-02 -1.223871e-02
-8.696004e-05 -3.577135e-05 3.190559e-02
7.426392e-03 1.707758e-02 2.571386e-02
-1.663725e-02 2.670446e-02 8.279749e-03
-1.314738e-02 4.488388e-03 -3.106625e-02
3.477421e-03 -4.007100e-03 -3.361999e-02
3.477332e-03 4.007080e-03 -3.362015e-02
-1.594041e-03 5.059979e-03 -3.361424e-02
1.116747e-02 -5.236535e-03 -3.169548e-02
1.116757e-02 5.236603e-03 -3.169532e-02
9.878340e-03 -1.593497e-02 2.571458e-02
1.037357e-02 -1.559632e-02 2.567703e-02
7.882752e-05 -5.044553e-05 3.153882e-02
1.037294e-02 1.559785e-02 2.567629e-02
1.765800e-02 -6.297788e-03 2.578501e-02
1.100819e-02 1.510768e-02 2.577166e-02
1.100812e-02 -1.510726e-02 2.577187e-02
1.741807e-02 -6.897142e-03 2.568245e-02
1.741835e-02 6.895760e-03 2.568265e-02
-6.471416e-03 1.751588e-02 2.568366e-02
1.151288e-02 1.477098e-02 2.567464e-02
1.151287e-02 -1.477094e-02 2.567488e-02
1.707634e-02 -7.619536e-03 2.577191e-02
-6.813008e-05 -4.238830e-05 3.154820e-02
2.286921e-05 2.735402e-05 3.171453e-02
1.707606e-02 7.619287e-03 2.577232e-02
-5.786032e-03 1.776756e-02 2.573753e-02
1.211229e-02 -1.424049e-02 2.575810e-02
1.211242e-02 1.424070e-02 2.575773e-02
1.255798e-02 2.073634e-02 -2.344280e-02
-3.279387e-02 -9.019028e-04 -1.522185e-03
-3.279384e-02 9.019091e-04 -1.522198e-03
5.893246e-03 -2.715818e-03 -3.356973e-02
5.893341e-03 2.715907e-03 -3.356887e-02
-1.766477e-02 -6.258519e-03 2.566665e-02
3.077253e-05 1.005539e-05 3.178930e-02
-1.472923e-02 1.102729e-02 2.602858e-02
-1.431921e-02 2.779068e-03 -3.069041e-02
-1.450966e-02 -1.218404e-02 2.549469e-02
-1.432341e-02 -8.555559e-03 -2.955776e-02
3.702360e-03 4.890579e-03 -3.345028e-02
3.702234e-03 -4.890377e-03 -3.345023e-02
5.290372e-03 -1.967441e-03 -3.358096e-02
5.461087e-03 2.042491e-03 -3.357222e-02
2.225661e-03 -3.079167e-03 -3.417111e-02
1.879753e-03 -2.955777e-03 -3.399118e-02
1.811508e-04 3.273308e-05 3.171240e-02
2.672205e-03 4.108643e-03 -3.375626e-02
2.225957e-03 3.079616e-03 -3.417113e-02
3.481572e-03 1.536970e-03 -3.417631e-02
3.481760e-03 -1.537090e-03 -3.417643e-02
2.450035e-03 2.900905e-03 -3.415786e-02
2.449874e-03 -2.900696e-03 -3.415801e-02
-1.228040e-03 3.522542e-03 -3.395859e-02
-1.203473e-02 -3.034438e-02 3.810211e-03
-1.181817e-02 1.863354e-02 -2.561684e-02
1.573469e-03 -3.406525e-03 -3.415937e-02
1.496994e-04 1.160699e-04 3.168881e-02
2.849778e-02 1.524750e-03 -1.758793e-02
2.849783e-02 -1.524769e-03 -1.758792e-02
-1.249387e-02 2.836262e-02 -1.222033e-02
-5.935930e-03 -1.478501e-02 -3.004397e-02
-3.987014e-03 1.327765e-02 -3.109446e-02
9.224510e-03 -1.035216e-02 -3.109988e-02
9.224473e-03 1.035214e-02 -3.109999e-02
2.310296e-02 -2.191176e-02 -9.866879e-03
1.681261e-02 1.000539e-02 -2.795277e-02
-1.234729e-02 3.650198e-03 -3.184487e-02
-1.629634e-04 2.324629e-04 3.164146e-02
-3.087607e-02 -1.102612e-02 -5.518983e-03
8.249105e-03 -1.699362e-02 2.543960e-02
1.747372e-02 -3.014272e-03 2.642825e-02
-9.702776e-03 2.595896e-03 -3.280838e-02
2.037933e-02 -2.576271e-02 8.019658e-04
-1.121000e-02 3.071404e-02 1.702924e-03
2.037932e-02 2.576265e-02 8.017353e-04
3.046337e-02 1.231665e-02 8.065262e-04
3.046265e-02 -1.231711e-02 8.070463e-04
1.839305e-02 -2.722144e-02 7.991724e-04
-1.953207e-05 -5.075787e-06 3.167193e-02
1.839309e-02 2.722268e-02 7.976885e-04
1.738554e-02 -2.789938e-02 1.431365e-03
3.095091e-02 -1.081453e-02 1.104332e-03
1.913013e-02 -2.669940e-02 1.409293e-03
1.913026e-02 2.669979e-02 1.409062e-03
3.010934e-02 1.314469e-02 1.410347e-03
3.010950e-02 -1.314489e-02 1.410353e-03
2.107688e-02 -2.519165e-02 1.402905e-03
2.107684e-02 2.519173e-02 1.402308e-03
-1.042162e-02 3.113364e-02 1.390471e-03
-5.423156e-05 -5.743461e-05 3.167600e-02
-4.022720e-03 1.758364e-02 2.593903e-02
4.975510e-03 -1.289684e-02 -3.101233e-02
1.952905e-02 -3.088432e-03 2.498893e-02
-1.359817e-02 9.279840e-03 2.715865e-02
1.721892e-02 2.809591e-02 -4.126694e-04
-1.114968e-02 -2.243937e-03 -3.202060e-02
-9.328063e-03 6.453640e-03 -3.196490e-02
1.251053e-02 1.218586e-02 2.642711e-02
1.251777e-02 -1.218287e-02 2.643487e-02
-1.309073e-02 1.259043e-02 2.647040e-02
-1.062992e-04 -7.380881e-05 3.155019e-02
-1.811740e-02 3.133715e-04 2.619071e-02
-1.811753e-02 -3.132480e-04 2.619137e-02
-1.194818e-03 -1.890342e-03 -3.419610e-02
-1.333866e-02 2.922389e-02 5.169635e-03
-8.087188e-03 -2.061107e-02 -2.574703e-02
2.036925e-03 -1.788510e-02 2.619918e-02
1.444355e-02 -2.881673e-02 4.225542e-03
1.445309e-02 2.878779e-02 4.225955e-03
-2.592676e-02 2.006477e-02 -6.166087e-03
-9.120099e-03 -3.150042e-02 -6.162644e-03
-4.676941e-05 -4.968359e-05 3.174989e-02
-1.606568e-02 2.856137e-02 -6.189199e-03
-1.202762e-02 -3.050671e-02 -6.166478e-03
-2.113177e-02 -2.506357e-02 -6.207161e-03
1.703099e-02 -8.311036e-03 2.552860e-02
1.703155e-02 8.311289e-03 2.552838e-02
-1.180956e-02 7.769167e-03 -3.096487e-02
-2.857994e-02 -1.407571e-02 6.514716e-03
-2.858004e-02 1.407585e-02 6.515170e-03
-3.138826e-02 5.279204e-03 -9.685034e-03
-1.286481e-02 -1.163419e-02 2.655642e-02
-3.525676e-05 -1.077279e-04 3.138107e-02
-1.790685e-02 6.286378e-03 2.537293e-02
-1.453399e-02 -8.275948e-03 2.695154e-02
1.396626e-02 -1.081528e-02 2.636167e-02
1.322925e-02 -1.176685e-02 2.618904e-02
1.396556e-02 1.085998e-02 2.614460e-02
1.377955e-02 1.139951e-02 2.611665e-02
-3.620379e-03 1.730125e-02 2.634999e-02
1.265591e-02 -1.219846e-02 2.632236e-02
1.345867e-02 -1.131853e-02 2.624567e-02
1.266617e-02 1.222904e-02 2.620891e-02
-6.846111e-05 -1.026121e-05 3.139866e-02
-4.453927e-05 -2.802810e-05 3.158516e-02
1.425435e-02 1.029726e-02 2.624600e-02
1.425769e-02 2.396026e-04 -3.097336e-02
1.425775e-02 -2.398475e-04 -3.097314e-02
1.823031e-02 -4.577933e-03 2.571221e-02
-5.198573e-03 1.787864e-02 2.573034e-02
1.251079e-02 -1.379175e-02 2.571451e-02
1.251068e-02 1.379154e-02 2.571458e-02
2.428383e-02 1.727568e-02 -1.581814e-02
1.522991e-02 -2.912282e-02 3.127191e-04
1.523038e-02 2.912086e-02 3.148666e-04
-9.820125e-05 -2.619278e-05 3.161804e-02
2.964620e-03 -4.532545e-03 -3.363138e-02
2.271855e-02 -2.244870e-02 -9.034700e-03
2.271759e-02 2.244754e-02 -9.035424e-03
-1.825504e-02 4.068014e-03 2.567941e-02
-1.765072e-02 2.730135e-02 4.133560e-03
2.716307e-02 -1.835401e-02 -2.596030e-03
-1.830400e-02 -1.857150e-03 2.563973e-02
-1.830369e-02 1.857044e-03 2.564007e-02
-3.095814e-02 -1.022342e-02 1.716896e-03
3.258341e-02 -3.513675e-03 -4.093861e-03
-5.344399e-05 -8.114963e-06 3.158882e-02
3.258325e-02 3.513774e-03 -4.093838e-03
6.602101e-03 1.589130e-02 2.669004e-02
-7.527386e-03 -1.591978e-02 2.653170e-02
1.059256e-02 2.523915e-02 -1.987129e-02
8.808150e-03 2.073735e-02 -2.508347e-02
-5.540954e-03 -2.947186e-02 -1.468122e-02
-8.814027e-03 2.866524e-02 -1.467826e-02
-2.007867e-02 2.226389e-02 -1.467951e-02
-2.999757e-02 3.899493e-04 -1.467418e-02
-3.174467e-02 7.166841e-03 3.941751e-03
1.091804e-04 -4.176520e-05 3.171264e-02
-9.442943e-03 -3.111815e-02 3.982137e-03
-2.571679e-02 -1.993381e-02 3.942330e-03
-2.668413e-02 -1.862548e-02 3.929112e-03
-2.359470e-02 -2.238776e-02 3.940006e-03
-1.361408e-02 2.955584e-02 3.787678e-03
-2.545693e-02 2.022393e-02 3.988555e-03
-3.242928e-02 -2.726178e-03 3.790816e-03
-2.030818e-02 2.540860e-02 3.946053e-03
7.950791e-04 3.254020e-02 3.944511e-03
5.393433e-03 3.209312e-02 3.943017e-03
1.609171e-04 2.094847e-05 3.169575e-02
-2.468985e-02 -2.119053e-02 3.935580e-03
8.807378e-03 3.133100e-02 3.936415e-03
-5.890238e-03 3.201053e-02 3.788311e-03
-4.301176e-03 3.226522e-02 3.949033e-03
-1.214153e-02 3.019134e-02 3.943639e-03
2.981431e-03 3.240492e-02 3.949960e-03
-7.294987e-03 3.171101e-02 3.792299e-03
-2.758547e-02 -1.727187e-02 3.942876e-03
-2.290596e-02 2.309759e-02 3.779966e-03
-1.542225e-02 -2.864770e-02 3.777131e-03
9.249395e-05 1.084484e-04 3.156823e-02
-3.165274e-02 -7.570762e-03 3.937444e-03
-3.111350e-02 9.525464e-03 3.965131e-03
-1.153725e-02 -3.039702e-02 3.981524e-03
-3.229260e-02 -4.137402e-03 3.949633e-03
-1.378597e-02 -2.947615e-02 3.929597e-03
-2.916830e-02 -1.442978e-02 3.933058e-03
1.574702e-02 2.710130e-02 -1.119231e-02
1.574508e-02 -2.709635e-02 -1.119055e-02
1.765871e-02 -4.702026e-03 2.599379e-02
9.775094e-03 1.960465e-02 -2.595179e-02
-1.724009e-04 1.509597e-04 3.158036e-02
9.783845e-03 -1.962656e-02 -2.596968e-02
-1.138352e-02 1.181121e-02 -2.978205e-02
-1.138366e-02 -1.181165e-02 -2.978248e-02
4.097724e-03 -1.588198e-02 -2.979289e-02
7.377553e-03 6.801078e-03 -3.266613e-02
-1.687218e-02 4.437579e-03 2.642559e-02
-6.785028e-03 -1.605785e-02 2.644388e-02
7.799547e-03 -6.292317e-03 -3.266892e-02
1.873168e-02 -3.818125e-03 2.548898e-02
-1.840173e-03 2.694383e-03 -3.410112e-02
-4.948300e-06 -4.938434e-05 3.161314e-02
-1.837930e-03 -2.692959e-03 -3.410222e-02
-3.021202e-03 -1.234282e-03 -3.410811e-02
-3.018557e-03 1.235378e-03 -3.410655e-02
-2.039791e-03 2.551910e-03 -3.410105e-02
-2.039754e-03 -2.551785e-03 -3.410126e-02
-7.430066e-03 -1.855633e-02 2.481448e-02
-2.431477e-02 6.837004e-04 -2.320495e-02
-2.431474e-02 -6.835816e-04 -2.320496e-02
1.599489e-04 5.421541e-03 -3.369951e-02
4.875443e-03 -2.386379e-03 -3.371827e-02
-6.026732e-05 2.682794e-05 3.141245e-02
2.856246e-03 4.611779e-03 -3.371622e-02
3.409539e-03 4.233067e-03 -3.369137e-02
-1.667115e-02 -3.335363e-03 -2.936711e-02
3.218830e-02 7.082002e-03 -4.245845e-03
-1.403137e-02 -9.988532e-03 2.699862e-02
-2.072944e-02 -2.102172e-03 -2.674365e-02
-2.072914e-02 2.102131e-03 -2.674344e-02
8.702792e-03 1.701252e-02 -2.814009e-02
8.704538e-03 -1.701530e-02 -2.814434e-02
1.312666e-03 -2.221407e-02 -2.554832e-02
-1.325959e-04 -1.954094e-04 3.164575e-02
-1.330695e-02 -1.781344e-02 -2.555870e-02
-1.876351e-02 1.194203e-02 -2.555668e-02
1.608446e-04 -2.225830e-02 -2.555268e-02
-2.163649e-02 -4.495933e-03 -2.560329e-02
-2.105483e-02 -2.011887e-03 -2.634080e-02
-2.105432e-02 2.011816e-03 -2.634105e-02
8.517224e-03 -3.138802e-02 2.157954e-03
8.692490e-03 -3.163501e-02 -4.743354e-03
-2.226126e-02 2.368523e-02 2.159165e-03
-2.238156e-02 2.396519e-02 -4.746687e-03
4.057281e-05 1.493981e-05 3.144556e-02
3.915140e-05 -1.128298e-04 3.166359e-02
-2.226142e-02 -2.368551e-02 2.158459e-03
-2.238168e-02 -2.396545e-02 -4.746807e-03
-7.204971e-03 3.101020e-02 -9.323646e-03
1.767632e-02 -1.214074e-02 -2.618495e-02
1.981605e-02 1.713803e-03 2.488318e-02
1.981640e-02 -1.713852e-03 2.488330e-02
-8.466977e-03 -1.697999e-02 2.539157e-02
-8.453325e-03 1.698421e-02 2.539918e-02
-1.270052e-02 1.323272e-02 2.585625e-02
-1.270060e-02 -1.323278e-02 2.585606e-02
-2.740488e-05 -3.922754e-05 3.164794e-02
4.469011e-03 -1.713587e-02 2.628312e-02
-1.311778e-02 -2.978443e-02 -6.234373e-03
-3.157826e-02 7.881802e-03 -6.227060e-03
1.541604e-02 8.908288e-03 2.635214e-02
-1.326121e-02 -2.495235e-02 -1.833213e-02
-1.325974e-02 2.495273e-02 -1.833338e-02
-5.331802e-03 9.365238e-03 -3.247592e-02
-5.336750e-03 -9.361184e-03 -3.247512e-02
-3.140294e-02 9.605640e-03 -2.549906e-03
-1.790429e-02 2.753390e-02 -2.550443e-03
-9.886891e-05 -1.062948e-04 3.148802e-02
-3.257058e-02 -4.202038e-03 -2.538521e-03
-1.321215e-03 -3.287313e-02 -2.695591e-03
3.367979e-03 -6.845251e-03 -3.343594e-02
3.354977e-03 6.940856e-03 -3.343339e-02
-7.769966e-03 1.736966e-03 -3.354175e-02
-6.042978e-03 -4.647299e-03 -3.345638e-02
3.071387e-04 -7.566786e-03 -3.352397e-02
-3.487468e-03 6.796128e-03 -3.352581e-02
-6.271182e-03 -4.340342e-03 -3.346403e-02
-3.695284e-03 -6.605352e-03 -3.352563e-02
8.188658e-05 -1.560759e-04 3.174598e-02
-1.680250e-03 7.417505e-03 -3.350297e-02
-3.389222e-03 -7.206658e-03 -3.354189e-02
-5.693285e-03 4.704650e-03 -3.344238e-02
-6.576880e-03 4.282268e-03 -3.343227e-02
-6.190049e-03 -4.032927e-03 -3.343485e-02
-6.511303e-03 3.476948e-03 -3.343643e-02
-5.412286e-03 5.284031e-03 -3.352566e-02
-7.585469e-03 -6.621699e-04 -3.350184e-02
-9.061729e-04 7.623242e-03 -3.345131e-02
-2.762765e-03 7.164058e-03 -3.345941e-02