# vtk DataFile Version 2.0
Electric current density generated by TTH
ASCII
DATASET UNSTRUCTURED_GRID
POINTS 3383 double
3.107588e-05 -7.611395e-21 -2.782841e-22
3.041641e-05 6.368070e-06 -2.782841e-22
-2.000550e-05 2.378004e-05 -2.782841e-22
-2.442137e-05 -1.578099e-05 7.387769e-07
3.052056e-05 -3.232707e-06 -8.520749e-07
3.052056e-05 3.232707e-06 -8.520749e-07
-4.938608e-06 -3.029363e-05 -8.500657e-07
-1.466423e-05 2.518528e-05 8.104450e-07
-2.466136e-05 1.552917e-05 8.104450e-07
-2.001163e-05 2.118661e-05 8.104450e-07
-2.211131e-05 -2.121914e-05 -8.901656e-07
-2.131350e-05 -2.191757e-05 -9.440028e-07
-2.338197e-05 -1.980969e-05 -8.904476e-07
-2.054550e-05 2.331507e-05 -2.782841e-22
-2.397373e-05 -1.894315e-05 -9.554182e-07
-1.252477e-05 2.645484e-05 9.177704e-07
1.053933e-06 -2.926429e-05 -9.273610e-07
9.692704e-06 -2.914726e-05 -8.290261e-07
-1.784110e-05 2.501654e-05 8.194423e-07
-2.346917e-05 -1.670329e-05 -7.924264e-08
-2.807914e-05 -1.226026e-05 8.954334e-07
-1.249014e-05 2.805734e-05 8.334814e-07
-2.881583e-05 -1.060084e-05 -8.407646e-07
2.825407e-05 7.776518e-06 9.421834e-07
-2.107470e-05 2.283785e-05 -2.782841e-22
2.827012e-05 -7.695993e-06 9.382601e-07
-1.576750e-06 -2.920430e-05 9.004720e-07
-2.784725e-05 -9.236693e-06 -9.644931e-07
-1.139630e-05 2.691925e-05 8.890253e-07
2.366455e-05 1.953205e-05 -8.583837e-07
2.366455e-05 -1.953205e-05 -8.583837e-07
-2.807199e-05 6.947702e-06 4.990325e-07
3.361356e-06 2.872298e-05 4.990627e-07
-6.320291e-06 -3.008070e-05 8.089479e-07
3.067107e-06 -2.914581e-05 9.435429e-07
-2.159281e-05 2.234862e-05 -2.782841e-22
2.720756e-05 -1.030615e-05 7.588896e-07
2.777179e-05 8.598236e-06 7.339097e-07
2.723904e-05 1.037970e-05 8.165580e-07
2.779267e-05 -8.557572e-06 7.432082e-07
2.192512e-05 1.904200e-05 -6.935695e-07
2.192512e-05 -1.904200e-05 -6.935695e-07
2.310916e-05 1.778022e-05 -8.242202e-07
2.310916e-05 -1.778022e-05 -8.242202e-07
-2.688550e-05 -1.195135e-05 1.011479e-06
1.035166e-05 2.727766e-05 8.410532e-07
-2.209958e-05 2.184763e-05 -2.782841e-22
2.854843e-05 5.277407e-06 6.835241e-07
2.854843e-05 -5.277407e-06 6.835241e-07
-2.855874e-05 -1.118463e-05 8.697184e-07
-1.309621e-05 -2.598264e-05 -7.615668e-07
2.955102e-05 -8.189440e-06 8.747242e-07
2.955102e-05 8.189440e-06 8.747242e-07
-1.689272e-05 -2.347351e-05 5.012328e-07
2.998652e-05 6.398549e-06 8.773730e-07
2.998652e-05 -6.398549e-06 8.773730e-07
5.591344e-06 3.013605e-05 8.864903e-07
-2.259472e-05 2.133516e-05 -2.782841e-22
-2.919337e-05 9.337696e-06 8.864815e-07
6.455977e-06 -2.852214e-05 -8.980238e-07
-2.767264e-05 9.547149e-06 -9.201880e-07
5.989971e-06 2.865446e-05 -9.206171e-07
-2.744516e-05 -1.029507e-05 9.474104e-07
-5.667069e-06 -2.866208e-05 -8.766675e-07
1.686908e-05 -2.372030e-05 7.730076e-07
1.686884e-05 2.372035e-05 7.729030e-07
2.249060e-06 -3.061052e-05 -8.505240e-07
-1.622505e-05 -2.606865e-05 8.393374e-07
-2.307798e-05 2.081147e-05 -2.782841e-22
1.476048e-05 -2.476505e-05 -2.446996e-07
9.528695e-07 -3.069254e-05 8.376495e-07
2.449401e-05 -1.539419e-05 -5.207290e-07
2.449401e-05 1.539419e-05 -5.207290e-07
-1.764628e-05 -2.513072e-05 8.375843e-07
-1.969358e-05 -2.352528e-05 8.617052e-07
-3.055083e-05 -3.182244e-06 8.295092e-07
2.765327e-05 -8.824665e-06 -6.769356e-07
2.720607e-05 1.011966e-05 -6.769356e-07
-1.795212e-05 2.493107e-05 -8.240304e-07
-2.354910e-05 2.027683e-05 -2.782841e-22
1.630447e-05 2.428410e-05 -9.027759e-07
1.630447e-05 -2.428410e-05 -9.027759e-07
-2.348366e-05 1.750106e-05 9.304881e-07
-3.396728e-06 -3.053640e-05 8.213490e-07
-7.781452e-06 -2.820749e-05 9.112896e-07
-2.791262e-05 -8.795026e-06 9.144946e-07
-9.100228e-06 -2.933315e-05 8.330219e-07
3.533556e-06 -3.055115e-05 7.915140e-07
-2.934281e-05 -1.881272e-06 -1.001457e-06
-1.976727e-05 -2.095023e-05 2.388894e-08
-2.400785e-05 1.973154e-05 -2.782841e-22
1.755365e-05 2.307120e-05 -6.234385e-07
1.755365e-05 -2.307120e-05 -6.234385e-07
1.427020e-05 -2.554080e-05 9.081846e-07
-6.537950e-07 -3.072706e-05 8.123842e-07
-2.654377e-05 -1.127114e-05 -2.764211e-07
-2.916218e-05 -1.112076e-06 8.478721e-07
-2.901495e-05 -6.460977e-06 1.115827e-06
1.431174e-05 2.557974e-05 9.465459e-07
-3.034137e-05 -4.821967e-06 -8.238245e-07
-2.886627e-05 -5.739011e-06 -1.016060e-06
-2.445396e-05 1.917587e-05 -2.782841e-22
1.876135e-05 2.280520e-05 -1.060035e-06
1.876135e-05 -2.280520e-05 -1.060035e-06
-3.058135e-05 -3.337275e-06 -7.830917e-07
-1.269425e-05 -2.797003e-05 8.297038e-07
2.959735e-05 8.261957e-06 -8.173890e-07
2.959735e-05 -8.261957e-06 -8.173890e-07
-3.535179e-06 -2.911068e-05 -9.552465e-07
2.926034e-05 8.215750e-07 9.191897e-07
2.926669e-05 -6.310793e-07 9.203709e-07
-9.610038e-06 2.766029e-05 9.265729e-07
3.026240e-05 7.063823e-06 -2.782841e-22
-2.488723e-05 1.861011e-05 -2.782841e-22
-5.065591e-06 2.884076e-05 9.266390e-07
1.210440e-06 -2.887420e-05 4.571790e-07
2.643199e-05 1.561854e-05 8.428487e-07
2.643199e-05 -1.561854e-05 8.428487e-07
-2.325491e-05 2.003631e-05 8.478896e-07
1.475395e-05 2.475855e-05 -1.999915e-07
6.088887e-06 -2.894350e-05 1.076744e-06
-8.772821e-06 -2.830349e-05 1.093696e-06
-2.910669e-05 3.159695e-06 9.233931e-07
-5.266389e-07 2.927297e-05 9.234062e-07
-2.530740e-05 1.803457e-05 -2.782841e-22
-2.245684e-05 -1.831308e-05 -6.037483e-07
-2.811273e-05 -6.277043e-06 5.760887e-08
5.311072e-06 -2.844530e-05 -5.340854e-07
2.880747e-05 2.472495e-06 4.874151e-07
2.880747e-05 -2.472495e-06 4.874151e-07
-2.945714e-05 -2.439251e-06 1.070134e-06
2.702563e-05 1.465018e-05 -8.054444e-07
2.702563e-05 -1.465018e-05 -8.054444e-07
-4.310093e-06 3.043119e-05 8.115157e-07
-2.137446e-05 -2.072837e-05 1.124137e-06
-2.571427e-05 1.744955e-05 -2.782841e-22
-9.147563e-06 2.933541e-05 8.176877e-07
-7.682192e-06 -2.867781e-05 -1.108163e-06
3.122836e-06 -2.908754e-05 -9.064666e-07
-2.874872e-05 5.769611e-06 9.535761e-07
2.107544e-06 2.924614e-05 9.535904e-07
-3.073180e-05 -2.838978e-07 8.132655e-07
-2.485815e-05 1.810119e-05 7.961426e-07
-2.293856e-05 1.821705e-05 9.336882e-07
2.021132e-05 2.315893e-05 -8.083293e-07
2.021132e-05 -2.315893e-05 -8.083293e-07
-2.610761e-05 1.685535e-05 -2.782841e-22
2.087974e-05 -1.985226e-05 -1.304492e-07
2.087974e-05 1.985226e-05 -1.304492e-07
-6.643054e-07 -2.963827e-05 1.097489e-06
1.985609e-05 2.345801e-05 8.129736e-07
1.985609e-05 -2.345801e-05 8.129736e-07
1.161610e-05 2.847777e-05 7.905309e-07
-1.054172e-05 -2.681122e-05 1.133736e-07
-2.937416e-05 -3.483973e-06 -1.077757e-06
1.287424e-05 2.644258e-05 -1.005223e-06
1.131713e-05 -2.858295e-05 -8.046335e-07
-2.648723e-05 1.625229e-05 -2.782841e-22
1.918648e-05 2.169707e-05 -5.813121e-07
1.918648e-05 -2.169707e-05 -5.813121e-07
4.887320e-06 2.849439e-05 -4.812665e-07
-2.765342e-05 8.431087e-06 -4.804922e-07
-1.425809e-05 -2.728338e-05 7.599221e-07
-2.474158e-05 -1.493241e-05 4.547361e-07
-4.978304e-06 -3.035031e-05 7.904079e-07
1.290367e-05 -2.641232e-05 -9.975612e-07
2.465292e-05 1.525411e-05 6.245837e-07
2.465292e-05 -1.525411e-05 6.245837e-07
-2.685292e-05 1.564068e-05 -2.782841e-22
-2.839127e-05 -7.648540e-06 1.001685e-06
1.238922e-05 -2.815601e-05 7.848400e-07
-2.792842e-05 1.281228e-05 -8.191476e-07
1.852141e-05 -2.451555e-05 8.206456e-07
1.852141e-05 2.451555e-05 8.206456e-07
6.976268e-06 -2.811577e-05 5.893912e-07
-2.838266e-05 7.941589e-06 1.035800e-06
4.308184e-06 2.915636e-05 1.035874e-06
-3.244770e-06 -2.884870e-05 6.815054e-07
2.605180e-05 1.641422e-05 7.517725e-07
-2.720449e-05 1.502085e-05 -2.782841e-22
2.605180e-05 -1.641422e-05 7.517725e-07
2.357079e-05 1.677629e-05 5.236828e-07
2.357079e-05 -1.677629e-05 5.236828e-07
-2.784408e-05 -7.376595e-06 5.036119e-08
-4.557469e-07 -3.068844e-05 -8.515932e-07
1.569907e-05 -2.642385e-05 -8.107713e-07
1.570822e-05 2.643611e-05 -7.955538e-07
-1.580390e-05 2.500500e-05 1.077947e-06
-1.951844e-05 2.226620e-05 1.087298e-06
-2.964255e-05 -8.172864e-06 7.978599e-07
-2.754176e-05 1.439312e-05 -2.782841e-22
-2.519742e-05 -1.763784e-05 7.890811e-07
-2.553250e-05 1.510849e-05 1.103152e-06
2.030039e-05 2.065342e-05 5.750545e-07
2.030039e-05 -2.065342e-05 5.750545e-07
1.176996e-05 -2.725491e-05 1.107893e-06
-1.705015e-05 2.405443e-05 -1.040918e-06
-1.819797e-05 2.319398e-05 -1.039454e-06
-2.627821e-05 1.336480e-05 -1.039718e-06
-1.758877e-06 -2.957614e-05 -1.092702e-06
-4.722061e-06 -2.929405e-05 -1.104242e-06
-2.786454e-05 1.375782e-05 -2.782841e-22
-1.989362e-05 -2.347535e-05 -7.746082e-07
-1.132085e-05 -2.747357e-05 -1.113663e-06
-2.267582e-05 -2.056730e-05 9.145780e-07
2.512084e-05 -1.772937e-05 7.993295e-07
2.512084e-05 1.772937e-05 7.993295e-07
1.582044e-05 -2.513914e-05 1.111233e-06
1.581747e-05 2.513131e-05 1.109452e-06
-2.711681e-05 -1.272153e-05 -1.136108e-06
2.606691e-05 1.321558e-05 -8.837191e-07
2.606691e-05 -1.321558e-05 -8.837191e-07
-2.817267e-05 1.311529e-05 -2.782841e-22
3.051473e-05 -4.263301e-06 -7.290692e-07
3.051473e-05 4.263301e-06 -7.290692e-07
-2.765710e-05 8.606313e-06 5.841959e-07
5.058381e-06 2.852006e-05 5.841154e-07
2.836969e-05 -6.318057e-06 -7.247720e-07
2.838348e-05 6.379913e-06 -7.561472e-07
1.899237e-05 -2.422987e-05 -7.577335e-07
1.899237e-05 2.422987e-05 -7.577335e-07
-1.898720e-05 -2.276159e-05 1.096283e-06
2.155204e-05 2.194987e-05 7.842739e-07
3.009247e-05 7.755863e-06 -2.782841e-22
-2.846599e-05 1.246586e-05 -2.782841e-22
2.155204e-05 -2.194987e-05 7.842739e-07
2.032919e-06 -2.961503e-05 -1.107201e-06
1.352653e-05 -2.763676e-05 7.761885e-07
-6.024752e-06 2.817462e-05 1.350581e-07
-7.709153e-06 2.980793e-05 7.550618e-07
-1.560988e-05 -2.422043e-05 1.603138e-07
1.135590e-05 2.742346e-05 1.106498e-06
-2.849437e-06 3.065701e-05 7.545459e-07
-3.077306e-05 1.031958e-06 7.531793e-07
1.201130e-05 2.694945e-05 -1.049731e-06
-2.874434e-05 1.180988e-05 -2.782841e-22
1.729893e-05 -2.549231e-05 7.331959e-07
1.729893e-05 2.549231e-05 7.331959e-07
-2.873043e-05 2.186119e-06 1.501382e-07
-1.445264e-06 2.877722e-05 1.501759e-07
1.188966e-05 -2.700973e-05 -1.052132e-06
-3.031835e-05 -5.351045e-06 7.570157e-07
5.554750e-06 3.029289e-05 -7.445037e-07
[...]
POINT_DATA 3383
VECTORS 10.000GHz_fone_imag double
8.082754e-05 2.462146e-04 1.756905e-02
-2.487977e-04 6.961946e-05 1.752853e-02
8.429147e-05 -2.520648e-04 1.779660e-02
1.164770e-02 8.259479e-03 -1.755564e-02
1.440944e-02 -1.569347e-03 1.160776e-02
1.438605e-02 1.488554e-03 1.166166e-02
-2.512067e-03 -1.405647e-02 1.179513e-02
7.717109e-03 -1.345185e-02 -1.643728e-02
1.317744e-02 -8.477200e-03 -1.637786e-02
1.077581e-02 -1.136276e-02 -1.636215e-02
-1.084024e-02 -1.018325e-02 1.112827e-02
-1.109386e-02 -1.148869e-02 1.009976e-02
-1.144996e-02 -9.623355e-03 1.094538e-02
2.431880e-04 -2.227674e-04 1.754645e-02
-1.261498e-02 -9.837775e-03 9.652891e-03
7.246400e-03 -1.604015e-02 -1.366345e-02
5.501337e-04 -1.778011e-02 -1.344474e-02
4.295469e-03 -1.299473e-02 1.202238e-02
8.116103e-03 -1.146153e-02 1.206875e-02
-1.333221e-03 -5.240318e-04 -2.350067e-02
1.362009e-02 6.045555e-03 1.104242e-02
5.952721e-03 -1.276866e-02 1.194878e-02
-1.344599e-02 -4.977827e-03 1.176846e-02
-1.736002e-02 -4.920355e-03 -1.297124e-02
1.508686e-04 3.589487e-04 1.769995e-02
-1.728769e-02 4.916165e-03 -1.305668e-02
1.036296e-03 1.720080e-02 -1.364277e-02
-1.729250e-02 -5.492926e-03 -1.189749e-02
6.433827e-03 -1.578350e-02 -1.434168e-02
1.136842e-02 9.120161e-03 1.137919e-02
1.136558e-02 -9.118456e-03 1.137823e-02
9.302548e-03 -2.313205e-03 -2.136412e-02
-1.710108e-03 -9.106090e-03 -2.097848e-02
2.296917e-03 1.322509e-02 1.208540e-02
-1.624287e-03 1.746569e-02 -1.295512e-02
-4.781323e-05 3.617236e-05 1.759896e-02
-1.373903e-02 4.996160e-03 -1.692555e-02
-1.347168e-02 -4.197347e-03 -1.785815e-02
-1.464001e-02 -5.265498e-03 -1.632253e-02
-1.343827e-02 4.256671e-03 -1.791939e-02
1.019861e-02 9.134860e-03 -1.806725e-02
1.020079e-02 -9.135447e-03 -1.806747e-02
1.274953e-02 9.567858e-03 -1.562680e-02
1.274603e-02 -9.568923e-03 -1.562957e-02
1.728785e-02 7.854176e-03 -1.070145e-02
-5.299964e-03 -1.519712e-02 -1.551020e-02
-2.869303e-04 1.862945e-04 1.768358e-02
-1.312008e-02 -2.493543e-03 -1.850962e-02
-1.316996e-02 2.175048e-03 -1.829446e-02
1.379160e-02 5.772331e-03 1.110313e-02
-6.499563e-03 -1.315460e-02 -1.754730e-02
-1.430434e-02 4.047863e-03 1.119287e-02
-1.427675e-02 -4.000927e-03 1.118772e-02
4.939182e-03 7.610376e-03 -2.129744e-02
-1.476924e-02 -2.654426e-03 1.084219e-02
-1.450170e-02 3.068138e-03 1.114027e-02
-2.441315e-03 -1.435116e-02 1.110629e-02
3.257926e-05 -3.095402e-04 1.793133e-02
1.388067e-02 -4.626403e-03 1.115887e-02
3.789504e-03 -1.678318e-02 -1.418008e-02
-1.691674e-02 5.389277e-03 -1.325113e-02
3.388092e-03 1.734837e-02 -1.326191e-02
1.654793e-02 6.387658e-03 -1.311630e-02
-3.323535e-03 -1.629524e-02 -1.481197e-02
-8.801089e-03 1.231591e-02 -1.673846e-02
-8.721878e-03 -1.223074e-02 -1.669711e-02
1.250876e-03 -1.409027e-02 1.158968e-02
7.350248e-03 1.179000e-02 1.161563e-02
3.877071e-04 5.020083e-05 1.759546e-02
2.543346e-03 -3.545371e-03 -2.291631e-02
-4.794738e-04 1.363443e-02 1.164251e-02
8.530058e-03 -5.273161e-03 -2.090600e-02
8.549340e-03 5.252236e-03 -2.090937e-02
8.007048e-03 1.120129e-02 1.174345e-02
9.088238e-03 1.089434e-02 1.152036e-02
1.410410e-02 1.263744e-03 1.195699e-02
1.271541e-02 -4.273230e-03 -1.842785e-02
1.239441e-02 4.540702e-03 -1.835928e-02
-8.059698e-03 1.146593e-02 1.192813e-02
1.005883e-04 2.653669e-04 1.746926e-02
9.512454e-03 1.423337e-02 -1.467469e-02
9.667089e-03 -1.432291e-02 -1.443871e-02
1.344561e-02 -1.079459e-02 -1.387241e-02
1.565062e-03 1.368586e-02 1.207863e-02
4.610405e-03 1.674281e-02 -1.369338e-02
1.607802e-02 5.692441e-03 -1.418901e-02
4.098310e-03 1.310111e-02 1.170267e-02
-1.480861e-03 1.297838e-02 1.263201e-02
-1.887664e-02 -8.720751e-04 -1.065859e-02
6.395261e-04 4.736155e-04 -2.327253e-02
-1.667187e-04 1.153813e-04 1.765836e-02
7.404230e-03 9.660850e-03 -1.977246e-02
7.367748e-03 -9.662540e-03 -1.979731e-02
-8.886792e-03 1.507946e-02 -1.377346e-02
2.963930e-04 1.345155e-02 1.195304e-02
-4.513353e-03 -2.177601e-03 -2.280164e-02
1.625276e-02 7.688701e-04 -1.507368e-02
1.988512e-02 4.446504e-03 -4.558427e-03
-8.864501e-03 -1.584566e-02 -1.262511e-02
-1.302914e-02 -1.963756e-03 1.275184e-02
-1.874933e-02 -3.926359e-03 -1.076259e-02
-1.485254e-05 -2.246995e-04 1.768672e-02
1.295413e-02 1.525617e-02 -8.246903e-03
1.298406e-02 -1.528696e-02 -8.236773e-03
-1.249762e-02 -1.653771e-03 1.308935e-02
5.499737e-03 1.256229e-02 1.240261e-02
1.260276e-02 3.952400e-03 1.262520e-02
1.260649e-02 -3.923521e-03 1.268296e-02
-1.840060e-03 -1.807816e-02 -1.234838e-02
-1.728888e-02 -5.133811e-04 -1.311696e-02
-1.714513e-02 5.600626e-04 -1.357579e-02
5.726670e-03 -1.702462e-02 -1.324984e-02
1.045911e-04 -6.509218e-05 1.772285e-02
-7.655885e-05 6.887272e-04 1.740591e-02
2.998258e-03 -1.698802e-02 -1.406845e-02
3.202927e-04 8.421721e-03 -2.140385e-02
-1.169099e-02 -7.023295e-03 1.184306e-02
-1.181802e-02 7.093036e-03 1.178836e-02
1.052487e-02 -9.458420e-03 1.178899e-02
2.158468e-03 3.080713e-03 -2.311164e-02
-3.917760e-03 1.952452e-02 -7.611289e-03
5.683522e-03 1.925195e-02 -6.218104e-03
1.726442e-02 -1.352749e-03 -1.393393e-02
8.110989e-04 -1.730136e-02 -1.392180e-02
-4.227209e-04 -3.230707e-05 1.750949e-02
-9.281577e-03 -7.372652e-03 -1.974205e-02
1.817998e-03 4.117733e-04 -2.385760e-02
2.020952e-03 -1.003309e-02 -2.057532e-02
-1.010918e-02 -8.323629e-04 -2.097713e-02
-1.035764e-02 5.435407e-04 -2.064715e-02
1.972220e-02 1.810857e-03 -8.385917e-03
1.189124e-02 6.368404e-03 1.239373e-02
1.187942e-02 -6.381385e-03 1.234384e-02
1.967962e-03 -1.369734e-02 1.230273e-02
1.473772e-02 1.404592e-02 -3.130754e-03
-1.855161e-04 1.853466e-04 1.765625e-02
4.048676e-03 -1.307279e-02 1.213930e-02
-5.295104e-03 -1.952461e-02 -5.525139e-03
1.816455e-03 -1.729476e-02 -1.349651e-02
1.777891e-02 -3.672794e-03 -1.200409e-02
-1.226087e-03 -1.825096e-02 -1.213575e-02
1.365834e-02 4.340759e-04 1.223261e-02
1.042138e-02 -7.377221e-03 1.341297e-02
1.421357e-02 -1.105648e-02 -1.305991e-02
8.901152e-03 9.619856e-03 1.280171e-02
8.866332e-03 -9.628466e-03 1.282201e-02
-3.318411e-04 1.815491e-04 1.740140e-02
1.896537e-03 -1.616837e-03 -2.330743e-02
1.896206e-03 1.616970e-03 -2.330582e-02
4.796421e-04 2.015959e-02 -6.153868e-03
-8.836420e-03 -1.030744e-02 1.251145e-02
-8.795655e-03 1.029372e-02 1.245280e-02
-4.697046e-03 -1.232355e-02 1.258452e-02
7.744801e-04 2.216617e-03 -2.340520e-02
-2.036247e-02 -2.556753e-03 -7.142160e-03
8.317894e-03 1.645657e-02 -1.113217e-02
4.890138e-03 -1.219434e-02 1.267679e-02
-3.353699e-04 -3.988861e-05 1.762290e-02
7.516997e-03 8.520951e-03 -2.047151e-02
7.523827e-03 -8.521390e-03 -2.048601e-02
1.674873e-03 9.993803e-03 -2.117268e-02
-9.645570e-03 2.890284e-03 -2.104981e-02
5.762490e-03 1.127187e-02 1.320450e-02
7.613743e-03 4.291556e-03 -2.157201e-02
1.870874e-03 1.269644e-02 1.301656e-02
8.584788e-03 -1.645850e-02 -1.115888e-02
-1.014165e-02 -6.346612e-03 -1.936959e-02
-1.015329e-02 6.321195e-03 -1.934522e-02
8.966064e-05 -1.714135e-04 1.749836e-02
1.840410e-02 4.861987e-03 -1.089365e-02
-4.826718e-03 1.194772e-02 1.287467e-02
-1.266450e-02 5.600380e-03 1.207283e-02
-8.228276e-03 1.100335e-02 1.197321e-02
-8.222177e-03 -1.093485e-02 1.210606e-02
-2.775949e-03 1.102121e-02 -1.961869e-02
1.856290e-02 -5.393535e-03 -1.027850e-02
-3.033524e-03 -1.886658e-02 -1.014600e-02
1.523459e-03 1.310272e-02 -1.876233e-02
-1.022779e-02 -6.044722e-03 1.362565e-02
-3.760086e-06 9.628967e-05 1.763615e-02
-1.023196e-02 6.086226e-03 1.363536e-02
-8.346212e-03 -5.999939e-03 -2.047997e-02
-8.345779e-03 5.999657e-03 -2.047689e-02
3.321604e-04 4.390203e-05 -2.336081e-02
-9.339606e-05 -1.439308e-02 1.175865e-02
6.642391e-03 -1.152750e-02 1.301179e-02
6.772189e-03 1.118365e-02 1.309248e-02
1.074701e-02 -1.657274e-02 -8.092629e-03
1.328230e-02 -1.506993e-02 -7.148403e-03
1.284735e-02 3.798734e-03 1.273449e-02
4.155725e-05 -8.352127e-05 1.777355e-02
1.032571e-02 7.220128e-03 1.309466e-02
1.735204e-02 -1.043025e-02 -5.808982e-03
-7.904272e-03 -8.383448e-03 -2.005085e-02
-7.903456e-03 8.387553e-03 -2.005348e-02
-8.245753e-03 1.855005e-02 -5.938238e-03
-1.141030e-02 1.552901e-02 -9.378137e-03
-1.152636e-02 1.526994e-02 -9.971006e-03
-1.711720e-02 8.805150e-03 -9.635485e-03
-1.135478e-03 -2.024579e-02 -7.090284e-03
-2.907150e-03 -2.001922e-02 -6.361648e-03
8.478072e-06 -1.419309e-04 1.767144e-02
-7.998724e-03 -9.532716e-03 1.322457e-02
-7.565730e-03 -1.903897e-02 -4.702436e-03
1.111419e-02 1.063829e-02 1.035695e-02
-1.073763e-02 7.468358e-03 1.277177e-02
-1.073747e-02 -7.464134e-03 1.277147e-02
-1.118996e-02 1.725625e-02 -5.084626e-03
-1.074775e-02 -1.726439e-02 -5.083005e-03
-1.815814e-02 -8.678131e-03 -2.759270e-04
1.468135e-02 7.926989e-03 -1.495579e-02
1.459623e-02 -7.944844e-03 -1.489934e-02
6.155934e-04 -1.794332e-04 1.767673e-02
1.159697e-02 -1.590067e-03 1.397874e-02
1.149471e-02 1.683750e-03 1.406797e-02
1.132924e-02 -3.772350e-03 -1.995410e-02
-2.052331e-03 -1.195377e-02 -1.978551e-02
1.380447e-02 -3.075439e-03 -1.761147e-02
1.362688e-02 3.152957e-03 -1.743529e-02
7.899120e-03 -1.005440e-02 1.340744e-02
7.875877e-03 1.006611e-02 1.342042e-02
1.275537e-02 1.540119e-02 -6.002600e-03
-9.101058e-03 -9.340096e-03 1.320263e-02
1.772881e-04 -7.004701e-05 1.765592e-02
2.194286e-04 -7.652135e-05 1.765318e-02
-9.098691e-03 9.338618e-03 1.319857e-02
9.773650e-04 -2.026008e-02 -6.031975e-03
-5.840337e-03 1.148151e-02 1.302048e-02
8.193024e-04 -2.711647e-03 -2.329703e-02
2.891450e-03 -1.222357e-02 1.344862e-02
2.191118e-03 2.570555e-03 -2.331315e-02
-7.461221e-03 -1.885158e-02 -5.956609e-03
1.263055e-03 -1.238017e-02 1.363559e-02
1.246017e-02 -3.904997e-04 1.361236e-02
7.580976e-03 1.805662e-02 -9.102625e-03
2.016878e-05 2.938942e-04 1.757881e-02
-6.428943e-03 9.612314e-03 1.399510e-02
-6.759663e-03 -9.773424e-03 1.377638e-02
3.261445e-03 -1.133231e-04 -2.330087e-02
2.853681e-04 -3.252086e-03 -2.332090e-02
7.731848e-03 -1.788473e-02 -9.321811e-03
1.225722e-02 2.028113e-03 1.354090e-02
2.080135e-03 1.189016e-02 1.363176e-02
-1.233670e-02 1.297768e-03 1.370889e-02
-1.185799e-02 3.816974e-03 1.327111e-02
-3.993748e-03 1.160788e-02 1.365407e-02
1.817958e-04 -1.117732e-04 1.748686e-02
-1.862038e-03 1.229247e-02 1.356994e-02
-2.492914e-04 1.240432e-02 1.370978e-02
-4.855095e-03 1.799418e-02 -1.161291e-02
4.624228e-03 1.222565e-02 1.291684e-02
6.203122e-03 -1.928865e-02 -5.534084e-03
-1.033964e-02 1.660236e-02 -9.219179e-03
-1.288727e-02 1.473255e-02 -9.259487e-03
-1.687529e-02 9.622634e-03 -9.064649e-03
2.760909e-03 -2.019562e-02 -5.830099e-03
-3.857043e-03 -1.281538e-02 1.257638e-02
-6.398043e-06 4.244531e-04 1.754385e-02
-1.807048e-02 -9.234318e-03 -5.019880e-03
-1.815229e-02 9.341726e-03 -5.044061e-03
2.025873e-02 1.965248e-04 -6.075379e-03
-1.179943e-02 5.054160e-03 -1.914143e-02
-1.189058e-02 -5.080399e-03 -1.960548e-02
-1.104872e-02 6.852513e-03 1.288767e-02
-8.814770e-03 9.651047e-03 1.302189e-02
-6.859284e-03 1.143854e-02 1.279989e-02
-1.142420e-02 -1.055900e-02 -1.636872e-02
-1.142333e-02 1.055954e-02 -1.637184e-02
-2.049215e-04 3.327398e-04 1.755976e-02
-1.303079e-02 8.882947e-04 1.270685e-02
-1.296447e-02 -1.029818e-03 1.282375e-02
-1.345464e-02 -9.157075e-03 -1.585185e-02
1.268168e-02 -4.482875e-04 -1.908317e-02
1.267989e-02 5.356494e-04 -1.919435e-02
-9.497845e-03 -1.092298e-02 -1.745137e-02
3.557593e-03 -1.655067e-02 8.667070e-03
1.266712e-02 7.061192e-04 1.333303e-02
-1.187397e-02 -1.673180e-02 -4.308265e-03
-1.142957e-02 1.691029e-02 -4.484729e-03
-5.817736e-04 1.326574e-05 1.751967e-02
-5.666864e-03 1.076630e-02 1.345601e-02
1.192133e-02 -1.656699e-02 -2.840584e-04
1.676590e-02 -1.210904e-02 -7.077384e-04
-5.740724e-03 -6.428730e-04 -2.271593e-02
-5.740346e-03 8.298673e-04 -2.275685e-02
-1.948029e-02 -5.058528e-03 -7.211470e-03
-8.781283e-03 -5.093054e-04 -2.166886e-02
1.187397e-03 -3.155792e-03 -2.311440e-02
3.937426e-03 -1.993752e-02 -4.158216e-03
-4.637277e-03 -1.105357e-02 1.353145e-02
-1.608584e-04 3.482741e-04 1.754455e-02
-1.297947e-03 -1.683243e-03 -2.345907e-02
2.565553e-03 -5.888373e-04 -2.319390e-02
-1.271681e-04 -2.631076e-03 -2.321983e-02
9.984577e-03 4.207427e-03 -2.044381e-02
1.592342e-02 -9.136969e-03 -1.182739e-02
-3.736561e-03 1.301486e-02 1.280523e-02
1.313215e-02 1.424766e-02 -9.694843e-03
-1.178430e-03 1.992032e-02 -7.894132e-03
2.033406e-02 -3.220034e-03 -4.399395e-03
-6.073505e-04 -2.053973e-02 -4.354689e-03
-2.125350e-04 -1.215417e-04 1.777638e-02
8.327521e-03 9.381276e-03 1.356421e-02
8.294399e-04 1.944114e-02 -9.369152e-03
-1.911433e-02 3.238283e-03 -9.373492e-03
2.931353e-03 2.020904e-02 -3.609319e-03
1.106895e-02 -6.749935e-03 1.256810e-02
-2.468103e-03 -5.783372e-03 -2.256304e-02
-1.244558e-02 -2.398028e-03 1.318123e-02
8.756388e-04 4.621349e-03 -2.304931e-02
1.925901e-03 7.578510e-03 -2.200527e-02
-1.243326e-02 -1.005445e-03 1.329651e-02
-5.399585e-04 -1.029136e-04 1.767169e-02
-2.380898e-03 2.039936e-02 -1.016974e-03
2.795835e-03 2.010027e-02 -5.449393e-03
9.102110e-03 5.580493e-03 -2.031478e-02
1.695095e-02 -8.739274e-03 -1.039288e-02
5.314444e-03 2.512863e-03 -2.246963e-02
5.552595e-03 -2.489668e-03 -2.236515e-02
-3.278342e-03 -1.128567e-02 -1.966042e-02
1.228212e-02 -1.505884e-02 -9.304235e-03
8.261266e-03 -1.056385e-02 1.256096e-02
-4.302654e-03 3.991159e-03 -2.254260e-02
1.464756e-04 -1.557692e-04 1.772650e-02
-1.198983e-03 -3.189760e-03 -2.334909e-02
-7.259723e-03 2.797516e-03 -2.202205e-02
-7.305509e-03 2.807944e-03 -2.212882e-02
5.650323e-04 -1.341733e-03 -2.358213e-02
1.301131e-04 -1.525113e-03 -2.332489e-02
4.186314e-03 1.133780e-02 1.350151e-02
-6.577047e-03 -9.952762e-03 1.382712e-02
-5.346551e-03 -1.131956e-02 1.347681e-02
-1.228670e-02 1.364312e-03 1.352399e-02
-1.224215e-02 -8.126131e-04 1.338840e-02
6.155915e-04 5.574738e-05 1.763217e-02
-9.758398e-06 1.477777e-04 1.761441e-02
2.038887e-02 1.113870e-03 -5.371696e-03
-5.582207e-03 1.813347e-02 -1.065715e-02
-1.940703e-02 -2.172299e-04 -9.343908e-03
-2.633392e-03 1.946158e-02 -9.069206e-03
-2.005738e-03 -1.074142e-02 1.455811e-02
-6.029657e-03 1.876364e-02 -8.967693e-03
9.852378e-03 -1.810023e-02 -2.767406e-03
-6.641907e-03 8.414588e-03 -2.034975e-02
2.163062e-03 -7.623997e-04 -2.311585e-02
-5.260701e-04 -2.269714e-03 -2.314834e-02
-3.856533e-04 3.201359e-04 1.778709e-02
1.714669e-02 -1.122434e-02 -3.835045e-03
1.476016e-02 -1.421111e-02 -3.311563e-03
1.344887e-03 8.066415e-03 -2.184209e-02
2.008035e-02 3.195319e-03 -4.880038e-03
-6.296095e-03 -1.010610e-02 1.399460e-02
1.484719e-02 1.416605e-02 -2.378203e-03
1.484644e-02 -1.416798e-02 -2.377618e-03
-1.494208e-03 -1.228883e-02 1.352120e-02
1.200518e-02 -3.226879e-03 1.367313e-02
-1.161908e-02 -1.683666e-02 -6.449171e-03
-6.594125e-04 3.059148e-05 1.777595e-02
1.042349e-02 5.096378e-03 1.400395e-02
-4.346979e-03 -1.157515e-02 1.340301e-02
9.474282e-03 7.333956e-03 1.361607e-02
-1.882445e-02 -7.946327e-03 -5.521186e-03
-2.609852e-03 1.294803e-02 1.254613e-02
-1.063143e-02 -4.578775e-03 1.394252e-02
-1.104051e-02 4.504878e-03 1.377068e-02
-7.910716e-04 -1.171747e-02 -1.978806e-02
-1.192266e-02 -5.300313e-03 1.282979e-02
-1.187648e-02 5.186972e-03 1.299456e-02
-1.609116e-04 -4.847187e-04 1.765452e-02
7.925018e-03 -3.281434e-03 -2.163954e-02
-9.099535e-03 1.821723e-02 6.408218e-05
-4.485446e-07 4.882189e-04 -2.351734e-02
1.123042e-02 -6.255080e-03 1.323355e-02
8.855746e-03 -8.938774e-03 1.328741e-02
-1.361218e-02 -1.417965e-02 -9.018876e-03
-1.361051e-02 1.418240e-02 -9.019266e-03
8.377278e-03 -6.492070e-03 -2.052655e-02
8.377732e-03 6.491097e-03 -2.052604e-02
-1.982947e-02 -2.140186e-03 9.906311e-04
-7.741543e-05 1.457776e-05 1.778393e-02
-1.987272e-02 2.205872e-03 9.157456e-04
-2.973414e-03 7.554447e-03 -2.172523e-02
-3.695349e-03 1.967539e-02 -7.161451e-03
4.070056e-03 1.984922e-02 -6.477020e-03
-1.904421e-02 5.091131e-03 -8.085087e-03
-1.922725e-02 4.496243e-03 -8.239977e-03
2.736753e-03 1.974677e-02 -8.181333e-03
1.955409e-03 1.971744e-02 -8.286575e-03
-8.774731e-03 7.607238e-03 -1.974608e-02
8.011900e-03 1.818720e-02 -8.212663e-03
9.066055e-05 -1.321095e-04 1.800425e-02
-6.521883e-03 -1.913403e-02 -5.734139e-03
1.226487e-03 -8.342631e-03 -2.144609e-02
-1.528468e-02 -2.469509e-03 -1.703868e-02
-1.067646e-02 -3.076559e-03 -2.022506e-02
3.616864e-03 1.996538e-02 1.316278e-03
-2.017582e-02 2.057899e-03 1.591153e-03
-1.920363e-02 6.078168e-03 1.146278e-03
-6.907006e-03 1.921049e-02 1.408389e-03
-4.808821e-04 2.029283e-02 1.592243e-03
-5.943014e-03 -1.024845e-02 1.394670e-02
2.822355e-04 -2.820884e-05 1.780234e-02
-5.357230e-03 1.924638e-02 -7.651975e-03
-1.975142e-02 4.729824e-04 -8.428672e-03
-2.096295e-03 1.969048e-02 -8.475174e-03
-6.789363e-04 6.421810e-03 -2.225273e-02
2.884161e-03 1.181632e-02 1.362465e-02
1.385283e-03 7.989855e-03 -2.133670e-02
-8.049189e-03 2.174489e-03 -2.133802e-02
-9.994622e-04 1.985095e-02 -8.927253e-03
-1.981392e-02 1.507378e-03 -8.931778e-03
6.776349e-03 1.846165e-02 2.301776e-03
3.979965e-04 2.120847e-05 1.780111e-02
3.033963e-03 1.215868e-02 1.313100e-02
5.665522e-03 -9.723851e-03 1.432828e-02
-8.720182e-04 1.264619e-02 1.342271e-02
-1.112118e-03 1.260929e-02 1.348848e-02
-4.764783e-03 1.174601e-02 1.335642e-02
-5.302327e-03 1.127218e-02 1.324753e-02
-1.296622e-02 5.135151e-04 1.314179e-02
-1.226403e-02 2.743544e-03 1.333342e-02
-1.266033e-02 7.338090e-04 1.342684e-02
-1.271560e-02 2.594252e-03 1.289701e-02
-3.590277e-05 2.299984e-04 1.788641e-02
-1.119901e-02 4.299385e-03 1.366179e-02
-1.105631e-02 3.991292e-03 1.371817e-02
-9.642405e-03 7.632681e-03 1.354814e-02
-9.790562e-03 8.459875e-03 1.290814e-02
-3.264313e-03 1.218122e-02 1.347318e-02
-2.907431e-03 1.254205e-02 1.305448e-02
8.577853e-04 1.246671e-02 1.342773e-02
1.140026e-03 1.328722e-02 1.300487e-02
1.660195e-02 1.186321e-02 -3.075645e-03
1.122414e-02 2.527882e-03 1.428561e-02
-4.799117e-05 3.103076e-04 1.763764e-02
-7.752750e-03 -1.449956e-02 9.439032e-03
9.172727e-03 1.824818e-02 -4.425384e-03
-3.795143e-03 1.943484e-02 -7.891666e-03
8.048491e-03 8.331883e-03 1.416643e-02
8.044900e-03 -8.333563e-03 1.416393e-02
8.049185e-03 7.336649e-03 -2.029118e-02
-5.967086e-03 9.518017e-03 1.445533e-02
3.922939e-03 -1.124003e-02 1.398687e-02
-7.185875e-03 -2.643314e-03 -2.203460e-02
7.448757e-03 -1.105599e-02 1.285146e-02
3.170649e-05 2.659883e-04 1.752076e-02
5.866656e-05 -4.633342e-05 1.775568e-02
-4.340146e-03 1.924800e-02 -7.994705e-03
-7.374563e-03 1.855063e-02 -8.272083e-03
1.056583e-02 -4.428403e-03 1.403359e-02
-5.973364e-03 1.036038e-02 1.382472e-02
1.011205e-02 -6.394408e-03 1.385770e-02
2.570139e-03 -1.410770e-02 -1.739125e-02
9.314108e-03 5.755261e-03 1.440284e-02
9.316479e-03 -5.781449e-03 1.441532e-02
1.263081e-03 1.995576e-02 -7.373353e-03
-1.950472e-02 3.708015e-03 -7.483420e-03
-4.264948e-04 1.028789e-04 1.763500e-02
7.842129e-03 2.690035e-03 -2.151338e-02
1.520738e-02 1.186318e-02 3.809961e-03
4.786191e-03 -9.956558e-03 1.444876e-02
-8.023178e-05 -1.268380e-02 1.344513e-02
1.883695e-02 6.693710e-03 -6.448261e-03
1.907191e-02 -6.432723e-03 -6.185275e-03
1.261149e-02 -1.675878e-03 1.345580e-02
-9.779678e-03 7.075998e-03 1.359623e-02
-8.674568e-03 8.283003e-03 1.425351e-02
-5.001594e-03 1.068097e-02 1.381030e-02
-7.974806e-05 -9.928280e-05 1.758306e-02
6.626626e-04 1.218027e-02 1.362407e-02
-3.368618e-03 1.153329e-02 1.381904e-02
-1.180001e-02 3.432382e-03 1.347465e-02
-1.204038e-02 2.113257e-03 1.364907e-02
-2.135434e-03 1.198534e-02 1.377973e-02
7.678714e-03 2.526189e-03 -2.165089e-02
-9.560186e-03 1.675445e-02 -9.318852e-03
1.898123e-03 1.183652e-02 1.405205e-02
7.951278e-03 -9.368562e-03 1.365208e-02
1.259634e-02 -1.981528e-03 1.276928e-02
-3.092876e-04 -1.274758e-04 1.756585e-02
1.232161e-02 2.328621e-03 1.306726e-02
-2.377865e-04 -5.544045e-04 -2.343021e-02
-1.573910e-03 -1.105163e-02 1.452518e-02
1.439349e-03 -5.526920e-03 -2.275412e-02
-1.233216e-03 1.103148e-02 1.444897e-02
6.328638e-03 4.695665e-03 -2.192113e-02
-1.032656e-02 -2.213876e-03 -2.062697e-02
-1.040532e-02 2.256800e-03 -2.096051e-02
-1.013739e-02 -5.812491e-03 1.436917e-02
6.965010e-03 9.048563e-03 1.426495e-02
1.069463e-04 -1.621978e-04 1.742860e-02
2.396483e-03 -1.231494e-02 1.384646e-02