# vtk DataFile Version 2.0
Electric current density generated by TTH
ASCII
DATASET UNSTRUCTURED_GRID
POINTS 2133 double
-2.474593e-05 3.359003e-06 -3.773635e-22
-1.929234e-05 -1.356734e-05 -1.533072e-06
-6.363212e-06 -2.390132e-05 -8.242332e-07
-1.693041e-05 -1.633158e-05 -1.537988e-06
2.251634e-05 -3.092701e-06 1.370245e-06
2.251648e-05 3.091132e-06 1.370203e-06
-1.921121e-05 1.542744e-05 -9.578627e-07
-3.029299e-06 2.445199e-05 -9.578560e-07
2.050760e-05 1.095804e-05 -1.530096e-06
1.230683e-05 -1.946937e-05 -1.488071e-06
-1.341357e-05 -2.079725e-05 8.019263e-07
-2.485700e-05 2.402859e-06 -3.773635e-22
2.274478e-05 -4.784045e-06 -1.528981e-06
1.580369e-05 -1.714107e-05 1.536216e-06
-1.411543e-05 2.032058e-05 -8.110649e-07
-2.428410e-05 4.739243e-06 -8.108546e-07
-2.459306e-05 -2.831202e-06 -7.890296e-07
-7.235575e-06 -2.089770e-05 7.990662e-07
1.931926e-05 -1.064419e-05 6.957308e-07
-1.331744e-05 -1.812298e-05 1.218999e-06
-1.792749e-05 -1.322676e-05 -1.021458e-06
-2.146328e-05 -5.194411e-06 7.438112e-07
-2.493113e-05 1.443145e-06 -3.773635e-22
-2.337661e-05 7.894121e-06 9.125668e-07
-5.931272e-06 2.393524e-05 -9.317500e-07
-2.093257e-05 1.303471e-05 -9.317394e-07
1.055344e-06 -2.307188e-05 -1.503584e-06
-1.121411e-05 2.079018e-05 -1.528992e-06
-2.253648e-05 7.088940e-06 -1.528573e-06
1.453608e-05 -1.846748e-05 1.539119e-06
-2.019722e-05 1.214892e-05 -1.534565e-06
-8.604425e-07 2.237900e-05 1.139810e-06
-1.696285e-05 -1.384486e-05 -1.132494e-07
-2.496823e-05 4.812866e-07 -3.773635e-22
-2.300708e-05 -5.409102e-06 -1.527374e-06
-1.953071e-05 -1.339356e-05 1.520315e-06
-1.626260e-05 -1.655583e-05 1.524171e-06
-2.002992e-05 1.002838e-05 1.143983e-06
2.310917e-05 -8.852839e-06 8.033411e-07
-2.121748e-05 5.875816e-06 -6.069598e-07
-2.025817e-05 -8.375735e-06 3.021187e-07
1.530549e-05 1.582868e-05 6.121653e-07
2.145913e-05 -6.250574e-06 -1.097587e-06
5.830729e-06 -2.401548e-05 -8.560334e-07
-2.496823e-05 -4.812866e-07 -3.773635e-22
-1.625990e-05 1.573806e-05 -1.314788e-06
-7.589163e-07 2.261782e-05 -1.315745e-06
-2.020559e-05 1.019272e-05 -1.315956e-06
-2.054835e-05 7.572133e-06 1.535344e-07
1.828765e-06 2.182141e-05 1.408619e-07
1.898666e-05 -1.224785e-05 1.292974e-06
-1.200238e-05 -2.041467e-05 1.520385e-06
8.067878e-06 -2.210618e-05 1.537439e-06
2.176667e-05 8.199596e-06 1.531040e-06
-2.427390e-05 4.737252e-06 8.274114e-07
-2.493113e-05 -1.443145e-06 -3.773635e-22
2.922896e-06 -2.450193e-05 9.096693e-07
1.808080e-05 1.480175e-05 -1.539316e-06
1.805702e-05 -1.483145e-05 -1.539335e-06
-2.112160e-05 -1.281488e-05 8.679440e-07
1.925453e-05 1.074658e-05 6.818120e-07
2.153373e-05 1.200477e-05 -9.386428e-07
1.992115e-05 -1.466832e-05 -8.162586e-07
2.233176e-05 1.063812e-05 -8.206048e-07
1.524441e-05 -1.591490e-05 6.559332e-07
3.564147e-06 2.161857e-05 -2.408682e-07
-2.485700e-05 -2.402859e-06 -3.773635e-22
5.267256e-06 2.169602e-05 -1.072719e-06
-1.803021e-05 -1.275312e-05 7.469234e-07
-1.758320e-05 -1.586017e-05 1.520737e-06
2.397991e-05 -6.001234e-06 -8.465683e-07
-1.812689e-05 1.500547e-05 -1.537474e-06
-2.545606e-06 2.339378e-05 -1.537473e-06
1.449850e-05 -2.003657e-05 8.271840e-07
-1.098093e-05 -2.033454e-05 1.506655e-06
-7.142645e-06 2.232056e-05 1.540700e-06
1.460376e-05 1.859077e-05 1.526514e-06
-2.474593e-05 -3.359003e-06 -3.773635e-22
-1.501094e-05 1.799742e-05 1.540699e-06
2.865711e-06 -2.175659e-05 -4.008139e-07
-2.207236e-05 -1.360683e-06 7.980707e-07
-1.787458e-05 1.268058e-05 2.722093e-07
1.899114e-05 1.225968e-05 1.299513e-06
-2.176085e-05 -1.174010e-05 -8.368352e-07
9.561940e-06 2.156727e-05 1.532400e-06
-2.423490e-05 -4.909821e-06 -8.345723e-07
-2.378383e-05 6.763398e-06 -8.352862e-07
-1.233937e-05 2.142430e-05 -8.400784e-07
-2.459810e-05 -4.310156e-06 -3.773635e-22
-1.786082e-05 -1.488747e-05 -1.530109e-06
-7.280607e-06 -2.366210e-05 -7.867159e-07
-5.280183e-06 -2.164330e-05 -1.020715e-06
1.972832e-05 -1.485126e-05 8.848262e-07
1.972832e-05 1.485126e-05 8.848262e-07
-1.624700e-05 1.771489e-05 -1.416973e-06
6.766905e-07 2.402540e-05 -1.417900e-06
-9.217988e-06 2.219279e-05 -1.419545e-06
-2.207608e-05 9.494566e-06 -1.419464e-06
-9.832011e-06 -1.966567e-05 -5.327989e-07
-2.441372e-05 -5.254906e-06 -3.773635e-22
-6.045698e-06 -2.286821e-05 1.524667e-06
8.028074e-06 2.058089e-05 -7.587514e-07
2.013809e-05 8.693609e-06 -3.615472e-07
2.177633e-05 9.704127e-06 1.485553e-06
1.506700e-05 -1.629274e-05 -9.136826e-07
1.288548e-05 -2.112826e-05 8.022717e-07
2.167341e-05 8.685218e-06 -1.538450e-06
-2.189176e-05 3.180732e-06 8.100917e-07
1.309414e-05 -1.765925e-05 5.265038e-07
-2.194531e-05 8.658799e-07 -4.620899e-07
-2.419308e-05 -6.191849e-06 -3.773635e-22
-2.118265e-05 6.990474e-06 -1.051771e-06
1.079702e-06 -2.473324e-05 -7.868328e-07
1.263964e-05 1.840447e-05 -1.073268e-06
-2.299692e-05 6.030475e-06 1.502198e-06
-1.748319e-05 -1.741801e-05 9.051842e-07
1.969794e-05 -1.184361e-05 -1.474186e-06
1.396416e-05 1.930045e-05 -1.490474e-06
-1.779268e-05 -1.633722e-05 -1.360390e-06
1.473627e-05 1.982722e-05 8.699341e-07
2.461401e-05 2.347255e-06 -8.370072e-07
-2.393649e-05 -7.119593e-06 -3.773635e-22
2.462131e-05 -2.324129e-06 -8.291002e-07
1.765435e-06 2.288441e-05 1.464105e-06
-2.331704e-05 4.052815e-06 1.522757e-06
2.070735e-05 -7.135764e-06 -1.829910e-07
8.001417e-06 2.235637e-05 1.508586e-06
-7.322419e-06 2.259431e-05 -1.507305e-06
-2.099599e-05 1.110365e-05 -1.507295e-06
2.222058e-05 7.161989e-06 -1.538307e-06
1.030613e-05 -1.946039e-05 6.183175e-07
-1.872734e-05 1.607640e-05 9.019681e-07
-2.364433e-05 -8.036759e-06 -3.773635e-22
2.299451e-05 -5.742775e-06 -1.517106e-06
-3.442381e-06 -2.342155e-05 1.521736e-06
-1.742053e-05 1.613632e-05 -1.508475e-06
-1.250964e-06 2.371267e-05 -1.508474e-06
2.185293e-05 -8.134003e-06 1.536442e-06
2.304022e-05 -5.871413e-06 1.501715e-06
2.301089e-05 9.049219e-06 -8.360594e-07
1.244778e-05 1.982573e-05 -1.540538e-06
2.501528e-06 2.215243e-05 -1.037592e-06
-2.150952e-05 8.020111e-06 1.465303e-06
-2.331705e-05 -8.941985e-06 -3.773635e-22
-1.951622e-05 -1.518511e-05 -8.335269e-07
1.393168e-05 -1.689672e-05 -1.578350e-07
-1.460234e-05 -1.679930e-05 9.982460e-07
-2.468232e-05 1.722050e-06 8.107119e-07
-6.589722e-06 -2.088172e-05 -1.284765e-07
2.178713e-05 -9.714523e-06 1.481604e-06
-1.108544e-05 -1.988912e-05 -1.391060e-06
3.298235e-06 -2.241619e-05 1.331810e-06
-8.180219e-06 2.082369e-05 1.118712e-06
-2.119341e-05 -1.050397e-05 -1.524704e-06
-2.295513e-05 -9.833925e-06 -3.773635e-22
8.621770e-06 2.040873e-05 8.620011e-07
-4.715733e-06 2.426535e-05 8.467314e-07
-1.349338e-05 2.071169e-05 8.467313e-07
-4.690065e-06 -2.426869e-05 -8.491687e-07
-1.660627e-06 -2.365297e-05 1.515226e-06
2.402240e-05 5.677850e-06 8.977540e-07
-1.540743e-05 1.622287e-05 1.119306e-06
6.441863e-06 -2.240109e-05 -1.535767e-06
5.517639e-06 -2.260815e-05 -1.532327e-06
2.374120e-05 -2.136203e-06 -1.486535e-06
-2.255910e-05 -1.071126e-05 -3.773635e-22
2.374120e-05 2.136203e-06 -1.486535e-06
-8.196856e-06 -2.093921e-05 1.216277e-06
2.027284e-05 -1.413063e-05 8.583810e-07
2.027284e-05 1.413063e-05 8.583810e-07
-5.835892e-07 -2.474003e-05 -8.032438e-07
1.830618e-05 1.232968e-05 7.221499e-07
2.199652e-05 -3.377093e-06 -9.931256e-07
1.954551e-05 1.301111e-05 1.539957e-06
1.954527e-05 -1.301093e-05 1.539966e-06
2.354838e-05 -3.643236e-06 -1.488843e-06
-2.212955e-05 -1.157267e-05 -3.773635e-22
2.246807e-06 2.464416e-05 -8.041338e-07
2.352301e-05 3.670588e-06 -1.494243e-06
2.150637e-05 4.136850e-06 1.678046e-07
1.834028e-05 -1.228888e-05 7.325372e-07
-1.741928e-05 1.327223e-05 -1.561930e-07
-1.828907e-05 1.204563e-05 -1.570425e-07
-2.476280e-05 -9.550084e-07 -7.442024e-07
6.539748e-06 -2.161243e-05 1.283718e-06
1.430462e-05 -1.760980e-05 1.348852e-06
2.196617e-05 -4.464095e-06 -1.157386e-06
-2.166713e-05 -1.241690e-05 -3.773635e-22
-2.461600e-05 2.859387e-06 -7.436511e-07
-1.566348e-05 1.920365e-05 -7.436035e-07
1.871149e-05 1.457880e-05 1.513486e-06
1.871149e-05 -1.457880e-05 1.513486e-06
1.103645e-05 -2.209807e-05 -8.742982e-07
-2.350515e-05 -3.656093e-06 -1.499098e-06
2.074408e-05 7.017316e-06 -1.507165e-07
-3.236470e-06 2.166085e-05 -1.739026e-07
-1.114338e-05 1.885450e-05 -1.739029e-07
-1.941836e-05 -1.109954e-05 -1.112981e-06
-2.117252e-05 -1.324267e-05 -3.773635e-22
-5.727377e-06 -2.302716e-05 -1.511889e-06
-2.258955e-05 -1.019695e-05 -7.384262e-07
1.739541e-05 -1.341285e-05 -4.734109e-07
1.743616e-05 1.335615e-05 -4.664054e-07
4.978735e-06 -2.426506e-05 7.631787e-07
-2.388809e-05 -6.606853e-06 -7.374623e-07
-1.423720e-05 1.902312e-05 -1.505238e-06
7.299062e-06 -2.273929e-05 -1.473562e-06
-1.639473e-05 -1.858894e-05 7.358209e-07
-1.462844e-05 1.704814e-05 -1.198495e-06
-2.064645e-05 -1.404877e-05 -3.773635e-22
-2.330908e-05 8.427326e-06 -7.359217e-07
-1.084627e-05 2.228659e-05 -7.359058e-07
-2.778753e-06 -2.267240e-05 -1.423213e-06
2.195502e-05 1.148140e-05 7.537326e-07
2.195502e-05 -1.148140e-05 7.537326e-07
2.230775e-05 -2.400404e-06 -1.175789e-06
-1.487914e-05 -1.826535e-05 -1.535499e-06
1.152852e-05 -1.866386e-05 3.731708e-07
-2.194872e-05 -1.135691e-05 8.564778e-07
6.504808e-06 2.264477e-05 1.535347e-06
-2.008971e-05 -1.483400e-05 -3.773635e-22
-7.315366e-06 -2.257733e-05 -1.511067e-06
1.126924e-05 -2.206453e-05 7.539599e-07
-2.220786e-05 -1.139366e-06 -9.723838e-07
2.232006e-05 2.265729e-06 -1.174293e-06
-2.311857e-06 -2.460301e-05 8.586904e-07
-1.264851e-05 1.851856e-05 -1.166725e-06
1.059030e-05 -1.927911e-05 -5.587118e-07
-2.204075e-05 2.903078e-06 -9.650155e-07
7.619219e-06 -2.086121e-05 -9.369125e-07
-1.900085e-05 -1.589876e-05 -7.552739e-07
-1.950312e-05 -1.559719e-05 -3.773635e-22
-4.809721e-06 2.185148e-05 -1.120372e-06
5.703673e-06 2.135592e-05 7.816566e-07
-6.817601e-07 -2.476744e-05 7.520943e-07
9.374304e-06 -2.008198e-05 -8.723420e-07
-1.986866e-05 -1.031542e-05 1.131868e-06
2.316275e-06 2.373462e-05 -1.483701e-06
-8.704982e-06 -2.310841e-05 -8.845665e-07
-2.259294e-05 -8.692861e-06 -1.331349e-06
-2.296990e-05 -9.283143e-06 -7.556149e-07
2.276783e-05 -9.771873e-06 -7.530780e-07
[...]
POINT_DATA 2133
VECTORS 10.000GHz_fone_imag double
3.287475e+09 2.835274e+10 -1.370490e+09
-2.037254e+10 2.962032e+10 6.831850e+07
-2.146930e+10 6.309519e+09 -2.345262e+08
-1.636528e+10 1.776840e+10 1.608321e+08
-4.075831e+09 -3.051485e+10 2.420209e+09
4.360719e+09 -2.655223e+10 -7.258518e+08
1.559596e+10 1.989113e+10 -1.212488e+09
2.088118e+10 3.040387e+09 3.925538e+07
1.184513e+10 -2.323726e+10 -3.241678e+08
-2.354648e+10 -1.408419e+10 5.713036e+08
-1.663237e+10 1.072189e+10 3.239973e+08
2.576021e+09 2.819486e+10 1.718999e+09
-4.671978e+09 -2.899158e+10 2.405894e+09
-1.888202e+10 -1.725773e+10 -4.533718e+08
1.469319e+10 1.122832e+10 -4.306906e+08
6.785120e+09 2.127351e+10 1.904098e+09
-2.211165e+09 2.115868e+10 -4.170786e+08
-2.763310e+10 1.048054e+10 -2.485737e+08
-1.862982e+10 -3.112316e+10 -6.599619e+08
-2.144090e+10 1.655002e+10 -3.084449e+08
-2.100675e+10 2.725248e+10 -1.297863e+09
-8.194385e+09 3.316098e+10 -2.368747e+08
9.227364e+08 2.263560e+10 -7.670596e+08
9.920491e+09 2.269953e+10 3.416020e+08
1.787796e+10 5.193469e+09 -6.018657e+08
1.392404e+10 1.938836e+10 -1.007468e+09
-2.570342e+10 -6.148926e+08 1.376824e+09
2.414135e+10 1.455497e+10 1.258168e+09
6.031700e+09 2.019110e+10 -6.057339e+08
-2.149814e+10 -1.472452e+10 7.767362e+07
1.272153e+10 2.068219e+10 -2.760863e+08
2.812280e+10 -2.370903e+08 8.200644e+08
-3.003211e+10 3.641298e+10 -3.421265e+09
1.913374e+08 2.802230e+10 1.268409e+09
-1.792766e+09 2.439506e+10 5.368237e+07
-1.383981e+10 2.028635e+10 2.971893e+08
-1.854231e+10 1.771102e+10 -1.807347e+09
1.496639e+10 2.445685e+10 -2.053929e+08
-8.706450e+09 -2.404951e+10 2.292616e+09
8.463942e+09 3.138871e+10 1.545796e+09
-1.125814e+10 2.946136e+10 -1.512873e+09
2.408202e+10 -2.338569e+10 -9.177459e+08
-5.465969e+09 -2.892649e+10 -2.890338e+09
-1.930110e+10 -4.841679e+09 -1.590102e+09
-2.177463e+09 2.261888e+10 -5.332995e+08
2.029719e+10 1.699863e+10 5.462694e+08
2.801330e+10 3.094627e+08 -7.214223e+08
1.142200e+10 2.326686e+10 4.051254e+08
1.400905e+10 2.993233e+10 -3.217254e+09
2.901567e+10 -2.497022e+09 -1.104137e+09
-1.777167e+10 -2.406513e+10 -5.786672e+08
-2.114971e+10 1.253207e+10 -2.143988e+07
-2.212636e+10 -8.026429e+09 1.430808e+08
9.964589e+09 -2.305932e+10 -1.096510e+08
3.489667e+09 2.035627e+10 -1.503608e+09
-1.067039e+09 1.951728e+10 4.859199e+08
-2.020531e+10 -3.369770e+09 -4.313115e+08
2.091385e+10 -2.582908e+10 -2.506449e+09
-1.758583e+10 -1.946916e+10 -1.189327e+09
-9.829593e+09 1.752628e+10 3.929381e+08
1.214079e+10 -2.514962e+10 8.080218e+08
1.062066e+10 -1.743722e+10 -4.364260e+08
-1.064804e+10 -1.603670e+10 -3.968367e+08
8.561692e+09 -1.797360e+10 -4.187041e+07
-2.342157e+10 -2.015840e+10 -3.740754e+08
4.035388e+10 -6.423360e+09 -1.535905e+08
-2.034403e+09 2.085373e+10 -1.301005e+09
3.102155e+10 -8.190516e+09 -3.543131e+08
-2.117135e+10 2.882627e+10 1.057611e+09
-1.633141e+10 1.838028e+10 -2.942782e+08
-4.389454e+09 -1.954754e+10 5.192391e+08
1.383759e+10 1.928113e+10 -2.297848e+09
2.355590e+10 1.691984e+09 -4.527980e+08
-1.616446e+10 -1.157552e+10 -9.858189e+08
-2.166506e+10 1.224886e+10 5.390363e+08
2.470545e+10 7.997407e+09 4.989663e+08
2.112469e+10 -1.435231e+10 -1.042378e+08
-3.202249e+09 2.098112e+10 -7.208483e+08
1.893310e+10 1.759219e+10 -7.369328e+08
-3.042803e+10 -3.492110e+09 1.665866e+09
-3.847534e+09 3.051913e+10 4.364376e+08
2.393013e+10 3.315574e+10 -6.251466e+07
2.421640e+10 -3.335199e+10 1.006039e+09
-1.185047e+10 1.663538e+10 -1.678885e+09
2.289695e+10 -1.020101e+10 1.363745e+09
-2.473604e+09 2.077608e+10 3.911128e+08
3.933178e+09 2.238955e+10 -4.311656e+08
1.456791e+10 9.856120e+09 -1.344409e+08
-3.719298e+09 2.176416e+10 -1.155186e+09
-1.640553e+10 2.104165e+10 -1.025994e+09
-1.852853e+10 6.272004e+09 9.001955e+07
-3.184950e+10 7.110104e+09 -1.601059e+09
-1.236665e+10 -1.552101e+10 3.279765e+08
1.821016e+10 -2.360278e+10 -4.344422e+08
2.124005e+10 1.585408e+10 9.737707e+08
2.369240e+10 -1.209531e+09 -1.285847e+09
2.188470e+10 1.027764e+10 3.877336e+07
1.065970e+10 2.234228e+10 2.245071e+09
-2.906859e+10 1.557526e+10 5.317381e+08
-3.894556e+09 2.025795e+10 2.430747e+08
-2.683687e+10 7.253130e+09 -1.580961e+08
2.710374e+10 -1.441340e+10 -1.807238e+09
1.195791e+10 -2.825515e+10 -1.182470e+09
8.155694e+09 -2.069962e+10 -1.571055e+09
-2.071143e+10 -2.096638e+10 1.175491e+09
-2.540510e+10 -1.594872e+10 -5.594085e+08
9.191570e+09 -2.293903e+10 -6.674243e+08
7.369651e+09 4.099347e+10 -3.537924e+09
-2.524437e+10 -1.727846e+10 5.461144e+08
-2.611997e+09 3.619217e+10 3.406230e+08
-5.993837e+09 2.430607e+10 -6.761580e+07
1.076899e+10 2.903374e+10 -1.512867e+09
-1.974945e+10 -1.489036e+09 -8.124040e+08
2.446251e+10 -1.789594e+10 4.926247e+09
7.208010e+09 2.307844e+10 1.819042e+09
-1.349886e+10 1.431446e+10 1.566747e+09
-1.329565e+10 -2.753648e+10 2.004194e+09
1.939203e+10 -1.308151e+10 -7.190587e+08
-1.404838e+10 1.643889e+10 1.955554e+08
1.602880e+10 -1.210675e+10 -8.350828e+08
2.498215e+09 -2.120079e+10 -5.836712e+08
-6.213957e+09 2.149170e+10 -5.099227e+08
-2.836113e+09 -3.278382e+10 8.693663e+07
2.544479e+10 -2.396497e+09 8.787179e+07
5.396739e+09 2.573326e+10 -4.936586e+07
-1.306166e+10 -3.213314e+10 1.156134e+09
2.343818e+10 -9.809363e+09 -3.920236e+08
3.203302e+10 8.391556e+09 -3.963235e+08
1.199223e+10 1.905475e+10 -5.104935e+08
8.565430e+09 -2.575384e+10 -2.769413e+07
-2.683282e+10 -1.495823e+10 -2.242586e+08
1.200910e+10 1.711916e+10 2.220893e+08
-1.002581e+10 2.969767e+10 -1.512512e+09
-5.096971e+09 -2.321247e+10 1.850319e+08
-2.771148e+10 1.728435e+09 -2.300500e+09
2.159741e+10 2.451629e+10 3.042956e+08
2.405236e+10 3.805272e+09 -6.840031e+08
-1.036492e+10 -2.987017e+10 2.964746e+09
-4.743976e+09 -2.183614e+10 -1.406844e+08
6.848752e+09 -1.854445e+10 -4.433360e+08
3.341315e+10 -2.140870e+10 1.023271e+08
2.860821e+10 -2.985885e+09 1.456022e+09
9.024821e+09 2.866908e+10 3.531364e+08
-1.070539e+10 2.051084e+10 5.266143e+08
-1.493646e+10 2.080737e+10 2.696986e+09
-2.326542e+10 -1.979563e+10 2.211695e+08
-2.443992e+10 2.160966e+10 6.737576e+08
1.866890e+08 1.775490e+10 -5.363303e+08
-3.157055e+10 9.975450e+09 -8.863316e+08
-1.059158e+10 -2.326812e+10 -3.373414e+09
-2.452465e+10 1.377894e+10 4.878015e+08
-3.119177e+10 -4.163797e+09 -3.341062e+09
2.776345e+10 1.040740e+10 2.677633e+09
-1.693334e+10 3.466065e+10 1.236281e+08
-7.787163e+09 1.679705e+10 -7.810880e+08
2.582549e+10 -1.624793e+10 -5.676160e+08
2.249171e+10 3.392274e+09 -6.211635e+08
2.092255e+10 1.249597e+10 -9.541620e+08
-1.969715e+10 3.836463e+09 1.018183e+08
-2.564437e+10 5.097261e+09 5.437841e+08
7.258962e+09 -2.587854e+10 -1.213558e+09
3.186833e+10 2.737933e+10 -1.571069e+08
-2.372617e+10 -5.526346e+09 -1.216730e+09
-2.756457e+10 -8.856445e+09 1.359112e+09
-2.246487e+09 -2.103307e+10 1.096073e+09
-8.136877e+09 2.344613e+10 -9.914586e+08
2.570329e+09 -2.353625e+10 6.196327e+08
-2.616249e+10 1.079579e+10 -4.589058e+08
-1.289633e+10 -1.769896e+10 -1.027359e+08
1.229661e+10 -1.656287e+10 -1.856582e+08
-2.271306e+10 -6.982140e+07 -4.558926e+08
1.552913e+10 -2.438308e+10 -1.174440e+08
-5.993238e+09 -3.481695e+10 -1.909244e+09
1.881771e+10 -2.677797e+10 1.716909e+09
-1.415941e+10 -1.966092e+10 -9.316151e+08
-3.837010e+09 -2.795109e+10 -1.859206e+09
-1.510488e+10 2.893291e+10 -2.764092e+09
2.688288e+10 -1.029079e+09 1.335526e+09
3.391015e+09 -2.289775e+10 -5.649333e+07
1.065709e+10 -3.285365e+10 2.619774e+09
-1.562987e+10 -2.442276e+10 -3.423192e+08
1.685795e+10 2.682327e+10 -7.843483e+08
2.052922e+10 2.466932e+10 2.154152e+09
-2.004336e+09 2.147327e+10 -1.167487e+09
-2.796775e+10 -1.194578e+10 2.166908e+09
-2.176528e+10 -1.818359e+10 -8.182386e+08
-5.743137e+09 -3.225095e+10 2.556007e+09
-1.243162e+10 1.742060e+10 4.347832e+08
3.120962e+09 2.822183e+10 2.372517e+08
1.808586e+10 1.485474e+10 3.489906e+08
1.935763e+10 -2.498119e+10 -7.211117e+08
-1.403478e+10 -1.762455e+10 -1.210849e+08
-1.692638e+10 -7.596167e+09 -1.383015e+09
-4.820548e+09 2.588551e+10 -8.056375e+07
8.529184e+09 -3.616070e+10 2.589000e+09
3.049778e+10 4.689803e+09 -9.813728e+06
3.106400e+10 1.666417e+10 -2.087009e+09
-1.443760e+10 2.753171e+10 -9.258178e+08
-1.047979e+10 1.739186e+10 -8.034960e+08
-2.121495e+10 5.505737e+09 -3.483361e+08
-5.976407e+09 2.144505e+10 -4.326045e+08
-1.792224e+10 -2.390963e+10 1.611536e+08
2.611934e+10 -3.611498e+10 3.857468e+07
-2.079988e+10 -4.940112e+09 1.090518e+09
-8.181456e+09 2.093802e+10 -6.634385e+08
1.849634e+10 1.351004e+10 1.199605e+09
-2.145239e+10 -7.865401e+09 -8.432839e+08
-1.536069e+10 1.709346e+10 -4.774905e+08
2.091804e+10 1.954998e+10 -1.132267e+09
-9.692470e+09 1.482892e+10 2.067050e+08
8.720348e+09 2.416649e+10 6.635176e+08
1.935876e+10 9.622044e+09 4.849231e+08
-3.029522e+10 1.904789e+09 6.256730e+07
8.202385e+09 -1.722528e+10 1.930652e+08
-8.762024e+09 -1.978479e+10 4.685734e+08
-7.346152e+08 -3.382133e+10 2.700877e+08
-1.690710e+10 1.317326e+10 -1.155814e+09
-2.490397e+10 -1.489299e+10 -5.183027e+08
-1.429371e+10 2.801618e+10 -3.890334e+08
2.616458e+10 -8.306793e+09 -2.300854e+09
-1.188023e+10 1.974513e+10 2.608582e+09
-2.198436e+10 7.230569e+09 -4.511706e+08
-1.945584e+10 -9.142453e+09 2.471201e+08
-1.627023e+09 2.793490e+10 -6.913567e+08
4.228775e+09 -2.925928e+10 -1.043101e+09
-2.063236e+10 3.671447e+09 1.576420e+09
3.547535e+10 2.668399e+10 -4.787657e+08
-2.651633e+10 -1.513105e+10 6.970471e+07
7.644151e+09 3.796218e+10 -7.953169e+08
-2.628191e+10 -1.117427e+10 8.419108e+07
-2.069735e+10 2.471393e+10 1.542903e+09
-1.960793e+10 2.432002e+10 2.848629e+09
4.398622e+10 9.121776e+09 5.167939e+08
2.829908e+10 -8.043477e+09 -4.212941e+09
-2.345247e+10 -6.749340e+08 8.402500e+08
-2.679025e+10 -1.258994e+10 2.280660e+08
-1.510760e+10 2.780964e+10 -1.832857e+08
2.533845e+10 -2.302302e+09 3.930892e+08
-2.122409e+10 8.025743e+09 5.394530e+08
-7.109740e+09 2.134444e+10 -9.677786e+08
-7.232587e+09 1.846610e+10 -8.936530e+08
-9.344050e+09 -2.121635e+10 -1.788713e+08
-1.802753e+10 1.630301e+10 -2.247573e+08
-2.155471e+10 1.708733e+10 9.482615e+07
9.073946e+09 -2.151417e+10 5.077261e+08
-1.312198e+10 -1.626567e+10 -6.072144e+08
1.598476e+10 -1.218606e+10 3.992183e+08
1.235703e+10 -1.588316e+10 2.276575e+08
-1.926294e+10 1.616167e+10 4.919113e+08
1.623297e+10 -2.493084e+10 -3.333842e+09
-1.978280e+10 5.912805e+09 -8.749051e+07
-1.425963e+10 -1.226511e+10 8.065131e+08
-2.591590e+10 5.846058e+08 -2.733544e+08
-1.307305e+10 1.446114e+10 1.459064e+08
-1.737005e+10 2.885136e+10 2.686839e+09
-2.498612e+10 4.083646e+09 1.340089e+08
2.384872e+10 -2.337114e+10 1.434176e+08
1.172937e+10 -1.720149e+10 -3.801929e+08
-2.211168e+10 6.702213e+09 -7.981673e+07
-1.766488e+09 2.151760e+10 -1.430217e+08
1.302797e+10 -2.059789e+10 -6.820193e+08
3.043213e+10 2.542115e+09 3.134020e+08
3.575737e+10 1.902223e+10 4.616520e+08
1.253863e+10 -1.183670e+10 1.439541e+07
-1.417770e+10 1.460078e+10 -7.789185e+08
2.723375e+10 -1.678714e+10 -3.468163e+09
-4.830543e+09 2.325725e+10 -4.081790e+08
-2.307328e+10 3.814704e+09 5.532301e+08
-2.104590e+10 -1.022182e+10 -1.626285e+09
-2.195655e+10 -2.146239e+10 -3.017534e+08
1.546488e+10 -1.873142e+10 5.845647e+07
-2.889056e+10 -5.729583e+09 9.645459e+07
-1.625565e+10 -2.356809e+10 -5.810596e+08
5.488276e+09 -2.035933e+10 -1.808520e+08
3.566035e+10 -5.018827e+09 -1.875808e+09
-1.385840e+10 1.479812e+10 -5.172514e+08
7.813260e+08 3.156813e+10 -6.907257e+08
1.283654e+10 -2.524817e+10 6.082705e+08
-2.527696e+10 2.680283e+09 1.368539e+09
-6.159088e+09 4.603989e+10 -4.604574e+08
-2.366640e+10 1.896804e+10 6.727863e+08
1.097268e+10 1.521186e+10 4.791116e+08
-1.015058e+10 -2.387286e+10 2.443453e+09
5.458122e+09 2.545983e+10 4.363105e+08
1.245532e+10 2.887303e+10 -2.140449e+08
1.871771e+10 7.067833e+09 6.000109e+08
-2.400574e+10 1.953812e+10 -4.213569e+08
2.090003e+10 2.030131e+08 -1.408081e+09
1.636643e+10 1.482404e+10 -3.252894e+08
-6.561924e+09 -3.204645e+10 3.633246e+08
2.895856e+09 2.971958e+10 -5.566337e+08
2.807778e+10 -9.133602e+09 -1.712433e+09
5.552721e+09 -2.474076e+10 -3.534347e+08
-6.499916e+09 -2.202821e+10 7.655167e+08
2.121022e+09 -1.724774e+10 6.487478e+08
2.116199e+09 3.347921e+10 -1.659069e+09
5.251318e+09 -3.505332e+10 -1.271028e+09
-1.949419e+10 1.250368e+10 3.310252e+08
-2.670017e+10 -1.200270e+10 -7.799394e+08
2.148781e+10 -1.983359e+10 -1.105207e+09
1.787872e+10 -8.020588e+09 -1.500403e+09
-2.121938e+10 -9.907836e+09 4.615129e+08
-5.484518e+09 2.322582e+10 2.416855e+08
-1.928367e+10 1.050023e+10 -1.256409e+09
-1.029184e+10 -2.377763e+10 -1.930031e+09
1.873638e+10 -1.633071e+09 -2.215301e+08
9.495768e+09 -2.370297e+10 -5.724524e+08
1.920603e+10 1.233079e+10 -2.044790e+08
-1.599215e+10 1.097627e+10 1.279243e+08
2.243101e+10 1.341662e+10 -1.232425e+09
2.410905e+10 2.853692e+09 -1.352056e+09
2.054408e+10 7.284907e+09 -3.146892e+08
-1.165325e+10 3.444964e+10 -4.991070e+07
8.790964e+09 3.417194e+10 1.059265e+09
1.828888e+10 2.016525e+10 -2.698386e+08
2.026207e+10 3.472176e+09 2.866670e+08
2.138164e+10 2.420191e+10 1.266568e+09
1.495643e+10 2.625562e+10 -1.130577e+09
-2.720164e+10 -1.323776e+10 -8.379790e+08
-1.710110e+10 1.101345e+10 1.706440e+09
5.512329e+08 2.256162e+10 4.088603e+08
2.982349e+10 -1.767360e+10 -9.619216e+08
-1.976161e+10 1.076943e+10 -5.685924e+08
-1.177973e+09 -2.600930e+10 7.929306e+08
1.620323e+09 -2.267262e+10 -1.144781e+08
2.536494e+10 3.372797e+09 -9.580542e+08
-2.652068e+10 6.832302e+09 3.401378e+07
3.169470e+09 3.279707e+10 1.185289e+09
-5.525352e+09 -2.084332e+10 -2.862421e+09
2.514907e+10 -1.000379e+10 -9.960512e+08
-1.664159e+10 9.216667e+09 -2.324638e+08
-2.443750e+10 -1.465131e+10 4.651114e+08
-1.690283e+10 2.817352e+10 8.299268e+08
7.180719e+09 -2.067012e+10 8.070434e+07
6.513455e+09 -2.085889e+10 9.219894e+08
2.446112e+10 -5.118948e+09 1.683315e+09
-2.761566e+10 1.320900e+10 -1.280243e+09
1.611732e+10 1.609673e+10 8.874300e+08
1.291433e+10 -2.648083e+10 6.464753e+08
-8.671475e+09 -2.563758e+10 2.325450e+08
-2.114653e+10 7.975972e+09 1.283393e+09
-1.592685e+10 9.380506e+09 4.276778e+08
-1.392497e+10 -2.624667e+10 6.652742e+07
1.799038e+10 8.039597e+09 -7.110691e+08
-2.765297e+10 4.379321e+09 -4.190736e+08
-2.184674e+10 -1.443941e+09 -1.309442e+09
-2.196637e+10 6.244251e+09 4.427462e+08
-1.329506e+10 1.919311e+10 -6.298833e+08
-1.457340e+10 2.192664e+10 6.223722e+08
1.707672e+10 -1.914754e+10 2.336169e+09
-1.516532e+10 -1.923425e+10 -3.363250e+08
2.893337e+10 7.850488e+09 -7.235421e+08
-1.649681e+10 9.651178e+09 -1.335425e+09
2.356961e+10 1.714701e+10 6.561243e+08
2.517557e+10 -1.781687e+10 1.220023e+08
-1.606596e+10 -4.088782e+10 -2.822718e+09
7.491400e+09 2.860059e+10 -1.069661e+09
2.980120e+10 1.941887e+10 -2.990827e+09
4.308533e+10 1.045391e+10 8.593138e+08
8.417955e+09 1.622488e+10 8.521055e+07
2.452490e+10 8.860806e+09 1.173065e+09
2.063874e+10 -5.985205e+09 2.637522e+09
-2.663350e+10 9.890072e+09 -2.436006e+09
-1.949617e+10 8.992081e+09 -9.407498e+08
-2.506085e+10 -2.304334e+09 -8.349449e+08
-1.681580e+10 2.407708e+10 -1.175558e+09
2.598335e+10 5.859373e+09 1.032361e+07
2.575057e+10 1.694904e+10 -8.319082e+07
-8.029797e+07 -2.108028e+10 -5.780746e+07
-9.872663e+08 -2.493140e+10 9.428656e+08
-2.217775e+10 1.861260e+10 8.908892e+08
-2.909677e+10 1.047783e+10 1.696373e+09
-3.929421e+09 2.219044e+10 -5.758927e+08
2.719162e+10 1.183020e+10 -1.570533e+08
-1.778704e+10 6.832461e+09 2.413598e+08
3.916043e+10 -1.709440e+09 5.066629e+08
-2.251963e+10 -7.356387e+09 -3.068181e+08
1.376627e+08 2.720978e+10 1.915417e+08
-2.575737e+10 1.302506e+10 -8.322288e+08
1.932825e+10 -1.763725e+09 5.194167e+08
2.035283e+10 1.336139e+10 7.830920e+08
2.051969e+10 2.918487e+09 3.789177e+08
-1.275740e+10 2.187952e+10 -2.146867e+08
2.083579e+10 -7.020262e+09 1.963652e+09
2.066999e+10 -6.994520e+09 -1.710498e+09
-1.782365e+10 7.482220e+09 -4.298786e+07
-1.060400e+10 2.138000e+10 1.346147e+08
2.414061e+10 -2.004405e+10 -2.930733e+09
-1.084364e+10 -2.524161e+10 2.543275e+09
-2.204265e+10 -1.167804e+10 3.504544e+08
2.487601e+10 3.415614e+10 -8.192870e+08
-1.180301e+10 1.970784e+10 -1.357485e+09
-1.389863e+10 -1.384974e+10 6.982576e+08
-2.080596e+10 1.444460e+10 5.842560e+08
-1.643353e+10 -1.516040e+10 -8.961771e+08
-1.537021e+10 2.818193e+10 3.477076e+08
-1.948857e+10 6.287162e+09 8.438747e+08
-6.201931e+08 2.921812e+10 3.888011e+08
-2.091992e+10 -1.091376e+10 2.750275e+07
-1.649180e+10 -1.596336e+10 -1.458805e+09
-1.265297e+10 -2.875405e+10 -3.662921e+08
-3.545199e+10 -1.960464e+09 7.028509e+08
-1.215893e+10 -1.967730e+10 -1.517783e+09
-1.156421e+10 -4.695485e+10 -2.364566e+09
2.009579e+10 -2.815051e+09 1.029197e+09
-2.661850e+10 1.629618e+10 -2.325853e+09
2.034833e+10 -7.334246e+09 1.875194e+08
-1.900249e+10 5.675991e+09 -4.324840e+08
1.323333e+10 1.330325e+10 -7.062110e+08
-4.731814e+09 -2.824020e+10 -1.013574e+09
-5.989432e+09 -2.747294e+10 -8.740178e+08
2.215161e+10 8.636143e+09 7.293286e+08
1.721120e+10 -1.839585e+10 -1.071786e+09
-2.045925e+10 2.582942e+10 -2.325421e+09
-3.478115e+10 -9.786535e+09 -2.212736e+09
2.126460e+10 -1.430690e+10 -4.344687e+07
1.556143e+10 2.160271e+10 8.774621e+08
2.361123e+10 1.827614e+09 2.900235e+08
-1.862007e+10 4.746457e+09 7.954578e+08
2.436785e+10 1.698913e+10 2.864495e+09
1.742406e+10 -2.356703e+10 4.078092e+09
-1.972872e+10 -7.931284e+09 1.636338e+09
-5.341518e+09 -2.079269e+10 3.115365e+09
-2.191445e+10 8.715636e+09 3.450076e+08
2.750880e+10 6.238583e+09 1.110216e+09
2.251010e+10 1.254840e+10 1.174847e+09
-8.328460e+09 3.728926e+10 -1.974499e+09
9.241408e+09 -2.913341e+10 -6.242111e+08
8.845497e+09 2.879918e+10 2.272990e+09
-1.888893e+10 4.239242e+09 7.614910e+08
2.901695e+10 1.643696e+10 1.132036e+09
-1.783929e+10 2.686743e+10 1.153268e+09
1.502318e+10 2.545222e+10 -1.201614e+09
1.909462e+10 2.360537e+10 1.452143e+09
2.491143e+10 -2.099968e+10 -9.500085e+08
5.227025e+09 3.298278e+10 -3.423174e+08
1.643983e+10 2.613099e+10 -3.364148e+09
-2.154625e+10 9.650144e+09 5.888708e+08
-2.095283e+10 -1.509487e+10 2.627355e+09
1.750991e+10 2.047587e+10 4.731317e+08
-1.994043e+10 3.198241e+09 2.388639e+09
-7.643543e+09 2.191002e+10 -1.046368e+09
6.171881e+09 -3.111110e+10 -4.385301e+08
-2.294099e+10 1.758075e+10 1.430084e+09
3.167423e+09 -1.982897e+10 3.291002e+07
-9.463570e+09 -3.093800e+10 -6.024372e+08
4.110728e+10 -7.084814e+09 5.899595e+07
-8.148967e+09 3.085713e+10 1.947377e+09
-1.487655e+10 3.147029e+10 -3.757059e+09
-1.506618e+10 -2.105789e+10 -1.118221e+08
-1.989280e+10 -1.331237e+10 -9.647375e+08
-1.786460e+10 1.938854e+09 3.830705e+07
-6.931154e+09 -2.167505e+10 2.387191e+08
1.093425e+10 -2.284674e+10 9.828943e+07
2.251674e+10 -1.822452e+10 3.904157e+09
-1.625274e+10 8.135302e+09 7.156760e+08
-1.148591e+10 2.570605e+10 -5.138120e+07
7.388668e+09 2.861845e+10 -9.285950e+08
-2.449718e+10 -6.051098e+09 -2.709853e+09
1.927258e+10 1.579148e+10 2.241214e+09
2.646380e+10 7.622105e+09 1.568159e+09
-2.608291e+10 -1.411938e+10 7.758755e+07
-2.138936e+10 3.077054e+09 -1.528091e+09
-2.548516e+09 -2.410752e+10 4.003435e+08
7.314201e+08 -2.783804e+10 2.464597e+08
-1.737395e+10 1.544558e+10 1.134120e+09
1.422434e+10 2.575532e+10 3.329963e+08
2.781598e+10 1.576353e+10 1.383423e+09
3.072830e+10 1.794024e+09 1.283573e+08
2.250072e+10 2.365734e+10 3.675933e+08
2.657443e+10 1.186234e+10 -5.174132e+07
-2.178150e+10 -2.056044e+09 -1.981431e+08
3.368606e+10 4.259645e+09 -7.279926e+08
-2.518061e+10 9.891385e+08 2.309527e+08
-2.407440e+10 1.774650e+10 -2.027020e+09
2.389696e+09 -2.049200e+10 5.062101e+08
-2.908476e+09 -2.700001e+10 -5.584687e+08
1.921429e+10 -6.069077e+09 4.017642e+08
2.096659e+10 1.183052e+10 4.722595e+08
1.128754e+10 2.267138e+10 -1.153276e+09
1.889342e+10 -5.304558e+09 7.873432e+08
1.768575e+10 2.204578e+10 8.066076e+08
1.523897e+09 -5.230210e+10 2.316113e+09
-1.103749e+09 -3.931635e+10 -8.820073e+08
-2.162571e+10 -9.575826e+08 9.422695e+08
1.741132e+10 -1.581212e+10 6.328236e+08
-2.173754e+10 8.121775e+09 4.955302e+08
-2.769759e+10 1.527860e+10 1.001611e+09
-1.747075e+10 8.875339e+09 -1.384718e+09
-2.044015e+10 3.965391e+09 8.735107e+08
-2.433887e+10 -7.913803e+09 9.166630e+08
-1.960723e+10 2.191477e+08 1.151083e+09