# vtk DataFile Version 2.0
Electric current density generated by TTH
ASCII
DATASET UNSTRUCTURED_GRID
POINTS 3834 double
3.229648e-05 -7.910357e-21 -2.584682e-22
3.175014e-05 5.915352e-06 -2.584682e-22
-1.420404e-05 2.900531e-05 -2.584682e-22
-3.125983e-05 -6.191531e-06 -8.496298e-07
1.633653e-05 -2.747961e-05 -7.642365e-07
3.176972e-05 -2.006943e-06 -8.736876e-07
3.176972e-05 2.006943e-06 -8.736876e-07
1.633600e-05 2.742374e-05 -8.074616e-07
-2.531902e-05 -1.944513e-05 8.042944e-07
-2.740657e-05 1.629497e-05 8.362305e-07
3.175266e-05 -3.037087e-06 8.263117e-07
3.175266e-05 3.037087e-06 8.263117e-07
-3.077536e-05 -8.061872e-06 -8.864330e-07
-1.479465e-05 2.870855e-05 -2.584682e-22
-2.938692e-05 -1.229185e-05 -8.590818e-07
-2.539898e-05 -1.916505e-05 -8.834688e-07
-2.290318e-05 -2.208079e-05 -8.864330e-07
-6.002993e-06 3.040881e-05 -1.026315e-06
-2.431197e-05 1.936855e-05 -1.043495e-06
2.417657e-05 1.863642e-05 -7.757320e-07
2.417657e-05 -1.863642e-05 -7.757320e-07
1.724855e-05 -2.511423e-05 7.170679e-07
1.440070e-06 -3.015298e-05 -5.474378e-08
-2.572523e-05 1.893221e-05 7.900256e-07
-1.537908e-05 2.839977e-05 -2.584682e-22
1.475040e-05 -2.828134e-05 -8.268956e-07
-3.020387e-05 1.058176e-07 1.947656e-07
-5.041437e-06 3.151720e-05 8.097839e-07
-1.990738e-05 -2.495607e-05 8.050459e-07
1.973309e-05 -2.368283e-05 -9.703605e-07
2.703942e-05 1.453317e-05 -9.044952e-07
2.703942e-05 -1.453317e-05 -9.044952e-07
1.479227e-05 2.684820e-05 8.764767e-07
-2.180596e-05 2.330688e-05 8.102956e-07
-2.865364e-05 9.501290e-06 6.343302e-08
-1.595705e-05 2.807909e-05 -2.584682e-22
-3.135352e-05 5.479495e-06 -8.765951e-07
-2.987027e-05 5.667253e-06 -6.412829e-07
-1.072845e-05 3.005975e-05 8.105900e-07
2.745839e-05 1.353330e-05 8.474099e-07
2.745839e-05 -1.353330e-05 8.474099e-07
1.273647e-05 2.916634e-05 -8.784364e-07
3.163009e-05 -4.155635e-06 8.228491e-07
3.163009e-05 4.155635e-06 8.228491e-07
-3.180473e-05 2.408982e-06 -8.276956e-07
1.714111e-05 2.541587e-05 -8.780781e-07
-1.652835e-05 2.774665e-05 -2.584682e-22
8.826777e-06 3.059149e-05 -8.693089e-07
8.935905e-06 -3.061873e-05 -8.275301e-07
-1.319190e-05 2.908367e-05 -7.945740e-07
-1.225754e-05 2.934499e-05 -8.938480e-07
2.630449e-05 -1.817555e-05 7.602600e-07
2.630449e-05 1.817555e-05 7.602600e-07
1.331456e-05 2.752710e-05 -8.208968e-07
-2.016312e-05 -2.298825e-05 8.207972e-07
1.066575e-05 3.001323e-05 8.605185e-07
1.902346e-05 2.451097e-05 1.033323e-06
-1.709272e-05 2.740258e-05 -2.584682e-22
1.478239e-05 2.827875e-05 -8.168191e-07
6.071382e-06 2.993022e-05 7.884470e-07
-3.014809e-05 1.531210e-06 -4.637496e-08
1.865691e-05 -2.380507e-05 3.481855e-07
7.278970e-06 3.100087e-05 8.662032e-07
1.963291e-05 -2.298782e-05 3.038740e-07
1.307446e-05 -2.903475e-05 -8.670649e-07
1.859567e-05 2.453169e-05 -9.506859e-07
-1.047906e-05 2.870165e-05 8.015251e-07
-2.070647e-05 2.238090e-05 7.415206e-07
-1.764994e-05 2.704704e-05 -2.584682e-22
-7.834018e-06 3.086467e-05 -8.666091e-07
-2.384714e-05 2.110246e-05 -8.666073e-07
2.336142e-05 -2.175773e-05 -8.044413e-07
2.336142e-05 2.175773e-05 -8.044413e-07
1.583824e-05 2.651402e-05 9.931072e-07
-5.053118e-06 3.014171e-05 8.079300e-07
1.106685e-05 2.997627e-05 -7.782494e-07
-7.766337e-06 3.093457e-05 8.286865e-07
-2.394701e-05 2.106485e-05 8.296303e-07
1.866142e-05 2.378511e-05 3.087424e-07
-1.819976e-05 2.668017e-05 -2.584682e-22
8.778863e-06 2.890431e-05 -2.150187e-07
-1.966782e-05 2.512410e-05 8.188980e-07
-3.003274e-05 -3.604110e-06 -3.571987e-07
1.495209e-05 2.814631e-05 8.465123e-07
-1.329594e-05 2.901026e-05 8.146241e-07
-3.019986e-05 -1.594787e-06 3.392210e-07
2.135303e-05 2.375439e-05 -7.899335e-07
3.308283e-06 3.172523e-05 -8.265667e-07
-3.179600e-05 2.237813e-06 8.440121e-07
-2.267513e-05 2.247260e-05 -8.041105e-07
-1.874195e-05 2.630213e-05 -2.584682e-22
-9.588817e-06 3.045052e-05 -8.041057e-07
-1.463479e-05 2.834918e-05 8.213172e-07
1.981680e-05 2.283443e-05 3.160134e-07
-3.045106e-05 -2.831425e-06 8.243785e-07
-2.446882e-05 1.824865e-05 7.744309e-07
3.372142e-06 -3.177181e-05 -7.815640e-07
-4.464594e-06 -3.164334e-05 -7.756378e-07
-1.202423e-05 -2.960830e-05 -7.756378e-07
-1.885387e-05 -2.580075e-05 -7.768857e-07
-1.544389e-05 -2.796815e-05 -7.828199e-07
-1.927630e-05 2.591307e-05 -2.584682e-22
-8.180413e-06 -3.088384e-05 -7.828199e-07
-4.259853e-07 -3.194604e-05 -7.828203e-07
-1.874891e-05 -2.584502e-05 7.999990e-07
-1.548098e-05 -2.794499e-05 7.849062e-07
-1.194142e-05 -2.963082e-05 7.849062e-07
-8.222022e-06 -3.087040e-05 7.849062e-07
-4.378793e-06 -3.164505e-05 7.849061e-07
-4.696164e-07 -3.194311e-05 7.849061e-07
2.914678e-05 1.304612e-05 7.966218e-07
2.914678e-05 -1.304612e-05 7.966218e-07
3.162243e-05 6.563879e-06 -2.584682e-22
-1.980258e-05 2.551315e-05 -2.584682e-22
1.150106e-05 2.833283e-05 -8.209563e-07
4.220115e-06 3.026709e-05 8.058521e-07
-1.622515e-05 2.620213e-05 9.671091e-07
4.078037e-06 3.170676e-05 7.651605e-07
-2.291427e-05 -2.223092e-05 8.028069e-07
-3.038794e-05 9.815271e-06 7.962075e-07
3.002234e-05 5.460582e-06 7.655624e-07
3.002234e-05 -5.460582e-06 7.655624e-07
1.876795e-06 3.064360e-05 -9.065341e-07
2.994086e-05 -4.355411e-06 -3.780830e-07
-2.032055e-05 2.510255e-05 -2.584682e-22
2.994086e-05 4.355411e-06 -3.780830e-07
-1.327203e-05 2.711493e-05 7.836622e-08
3.139368e-05 -5.685008e-06 8.209493e-07
3.139368e-05 5.685008e-06 8.209493e-07
-2.054841e-05 2.438611e-05 -8.329148e-07
-2.408977e-05 -1.888177e-05 -8.440478e-07
1.433315e-05 -2.851140e-05 8.151140e-07
1.235695e-05 2.767376e-05 4.913185e-07
1.318695e-05 2.769725e-05 8.913189e-07
-1.366571e-06 3.059249e-05 8.552363e-07
-2.083002e-05 2.468143e-05 -2.584682e-22
-2.761413e-05 1.430725e-05 -1.045846e-06
-2.975128e-05 -1.160834e-05 -7.944947e-07
-2.595211e-05 -1.855296e-05 -8.229410e-07
-2.932004e-05 1.257178e-05 8.230635e-07
9.149890e-06 3.063400e-05 7.619794e-07
-2.171910e-05 -2.340152e-05 -8.018323e-07
-2.868921e-05 -1.400997e-05 -8.018323e-07
-2.689547e-05 -1.724821e-05 -7.808875e-07
2.312352e-05 -2.194560e-05 8.402988e-07
2.312365e-05 2.194553e-05 8.402721e-07
-2.133076e-05 2.424998e-05 -2.584682e-22
-1.496218e-05 2.683594e-05 9.204843e-07
2.173253e-05 2.096940e-05 -1.695881e-07
2.187276e-05 2.139885e-05 -8.377366e-07
2.173256e-05 -2.096937e-05 -1.695884e-07
2.187420e-05 -2.139676e-05 -8.373996e-07
2.079391e-05 -2.234697e-05 -7.749903e-07
1.976045e-05 2.354034e-05 -9.257870e-07
2.057248e-05 2.326585e-05 -1.039044e-06
7.014478e-06 3.114958e-05 -7.998273e-07
-6.642940e-06 3.120177e-05 8.235121e-07
-2.182257e-05 2.380836e-05 -2.584682e-22
-2.469205e-05 2.019868e-05 8.234507e-07
3.008152e-05 -6.656754e-06 9.628229e-07
3.008152e-05 6.656754e-06 9.628229e-07
2.315310e-06 3.182725e-05 -8.151772e-07
1.577781e-05 -2.592853e-05 -5.678465e-07
2.246738e-05 2.275440e-05 7.561903e-07
2.243465e-05 -2.278142e-05 7.598098e-07
-2.405901e-05 -2.094542e-05 8.251697e-07
1.103505e-05 -3.000427e-05 -7.639766e-07
7.149396e-06 -3.112172e-05 -7.974495e-07
-2.230524e-05 2.335678e-05 -2.584682e-22
-3.190033e-05 -2.794252e-19 8.241107e-07
1.624875e-05 -2.752071e-05 7.730636e-07
2.080121e-05 2.234405e-05 -7.776020e-07
-3.098294e-05 -7.744939e-06 7.940152e-07
-2.978825e-05 -1.148814e-05 8.022733e-07
-3.043102e-05 -9.657635e-06 8.022733e-07
-3.189951e-05 -2.072545e-07 -8.242316e-07
-2.769442e-05 1.241972e-05 5.679169e-07
-3.191545e-05 1.505881e-06 -7.809348e-07
-2.807258e-05 1.526630e-05 -7.771310e-07
-2.277856e-05 2.289541e-05 -2.584682e-22
-3.173642e-05 -3.696708e-06 -7.809017e-07
2.675559e-05 1.535653e-05 -9.798398e-07
2.675559e-05 -1.535653e-05 -9.798398e-07
2.838693e-05 1.456968e-05 -8.182669e-07
2.838693e-05 -1.456968e-05 -8.182669e-07
1.832522e-05 -2.616066e-05 -7.903397e-07
1.827427e-05 2.615054e-05 -8.219901e-07
3.008098e-05 -5.800553e-06 -8.638816e-07
3.008098e-05 5.800553e-06 -8.638816e-07
2.664550e-05 1.432983e-05 3.738492e-07
-2.324235e-05 2.242445e-05 -2.584682e-22
2.664550e-05 -1.432983e-05 3.738492e-07
1.652017e-05 -2.604066e-05 9.755406e-07
6.020284e-06 3.141967e-05 -7.423331e-07
-2.059726e-05 2.437064e-05 8.172179e-07
-2.330894e-05 1.954183e-05 6.589197e-07
-6.693167e-06 2.967148e-05 6.590355e-07
2.940025e-05 -1.267770e-05 -7.151881e-07
2.940025e-05 1.267770e-05 -7.151881e-07
1.798764e-05 -2.637406e-05 8.045551e-07
2.227775e-05 -2.286196e-05 -8.069195e-07
-2.369639e-05 2.194410e-05 -2.584682e-22
2.229608e-05 2.284223e-05 -8.080370e-07
-1.221607e-05 2.948128e-05 8.146092e-07
1.877537e-05 -2.444615e-05 -9.693695e-07
4.185387e-06 3.026429e-05 -7.994122e-07
-2.136945e-05 -2.224994e-05 9.800260e-07
-2.993792e-05 4.097489e-06 2.542728e-07
2.382637e-05 -1.899210e-05 7.198698e-07
2.382637e-05 1.899210e-05 7.198698e-07
2.470563e-05 -2.025458e-05 7.844343e-07
2.470563e-05 2.025458e-05 7.844343e-07
-2.414052e-05 2.145456e-05 -2.584682e-22
-3.173424e-05 -4.012900e-06 7.466399e-07
-1.939822e-05 2.352013e-05 7.386019e-07
-1.202178e-05 2.803036e-05 7.507274e-07
-2.497727e-05 -1.790108e-05 9.230055e-07
-3.050597e-05 -1.079440e-06 -7.750815e-07
8.543752e-06 -2.952802e-05 9.282350e-07
1.205648e-05 -2.847252e-05 1.005186e-06
2.896103e-05 -8.638250e-06 -2.729944e-07
2.915557e-05 -7.819645e-06 1.174001e-08
2.896103e-05 8.638250e-06 -2.729944e-07
3.148148e-05 7.209657e-06 -2.584682e-22
-2.457453e-05 2.095603e-05 -2.584682e-22
2.915557e-05 7.819645e-06 1.174001e-08
3.158622e-05 -4.916148e-06 -7.665164e-07
3.158622e-05 4.916148e-06 -7.665164e-07
1.047706e-05 -2.830969e-05 2.428522e-08
-1.735507e-05 2.678929e-05 8.082771e-07
4.527891e-06 -3.055283e-05 9.938863e-07
3.110700e-05 7.140019e-06 -8.114042e-07
3.110700e-05 -7.140019e-06 -8.114042e-07
3.123848e-05 6.635087e-06 7.948391e-07
3.123848e-05 -6.635087e-06 7.948391e-07
-2.499825e-05 2.044873e-05 -2.584682e-22
-3.006476e-05 1.096485e-05 -7.314634e-07
-3.028779e-05 -1.026207e-05 -7.544386e-07
-2.452800e-05 -2.051920e-05 -7.544386e-07
-2.800459e-05 1.524085e-05 8.375002e-07
-2.824159e-05 -1.497494e-05 -7.668316e-07
1.619657e-05 2.563364e-05 5.179985e-07
-2.391368e-05 1.842171e-05 3.414542e-08
-1.293133e-05 2.804362e-05 9.920612e-07
[...]
POINT_DATA 3834
VECTORS 10.000GHz_fone_imag double
2.962876e-05 9.890536e-06 1.787767e-02
-5.959444e-06 -2.166826e-05 1.783863e-02
3.703874e-04 3.649703e-04 1.778552e-02
-1.499253e-02 -2.874527e-03 1.068300e-02
7.007066e-03 -1.191177e-02 1.225838e-02
1.610600e-02 -1.027108e-03 9.734086e-03
1.610170e-02 1.028922e-03 9.735804e-03
7.327173e-03 1.255093e-02 1.125484e-02
1.144810e-02 8.478890e-03 1.173888e-02
1.363205e-02 -7.585728e-03 1.046342e-02
-1.484926e-02 1.422577e-03 1.115375e-02
-1.484908e-02 -1.423008e-03 1.115350e-02
-1.563080e-02 -3.974297e-03 9.890900e-03
-3.059299e-04 6.450022e-04 1.769005e-02
-1.441133e-02 -5.968592e-03 1.055334e-02
-1.289754e-02 -9.656154e-03 9.638841e-03
-1.146856e-02 -1.120812e-02 9.903967e-03
-3.812415e-03 1.963003e-02 -5.418248e-03
-1.562999e-02 1.271467e-02 -3.632315e-03
1.249539e-02 9.907655e-03 -1.526980e-02
1.249350e-02 -9.904916e-03 -1.526888e-02
-8.595269e-03 1.216021e-02 -1.630489e-02
-1.380028e-04 -1.015950e-03 -2.282199e-02
1.114227e-02 -8.442766e-03 1.213784e-02
-3.319505e-04 4.279255e-04 1.769873e-02
6.942407e-03 -1.348513e-02 1.087094e-02
4.796583e-03 -9.976181e-05 -2.259954e-02
2.366887e-03 -1.445352e-02 1.166164e-02
9.198912e-03 1.131947e-02 1.134959e-02
1.255571e-02 -1.510803e-02 -8.638557e-03
1.612326e-02 8.476445e-03 -1.151393e-02
1.612311e-02 -8.476272e-03 -1.151339e-02
-8.621918e-03 -1.571980e-02 -1.271695e-02
9.719966e-03 -1.073961e-02 1.163508e-02
1.307380e-03 -3.665373e-04 -2.305915e-02
-2.566577e-04 4.041994e-05 1.778551e-02
-1.570100e-02 2.617129e-03 1.003444e-02
-1.329066e-02 2.666353e-03 -1.798650e-02
5.250554e-03 -1.375111e-02 1.154211e-02
-1.574111e-02 -7.700260e-03 -1.319163e-02
-1.574135e-02 7.700175e-03 -1.319157e-02
6.323068e-03 1.458293e-02 9.955016e-03
-1.497433e-02 2.018144e-03 1.096447e-02
-1.497413e-02 -2.018144e-03 1.096450e-02
-1.485970e-02 9.123147e-04 1.081543e-02
9.887090e-03 1.488767e-02 -1.250617e-02
-1.154710e-05 -1.409552e-04 1.788433e-02
4.132886e-03 1.516957e-02 1.049828e-02
4.277159e-03 -1.445969e-02 1.097590e-02
-6.080136e-03 1.305562e-02 1.149432e-02
-6.137297e-03 1.487598e-02 9.593297e-03
-1.137232e-02 7.763882e-03 1.246334e-02
-1.137186e-02 -7.763916e-03 1.246266e-02
7.118564e-03 1.504484e-02 -1.420338e-02
1.085424e-02 1.264800e-02 -1.416221e-02
-5.455033e-03 -1.467830e-02 1.039558e-02
-1.253967e-02 -1.599451e-02 -4.443939e-03
-1.073120e-04 7.449705e-05 1.786780e-02
6.930253e-03 1.323019e-02 1.097189e-02
-3.297757e-03 -1.582049e-02 -1.500848e-02
-1.398481e-03 7.141440e-04 -2.307280e-02
-4.503819e-03 5.561475e-03 -2.214615e-02
-3.461367e-03 -1.496458e-02 1.007328e-02
-4.351314e-03 4.681640e-03 -2.207611e-02
6.008025e-03 -1.427789e-02 1.023197e-02
1.184749e-02 1.503614e-02 -9.881082e-03
5.701707e-03 -1.527455e-02 -1.490021e-02
1.053745e-02 -1.121937e-02 -1.617653e-02
-2.471921e-06 -5.927152e-04 1.794404e-02
-3.927150e-03 1.506363e-02 1.017713e-02
-1.153219e-02 1.050754e-02 1.022154e-02
1.049725e-02 -9.845521e-03 1.152480e-02
1.042326e-02 9.828078e-03 1.158934e-02
-1.006007e-02 -1.683143e-02 -8.048781e-03
2.859891e-03 -1.598553e-02 -1.479906e-02
4.925471e-03 1.310355e-02 1.202322e-02
3.830425e-03 -1.431485e-02 1.142701e-02
1.143338e-02 -9.838378e-03 1.109262e-02
-4.337720e-03 -4.957658e-03 -2.216853e-02
2.144425e-04 -9.370302e-05 1.767502e-02
1.320883e-03 4.070609e-03 -2.251368e-02
9.415894e-03 -1.148538e-02 1.135852e-02
-7.513457e-03 -5.065235e-04 -2.160414e-02
-7.292586e-03 -1.347240e-02 1.098995e-02
6.350592e-03 -1.362444e-02 1.115190e-02
7.296713e-03 7.411035e-05 -2.158293e-02
9.291798e-03 1.037188e-02 1.192874e-02
1.606036e-03 1.498204e-02 1.106225e-02
1.507678e-02 -1.100667e-03 1.088872e-02
-1.049446e-02 1.047878e-02 1.133129e-02
-1.259194e-05 1.916086e-05 1.781784e-02
-4.457192e-03 1.427395e-02 1.132585e-02
6.735734e-03 -1.271628e-02 1.142178e-02
-4.820492e-03 -5.145444e-03 -2.168100e-02
1.684785e-02 1.596410e-03 -1.417206e-02
1.254431e-02 -9.611505e-03 -1.532112e-02
1.541865e-03 -1.405276e-02 1.182334e-02
-2.068758e-03 -1.391142e-02 1.195323e-02
-5.393441e-03 -1.299498e-02 1.194853e-02
-8.316494e-03 -1.112197e-02 1.200109e-02
-6.780853e-03 -1.245736e-02 1.196240e-02
5.235441e-05 2.669395e-04 1.792667e-02
-3.565101e-03 -1.382382e-02 1.190293e-02
-1.111841e-04 -1.407032e-02 1.188612e-02
8.616490e-03 1.143390e-02 1.153408e-02
7.085773e-03 1.233601e-02 1.172491e-02
5.604851e-03 1.292798e-02 1.181177e-02
3.893917e-03 1.372621e-02 1.170254e-02
2.286335e-03 1.389906e-02 1.180309e-02
4.126245e-04 1.418214e-02 1.178986e-02
-1.354814e-02 -6.165560e-03 1.162134e-02
-1.354804e-02 6.164302e-03 1.162165e-02
3.563363e-04 3.990552e-04 1.768837e-02
-2.764117e-04 1.651399e-04 1.771343e-02
6.363889e-03 1.506488e-02 -1.430877e-02
-2.592500e-03 -1.622898e-02 -1.419134e-02
1.033130e-02 -1.596932e-02 -8.996783e-03
-1.649688e-03 -1.356950e-02 1.208294e-02
1.030115e-02 1.018421e-02 1.138675e-02
1.342761e-02 -4.483246e-03 1.220582e-02
-1.522803e-02 -3.055939e-03 -1.546866e-02
-1.522797e-02 3.055917e-03 -1.546876e-02
9.091664e-04 1.806335e-02 -1.198806e-02
8.084527e-03 -1.471356e-03 -2.109167e-02
-7.953345e-05 -8.359580e-05 1.777113e-02
8.084587e-03 1.471292e-03 -2.109170e-02
4.020946e-04 -1.493233e-03 -2.298787e-02
-1.471256e-02 2.613364e-03 1.106956e-02
-1.471247e-02 -2.613324e-03 1.106957e-02
-1.002030e-02 1.151084e-02 1.084112e-02
-1.375087e-02 -1.044728e-02 -1.343715e-02
-6.588557e-03 1.304361e-02 1.148534e-02
-4.258367e-03 -9.512345e-03 -2.038503e-02
-8.035761e-03 -1.594853e-02 -1.202597e-02
9.977832e-04 -1.731562e-02 -1.354344e-02
-3.282612e-05 -1.959466e-04 1.770955e-02
-1.809948e-02 9.030846e-03 -3.142159e-03
-1.337181e-02 -5.411168e-03 1.168712e-02
-1.207774e-02 -8.538334e-03 1.113249e-02
1.372722e-02 -5.998350e-03 1.093729e-02
-3.865297e-03 -1.308637e-02 1.220223e-02
-9.716756e-03 -1.054036e-02 1.162479e-02
-1.277315e-02 -6.413224e-03 1.154105e-02
-1.179457e-02 -7.416218e-03 1.200038e-02
-1.121546e-02 1.044191e-02 1.070084e-02
-1.111128e-02 -1.034273e-02 1.070983e-02
9.316064e-05 -2.458178e-04 1.789602e-02
9.222197e-03 -1.637726e-02 -1.128759e-02
2.540678e-03 2.345878e-03 -2.256359e-02
1.233933e-02 1.190511e-02 -1.386963e-02
2.565270e-03 -2.344511e-03 -2.264106e-02
1.209395e-02 -1.195707e-02 -1.394455e-02
1.062323e-02 -1.187849e-02 -1.527796e-02
1.195757e-02 1.452333e-02 -1.110529e-02
1.356667e-02 1.550882e-02 -4.093448e-03
3.017160e-03 1.384166e-02 1.186173e-02
3.128179e-03 -1.484225e-02 1.132627e-02
3.037388e-04 1.632663e-04 1.767868e-02
1.170977e-02 -9.579952e-03 1.151988e-02
-1.906682e-02 4.379858e-03 -9.127822e-03
-1.906668e-02 -4.379993e-03 -9.127539e-03
1.092281e-03 1.477011e-02 1.135405e-02
6.392856e-03 -1.043333e-02 -1.920710e-02
-9.506374e-03 -9.666087e-03 1.234083e-02
-9.283309e-03 9.783768e-03 1.237836e-02
1.108673e-02 9.554388e-03 1.107128e-02
4.735808e-03 -1.309900e-02 1.226878e-02
2.921669e-03 -1.401740e-02 1.168883e-02
-3.094353e-04 1.781597e-04 1.771858e-02
1.459064e-02 3.288194e-05 1.098467e-02
-7.085039e-03 1.183328e-02 1.201209e-02
1.070442e-02 1.168934e-02 -1.553985e-02
1.391424e-02 3.242755e-03 1.151826e-02
1.334914e-02 4.932892e-03 1.164366e-02
1.359382e-02 4.126765e-03 1.164435e-02
-1.473299e-02 -6.205606e-05 1.116055e-02
1.009837e-02 -4.026228e-03 -1.969705e-02
-1.340084e-02 3.573735e-04 1.270290e-02
-1.248421e-02 6.642512e-03 1.200670e-02
1.451200e-04 -9.221080e-05 1.770334e-02
-1.344703e-02 -1.271399e-03 1.242216e-02
1.688821e-02 9.724497e-03 -8.569836e-03
1.688797e-02 -9.724039e-03 -8.569761e-03
1.366719e-02 6.972181e-03 1.086324e-02
1.366724e-02 -6.972157e-03 1.086280e-02
8.174225e-03 -1.167543e-02 1.197605e-02
8.704223e-03 1.230418e-02 1.094584e-02
1.735826e-02 -3.414313e-03 -1.283977e-02
1.735832e-02 3.414319e-03 -1.284014e-02
-6.955654e-03 -3.988787e-03 -2.122264e-02
5.926193e-05 2.108660e-05 1.783100e-02
-6.955151e-03 3.988459e-03 -2.122291e-02
-1.053271e-02 1.626966e-02 -8.833876e-03
2.561600e-03 1.275201e-02 1.285326e-02
9.670530e-03 -1.144592e-02 1.126259e-02
1.009643e-02 -8.088981e-03 -1.790197e-02
3.044777e-03 -1.316340e-02 -1.766629e-02
1.182069e-02 -5.188436e-03 1.315591e-02
1.182074e-02 5.188487e-03 1.315611e-02
-8.280253e-03 1.211645e-02 1.141061e-02
9.925987e-03 -1.036221e-02 1.160340e-02
-1.600042e-04 3.033419e-05 1.777399e-02
1.003665e-02 1.039785e-02 1.165230e-02
5.733762e-03 -1.387346e-02 1.131624e-02
1.235611e-02 -1.512385e-02 -8.480053e-03
2.770616e-03 1.603114e-02 -1.481077e-02
1.346941e-02 1.392348e-02 -8.713078e-03
5.709147e-03 -7.848205e-04 -2.218200e-02
-1.128947e-02 9.348853e-03 -1.666806e-02
-1.128760e-02 -9.353698e-03 -1.666894e-02
-1.097000e-02 9.018351e-03 1.206020e-02
-1.096148e-02 -9.017962e-03 1.205671e-02
6.746570e-05 9.027054e-05 1.771232e-02
1.331703e-02 1.689960e-03 1.248159e-02
9.732674e-03 -1.173528e-02 -1.609954e-02
5.724504e-03 -1.368263e-02 -1.642887e-02
1.515155e-02 1.072792e-02 -1.099417e-02
-1.641243e-02 -6.059616e-04 -1.515076e-02
-5.332708e-03 1.790170e-02 -1.089701e-02
-8.028775e-03 1.846324e-02 -6.663379e-03
5.990368e-03 -1.950827e-03 -2.233216e-02
-5.041549e-04 1.292856e-04 -2.331322e-02
5.990873e-03 1.951412e-03 -2.233247e-02
-1.023869e-04 1.069530e-05 1.763000e-02
-2.636298e-04 6.845410e-04 1.775664e-02
-5.050764e-04 -1.291744e-04 -2.331361e-02
1.377884e-02 -2.228837e-03 1.202116e-02
1.377879e-02 2.228985e-03 1.202125e-02
2.084232e-04 1.774977e-04 -2.298445e-02
8.004866e-03 -1.190519e-02 1.209323e-02
-2.914961e-03 1.952490e-02 -7.709522e-03
1.401485e-02 3.259539e-03 1.140779e-02
1.401486e-02 -3.259468e-03 1.140772e-02
-1.400114e-02 -3.104312e-03 1.156384e-02
-1.400143e-02 3.104412e-03 1.156425e-02
-5.892809e-04 1.280113e-04 1.760911e-02
-1.222324e-02 4.639757e-03 1.282553e-02
-1.288728e-02 -4.410321e-03 1.229098e-02
-1.051213e-02 -8.627295e-03 1.233320e-02
1.370924e-02 -7.441598e-03 1.093374e-02
-1.220742e-02 -6.600739e-03 1.233355e-02
-5.842334e-03 -9.058929e-03 -2.001500e-02
5.736271e-04 -5.321299e-04 -2.307499e-02
8.422881e-03 -1.762506e-02 -8.604976e-03
-1.891283e-02 1.616325e-03 -1.019857e-02
-7.143575e-04 -1.672052e-02 -1.463483e-02
1.178857e-04 3.394996e-05 1.755993e-02
-4.773120e-03 -1.601674e-02 -1.463913e-02
-8.493243e-03 -1.437878e-02 -1.464386e-02
-9.122491e-03 -1.073594e-02 1.208644e-02
1.832604e-02 5.344042e-03 -1.006778e-02
1.763044e-02 7.613236e-03 -9.966084e-03
1.411616e-02 1.289154e-02 -9.831088e-03
8.332710e-03 1.101075e-02 1.216500e-02
8.675563e-04 -1.384713e-02 1.244335e-02
1.169595e-02 -1.559060e-02 -8.460421e-03
1.756423e-02 -3.011154e-03 -1.292512e-02
6.231515e-05 8.349765e-05 1.782011e-02
-1.882721e-02 5.927301e-03 2.233116e-03
-2.625100e-04 -1.915422e-02 -1.014046e-02
-1.380229e-02 -7.927711e-04 1.218966e-02
-1.719241e-03 -6.502768e-03 -2.168912e-02
1.110279e-02 -3.068147e-03 1.416892e-02
1.110265e-02 3.067853e-03 1.416873e-02
-1.623088e-02 9.229462e-03 -1.052924e-02
-5.771198e-03 -1.249947e-02 1.246142e-02
-2.551296e-03 -1.351633e-02 1.247458e-02
8.713452e-04 -1.377243e-02 1.242448e-02
-3.727751e-04 5.272407e-05 1.784214e-02
-1.320220e-02 -3.592475e-03 1.238550e-02
-9.966799e-03 -9.363938e-03 1.240727e-02
5.187010e-03 -1.857792e-02 -9.726878e-03
1.412103e-02 -1.317585e-02 -9.726975e-03
-1.907415e-02 -2.729455e-03 -9.679238e-03
1.431821e-04 2.019961e-03 -2.307029e-02
3.610763e-04 1.771281e-03 -2.332333e-02
6.275757e-04 1.926320e-03 -2.306214e-02
7.792661e-04 1.631043e-03 -2.332423e-02
1.119229e-03 1.751317e-03 -2.312003e-02
-1.254303e-05 -7.572715e-06 1.791153e-02
7.767332e-03 -1.563584e-02 -1.303810e-02
9.801492e-03 -1.820148e-02 -4.050460e-03
7.903701e-03 -1.153495e-02 -1.720444e-02
5.990178e-03 2.325806e-03 -2.227414e-02
5.989784e-03 -2.326226e-03 -2.227402e-02
-1.304479e-02 3.983283e-03 1.210366e-02
-1.304391e-02 -3.983246e-03 1.210391e-02
-8.504719e-03 4.173167e-03 -2.076444e-02
-1.500743e-03 1.323763e-02 1.261864e-02
1.424518e-03 -1.045786e-02 1.481534e-02
-3.960269e-05 -7.782929e-05 1.773474e-02
-2.886908e-03 -4.388013e-03 -2.263375e-02
4.026016e-03 1.336576e-02 1.211353e-02
4.341566e-03 -1.387814e-02 1.180310e-02
-1.870840e-02 -2.723970e-03 -1.019787e-02
-1.870837e-02 2.723942e-03 -1.019814e-02
1.111777e-04 3.735399e-05 -2.316823e-02
-1.136208e-02 -8.799371e-03 1.215867e-02
-1.136461e-02 8.799545e-03 1.216025e-02
3.338733e-03 -6.080066e-04 -2.302820e-02
4.801725e-05 -4.981015e-03 -2.266424e-02
3.673231e-04 -4.016063e-04 1.778914e-02
-2.604204e-03 4.543611e-03 -2.246174e-02
1.354194e-02 -3.672034e-03 1.228142e-02
1.372255e-02 1.275926e-03 1.218463e-02
1.372252e-02 -1.275728e-03 1.218437e-02
1.975307e-02 2.070357e-03 -7.857392e-03
1.975313e-02 -2.070119e-03 -7.857586e-03
4.176159e-03 1.701790e-02 -1.335762e-02
-5.655721e-03 -1.714093e-02 -1.214049e-02
9.913374e-03 -5.834291e-03 -1.958500e-02
1.803843e-02 -7.272089e-03 -9.111267e-03
2.093479e-04 2.381629e-05 1.808427e-02
-1.633009e-02 -3.032535e-03 -1.433121e-02
-1.941351e-02 -4.334342e-03 -5.504976e-03
9.550263e-03 1.081803e-02 1.170107e-02
-7.974264e-04 -1.125247e-02 1.454015e-02
-3.512511e-03 -1.073429e-02 1.454362e-02
-6.059277e-03 -9.443248e-03 1.448072e-02
5.471833e-03 -1.209922e-02 1.268324e-02
-2.338904e-03 -1.594896e-02 -1.533488e-02
-6.148738e-03 -1.489852e-02 -1.532960e-02
-1.046009e-02 -1.359974e-02 -1.389407e-02
1.910805e-04 2.484090e-04 1.794221e-02
2.240201e-03 -1.813594e-02 -1.295022e-02
1.156792e-02 1.629314e-02 -5.952900e-03
9.331514e-03 1.762901e-02 -5.955332e-03
7.218229e-03 1.869408e-02 -5.708905e-03
4.754299e-03 1.935620e-02 -5.972376e-03
2.437429e-03 1.989030e-02 -5.700619e-03
-7.708883e-05 1.998478e-02 -5.936002e-03
6.259611e-04 -5.679221e-05 -2.302419e-02
1.123240e-02 -8.315353e-03 1.201265e-02
1.123183e-02 8.316150e-03 1.201236e-02
-2.517730e-04 -3.432528e-05 1.776562e-02
-5.194614e-04 3.944005e-04 1.800280e-02
-1.899640e-02 -6.531216e-03 -6.315688e-03
-1.534794e-02 -1.310841e-02 -6.195303e-03
1.089780e-02 7.604160e-03 1.285692e-02
5.669101e-03 1.256263e-02 1.235966e-02
7.219861e-03 1.177727e-02 1.230647e-02
4.131720e-03 1.315978e-02 1.233618e-02
2.440362e-03 1.355712e-02 1.236499e-02
7.906546e-04 1.375337e-02 1.234081e-02
-9.313439e-04 1.368612e-02 1.241131e-02
-1.261204e-03 -1.299101e-02 1.292116e-02
-1.945236e-04 -4.769140e-04 1.772629e-02
-1.300204e-02 4.820079e-03 1.191513e-02
-1.211677e-02 -4.973601e-03 1.314857e-02
-1.300192e-02 -4.819764e-03 1.191483e-02
-1.211599e-02 4.974121e-03 1.314835e-02
1.187536e-02 6.666894e-03 1.255352e-02
1.187572e-02 -6.666917e-03 1.255298e-02
2.869546e-03 1.540206e-02 -1.601090e-02
-1.123816e-02 -4.997478e-03 -1.891268e-02
-1.123566e-02 4.996958e-03 -1.891206e-02
-2.539868e-03 3.118476e-03 -2.273500e-02
3.865722e-04 1.815281e-04 1.787963e-02
1.165078e-02 -1.634691e-02 -7.688865e-03
4.563328e-03 1.988547e-02 -5.154952e-03
-2.357478e-04 -1.247467e-02 1.373831e-02
1.196447e-02 -6.716532e-04 -1.954709e-02
1.854774e-02 6.018514e-03 -5.117106e-03
1.854795e-02 -6.018862e-03 -5.117587e-03
-4.416984e-03 3.721762e-03 -2.203935e-02
-1.375286e-03 5.729153e-03 -2.209507e-02
-1.181946e-02 2.981449e-03 1.356275e-02
-9.642630e-03 4.594525e-04 -2.066627e-02
-1.820879e-04 -5.485195e-05 1.790777e-02
-9.647552e-03 -4.657524e-04 -2.066666e-02
1.315227e-02 -2.591445e-03 1.270869e-02
1.242094e-03 -1.257281e-04 -2.313402e-02
-9.667158e-03 6.993354e-03 -1.978224e-02
2.408208e-03 -1.982858e-02 -6.562434e-03
-2.868858e-03 -1.974393e-02 -5.881929e-03
-7.591519e-03 -1.844507e-02 -5.888368e-03
-1.176531e-02 -1.628600e-02 -5.762794e-03
-9.865565e-03 -1.748237e-02 -6.682953e-03
-5.314493e-03 -1.932995e-02 -6.747273e-03
6.984577e-05 1.398084e-04 1.788053e-02
-4.243063e-04 -2.012970e-02 -6.665972e-03
7.483715e-03 -1.002435e-02 1.342952e-02
1.814959e-02 -8.989383e-03 -5.590505e-03
1.743637e-02 7.025224e-04 -1.332619e-02
1.756021e-02 -6.119354e-04 -1.313457e-02
-5.378105e-03 1.327917e-02 1.197439e-02
3.532088e-03 -1.288439e-03 -2.263987e-02
3.354709e-03 -1.643575e-02 -1.464530e-02
-5.524216e-03 1.087174e-02 1.360286e-02
-3.755565e-03 1.822728e-02 -1.126727e-02
1.107252e-05 -1.950916e-04 1.786374e-02
1.655839e-02 8.799166e-03 -1.117934e-02
1.611630e-02 9.551695e-03 -1.123056e-02
7.113393e-03 1.116459e-02 1.264249e-02
-2.533022e-03 1.599704e-02 -1.491580e-02
-5.252014e-03 1.530557e-02 -1.505459e-02
-1.102234e-02 1.178260e-02 -1.504647e-02
-1.504483e-02 -7.770788e-03 -1.427650e-02
-1.117826e-02 -1.257246e-02 -1.431605e-02
-1.473845e-02 -8.815884e-03 -1.394445e-02
-1.212339e-02 -2.921636e-03 1.354716e-02
-1.958371e-04 2.611702e-04 1.793688e-02
-1.212360e-02 2.921301e-03 1.354757e-02
1.520989e-03 -1.937206e-02 -8.993470e-03
7.592441e-03 9.250410e-03 1.401743e-02
-1.897792e-02 6.053627e-03 -6.249121e-03
-1.897821e-02 -6.053884e-03 -6.248725e-03
-1.956447e-02 4.882913e-04 -8.341182e-03
5.038845e-03 1.115097e-02 1.371534e-02
4.572840e-03 -1.932136e-02 -6.497609e-03
1.151493e-02 -1.695990e-02 -4.958196e-03
1.285428e-03 1.342316e-03 -2.310154e-02
3.727275e-04 -4.095785e-04 1.787173e-02
1.350777e-02 1.788808e-03 1.263742e-02
8.357142e-03 -1.758317e-02 -9.693272e-03
1.125291e-02 5.964041e-03 1.314890e-02
1.103134e-02 6.472610e-03 1.323149e-02
3.494207e-03 8.004362e-03 -2.126646e-02
-1.983709e-02 4.238532e-03 -4.211882e-03
-7.603539e-03 1.113269e-02 1.279797e-02
8.592670e-03 1.859126e-02 -3.457883e-03
1.081377e-02 1.726579e-02 -3.592944e-03
6.304152e-03 1.938570e-02 -3.558297e-03
4.466478e-05 1.629273e-04 1.785932e-02
3.815389e-03 2.012729e-02 -3.479104e-03
-1.120891e-03 2.021161e-02 -3.103701e-03
1.395027e-03 2.034352e-02 -3.551035e-03
1.153813e-02 1.499479e-02 -1.036959e-02
3.785423e-03 -4.649594e-03 -2.266597e-02
5.765021e-03 -1.063456e-02 1.378536e-02
-3.647926e-03 1.229378e-02 1.325438e-02
3.276229e-03 -1.031164e-02 -2.012749e-02
1.821363e-02 -4.794993e-03 -1.034688e-02
-1.303741e-02 7.825294e-03 1.102765e-02
1.949507e-05 -1.031092e-04 1.791417e-02
-1.303669e-02 -7.824874e-03 1.102777e-02
-1.702549e-02 1.117311e-02 -4.775463e-03
-1.379719e-02 -1.455965e-02 -6.291339e-03
-1.675871e-02 -1.101229e-02 -6.641947e-03
-1.800819e-02 -8.561914e-03 -6.714559e-03
-3.405879e-04 -2.042812e-02 -5.192580e-03
5.985791e-03 -1.942999e-02 -4.673778e-03
1.449712e-02 -1.427941e-02 -4.624709e-03
-2.426960e-03 1.262032e-02 1.333097e-02
1.158212e-02 5.353009e-03 1.332000e-02
-1.131165e-05 -1.607565e-04 1.781728e-02
7.151361e-05 -4.542349e-05 1.771389e-02
1.370027e-02 -1.451065e-02 -8.206823e-03
3.392433e-03 6.891188e-03 -2.180697e-02
9.555405e-03 1.480734e-02 -1.303362e-02
-6.608935e-03 -1.824352e-03 -2.188036e-02
-1.041146e-02 -3.740002e-03 -1.997429e-02
1.381603e-02 1.414941e-02 -8.434901e-03
-1.206888e-02 -2.125414e-04 -1.944638e-02
1.347557e-02 -1.508373e-02 -5.449625e-03
-1.072018e-02 -6.452521e-03 1.340980e-02
-6.516112e-03 -6.264440e-03 -2.099785e-02
1.906379e-04 1.169663e-04 1.793579e-02
-4.558057e-04 2.560348e-03 -2.316870e-02
2.476411e-03 -1.215693e-02 1.344577e-02
1.859261e-02 -7.502327e-03 -6.385376e-03
1.859267e-02 7.502227e-03 -6.385235e-03
4.489051e-04 3.207189e-04 -2.298423e-02
-1.420576e-02 1.259344e-02 -1.012075e-02
-1.419810e-02 -1.261849e-02 -1.010720e-02
1.271708e-02 1.632164e-03 1.325797e-02
-4.485764e-04 9.997983e-04 -2.286501e-02
4.275864e-03 -5.030246e-03 -2.186851e-02
-4.656475e-04 2.768314e-04 1.794144e-02
2.221158e-04 -2.195419e-04 -2.322807e-02
-8.308839e-03 -9.538869e-03 1.303429e-02
1.877860e-04 1.408942e-04 -2.331005e-02
5.196672e-03 3.592793e-03 -2.223306e-02
5.196399e-03 -3.592978e-03 -2.223257e-02
2.119847e-03 1.906421e-02 -9.886136e-03
1.004222e-02 -1.773044e-02 -4.817840e-03
-8.280410e-03 9.223777e-03 1.303578e-02
-1.165895e-04 2.430386e-03 -2.290385e-02
2.586884e-04 5.470974e-03 -2.227276e-02
-4.614471e-04 2.633646e-04 1.779659e-02
7.726054e-03 -8.482958e-03 1.431299e-02
2.974147e-04 -1.446812e-02 1.225656e-02
-3.071146e-03 -1.400844e-02 1.222744e-02
-6.393248e-03 -1.283976e-02 1.221806e-02
-7.775514e-03 -1.029241e-02 1.322361e-02
-1.049065e-02 1.600497e-03 -2.022116e-02
-1.994596e-02 3.119548e-03 -6.674716e-03
-1.644006e-03 1.187921e-02 1.386614e-02
-1.060587e-02 7.513053e-03 1.322357e-02
-1.371370e-03 1.270569e-02 1.350273e-02
-3.957722e-04 -1.760047e-04 1.786321e-02
-4.394817e-03 1.235754e-02 1.315527e-02
-8.806793e-03 8.947657e-03 1.350930e-02