# vtk DataFile Version 2.0
Electric current density generated by TTH
ASCII
DATASET UNSTRUCTURED_GRID
POINTS 13736 double
4.223568e-05 -1.034476e-20 -9.711018e-23
4.217627e-05 2.239448e-06 -9.711018e-23
3.524681e-05 2.327048e-05 -9.711018e-23
3.898486e-05 -1.624910e-05 -9.711018e-23
-3.579999e-05 2.095635e-05 1.733621e-07
-2.537074e-05 3.281972e-05 1.733620e-07
-3.751055e-05 1.771345e-05 -1.733620e-07
-2.063901e-05 3.598388e-05 -1.733676e-07
-3.259412e-05 2.565992e-05 1.733676e-07
-6.899673e-06 4.090480e-05 -1.733707e-07
-1.647504e-05 3.804527e-05 1.133043e-07
-2.645808e-05 3.201768e-05 -2.543654e-07
-3.968641e-05 1.433330e-05 -1.740512e-07
1.430148e-05 3.968678e-05 1.939733e-07
3.907996e-05 -1.601904e-05 -9.711018e-23
2.226781e-05 3.581456e-05 2.143874e-07
4.006264e-05 -1.121560e-05 3.184035e-07
1.366976e-05 -3.992400e-05 1.657263e-07
4.066057e-05 1.125673e-05 -1.847639e-07
1.721508e-05 -3.788387e-05 3.248343e-07
4.113325e-05 -8.330776e-06 3.748405e-07
1.551365e-05 3.857358e-05 2.968523e-07
-4.110099e-05 7.052620e-06 3.718734e-07
-3.539098e-05 2.165794e-05 -1.914814e-07
-3.716508e-05 1.844842e-05 1.914814e-07
3.917370e-05 -1.578842e-05 -9.711018e-23
-3.309759e-05 2.502270e-05 -1.914531e-07
-2.137544e-05 3.556288e-05 1.923578e-07
-3.968343e-05 -1.228197e-05 -2.608371e-07
-3.380333e-05 2.397810e-05 3.322222e-08
-2.340730e-05 3.420152e-05 -3.744303e-08
-8.052427e-06 4.065469e-05 3.745170e-08
-4.445616e-06 4.195967e-05 -1.759137e-07
1.256503e-05 -4.027061e-05 -1.933660e-07
8.257437e-07 -4.217857e-05 -1.909851e-07
-2.440866e-05 -3.440829e-05 -1.909851e-07
3.926607e-05 -1.555725e-05 -9.711018e-23
-1.931366e-05 -3.750594e-05 -1.909851e-07
-3.187317e-05 -2.763518e-05 -1.933660e-07
-3.892282e-05 -1.627248e-05 -1.895569e-07
-2.901672e-05 -3.062078e-05 -1.933660e-07
-3.959083e-05 -1.456599e-05 -1.933660e-07
-2.289137e-05 -3.543427e-05 -1.933660e-07
-1.766889e-05 -3.830913e-05 -1.895569e-07
-3.780613e-05 -1.805056e-05 -3.926451e-07
-1.252744e-06 -4.187549e-05 -3.926451e-07
3.510923e-05 2.231588e-05 3.170759e-07
3.935709e-05 -1.532554e-05 -9.711018e-23
2.692722e-05 -3.171091e-05 3.170803e-07
3.970474e-05 1.256375e-05 -3.457231e-07
-1.270114e-05 3.944931e-05 -2.552089e-08
-1.369883e-05 3.911405e-05 -2.552085e-08
4.038840e-05 -1.218782e-05 -1.898430e-07
-3.983610e-05 1.298280e-05 -3.920519e-07
7.804324e-06 4.085769e-05 3.134229e-07
1.981887e-06 -4.215319e-05 1.649198e-07
4.004835e-05 1.182091e-05 -3.877596e-07
6.268100e-06 4.147126e-05 3.828473e-07
3.944674e-05 -1.509330e-05 -9.711018e-23
1.652986e-05 -3.855259e-05 -3.815868e-07
2.639899e-05 3.203139e-05 -2.180084e-07
3.758942e-05 1.761154e-05 -2.218762e-07
4.153169e-05 2.301515e-06 3.126796e-07
4.140884e-05 2.304607e-06 1.517852e-07
7.389550e-06 -4.077972e-05 2.968758e-08
-3.743426e-05 -1.914119e-05 -3.394113e-07
6.493273e-06 -4.153970e-05 -3.394113e-07
-2.400676e-06 -4.197554e-05 -3.394113e-07
2.679943e-05 3.165587e-05 -1.602511e-07
3.953501e-05 -1.486053e-05 -9.711018e-23
4.080914e-05 8.410310e-06 3.570250e-07
3.988919e-05 -1.376737e-05 -1.682814e-07
2.092035e-05 -3.664967e-05 1.638721e-07
-4.195263e-05 6.042661e-07 -3.785822e-07
-2.726688e-05 3.121089e-05 3.152610e-08
3.051999e-05 2.912130e-05 1.950960e-07
4.052509e-05 -8.923069e-06 1.982475e-07
-1.897515e-05 3.686950e-05 1.334550e-07
-3.056967e-05 2.801627e-05 1.334520e-07
-9.627819e-06 -4.030893e-05 7.471520e-09
3.962192e-05 -1.462725e-05 -9.711018e-23
-5.305738e-06 -4.110175e-05 7.563016e-09
-1.104758e-05 -3.994315e-05 7.558413e-09
2.874710e-06 -4.134296e-05 7.472076e-09
-6.755071e-06 -4.088855e-05 7.471520e-09
-3.546240e-05 -2.144580e-05 7.475008e-09
-3.299200e-05 -2.508051e-05 7.471520e-09
-3.468168e-05 -2.268668e-05 7.556194e-09
-3.385816e-05 -2.389831e-05 7.471520e-09
-8.197127e-06 -4.062403e-05 7.558413e-09
-1.072281e-05 4.005468e-05 1.314016e-07
3.970744e-05 -1.439346e-05 -9.711018e-23
-2.950320e-05 2.913509e-05 1.291720e-07
-1.758719e-05 3.754973e-05 1.291692e-07
-1.663400e-05 3.819226e-05 3.523464e-07
-4.218154e-05 -3.173435e-09 -1.999905e-07
3.386468e-05 -2.517804e-05 -1.666859e-07
1.309063e-05 4.010577e-05 1.882895e-07
2.334224e-05 3.514224e-05 1.882895e-07
1.718960e-05 3.852815e-05 1.868843e-07
-3.985457e-05 1.182073e-05 2.916602e-07
-7.936826e-06 4.144378e-05 1.709786e-07
3.979159e-05 -1.415916e-05 -9.711018e-23
3.475169e-05 -2.292668e-05 -3.386918e-07
-1.159031e-05 3.989056e-05 2.604338e-07
2.812529e-05 3.144629e-05 1.868809e-07
-3.959379e-05 1.246466e-05 -2.201767e-07
2.630126e-05 3.298704e-05 1.868797e-07
7.877268e-06 4.077772e-05 -2.501607e-07
-1.788786e-05 3.741054e-05 1.370283e-07
-2.973705e-05 2.890038e-05 1.370243e-07
-1.154837e-05 3.980192e-05 2.386945e-08
-2.106447e-05 3.574875e-05 1.935870e-07
3.510904e-05 2.347782e-05 -9.711018e-23
3.987435e-05 -1.392438e-05 -9.711018e-23
4.177624e-05 5.879274e-06 -1.886577e-07
4.033750e-05 1.158490e-05 3.749342e-07
4.046083e-05 1.142327e-05 3.404067e-07
6.641920e-06 -4.166382e-05 1.849122e-07
4.068240e-05 1.120117e-05 1.723519e-07
-1.595689e-05 3.840937e-05 -3.100601e-07
-3.651605e-05 1.991180e-05 3.100601e-07
-5.669052e-06 4.120393e-05 -3.100581e-07
3.384417e-05 -2.398920e-05 1.758584e-07
3.222687e-05 -2.669135e-05 -3.964407e-07
3.995573e-05 -1.368911e-05 -9.711018e-23
3.981537e-05 -1.338571e-05 3.600360e-07
2.018605e-05 3.628813e-05 -2.414967e-07
3.469354e-05 -2.329575e-05 3.933121e-07
4.208532e-05 -2.761928e-06 2.094376e-07
-4.043288e-05 9.339333e-06 -2.010664e-07
1.396056e-05 3.957286e-05 3.765985e-07
4.149686e-05 2.607830e-06 -2.989176e-07
-8.234931e-07 4.164021e-05 3.475309e-07
2.917508e-05 2.956917e-05 2.594571e-07
-8.121317e-07 4.148485e-05 -1.928846e-07
4.003573e-05 -1.345337e-05 -9.711018e-23
-3.804226e-05 1.697306e-05 3.520959e-07
3.808089e-05 1.762779e-05 -3.766595e-07
-3.216891e-05 2.646619e-05 -3.520913e-07
-2.883295e-05 3.006591e-05 3.520913e-07
-3.852587e-05 1.584471e-05 -3.520913e-07
-9.658694e-06 4.052169e-05 3.520909e-07
-4.122649e-05 -6.306878e-06 -3.734824e-07
3.678237e-05 2.015855e-05 -3.823444e-07
-4.111658e-05 -5.760196e-06 -2.325950e-07
1.770946e-05 -3.828448e-05 1.990999e-07
4.011433e-05 -1.321716e-05 -9.711018e-23
1.488215e-05 3.923372e-05 -3.771638e-07
1.850590e-05 3.766026e-05 -3.771638e-07
1.921966e-05 3.674565e-05 1.406989e-07
-2.383645e-06 -4.140245e-05 -1.470940e-07
-3.691682e-05 -1.889426e-05 -1.470940e-07
4.574845e-06 4.125229e-05 2.136283e-07
3.907630e-05 1.530317e-05 3.756619e-07
2.242189e-05 -3.574766e-05 1.695792e-07
2.958218e-07 4.198797e-05 -3.670887e-07
2.603335e-05 3.246732e-05 3.274502e-07
4.019153e-05 -1.298049e-05 -9.711018e-23
3.724028e-05 1.951646e-05 3.392548e-07
2.729230e-05 3.194257e-05 3.557431e-07
9.938255e-06 4.099528e-05 1.979553e-07
4.081013e-05 -8.881922e-06 3.895700e-07
2.194534e-05 3.603293e-05 1.853371e-07
1.465567e-05 3.956237e-05 1.853371e-07
2.185796e-05 3.542957e-05 3.365603e-07
-3.021151e-05 2.852105e-05 -2.684185e-07
-1.846433e-05 3.721901e-05 -2.684185e-07
4.187898e-05 -3.737038e-06 3.386513e-07
4.026734e-05 -1.274337e-05 -9.711018e-23
1.781448e-05 -3.802897e-05 -3.646973e-07
2.787476e-05 -3.107569e-05 -3.852938e-07
-3.724734e-05 -1.817109e-05 2.286509e-08
-1.588588e-06 -4.141292e-05 2.286509e-08
-4.058460e-05 -8.431657e-06 8.164194e-08
4.027520e-05 -9.935337e-06 1.732192e-07
6.374944e-07 4.185646e-05 3.958650e-07
4.126884e-05 -4.382065e-06 2.066682e-07
-3.393305e-05 2.396140e-05 -2.605549e-07
-1.258682e-05 -3.963384e-05 3.038421e-07
4.034176e-05 -1.250581e-05 -9.711018e-23
1.768085e-05 -3.751925e-05 1.603312e-07
1.753157e-05 -3.757524e-05 -1.278641e-07
2.854358e-05 3.042835e-05 3.783743e-07
4.098995e-05 7.094959e-06 3.157896e-07
7.054006e-06 4.145026e-05 -3.381530e-07
3.301000e-05 -2.599920e-05 -3.532304e-07
-6.567405e-06 4.108926e-05 3.240842e-07
-3.607353e-05 2.067791e-05 -2.998125e-07
3.849772e-05 1.686458e-05 3.477641e-07
2.609808e-05 3.283693e-05 -3.821362e-07
4.041477e-05 -1.226781e-05 -9.711018e-23
-3.696717e-05 -1.919845e-05 3.511815e-07
-2.641614e-06 -4.157131e-05 3.511815e-07
-3.859528e-05 1.548062e-05 3.036039e-07
2.842640e-06 4.136191e-05 -1.140648e-07
-3.188083e-05 2.669936e-05 3.035802e-07
-1.726323e-05 -3.770777e-05 -1.486038e-07
-2.409062e-05 -3.375702e-05 -1.485898e-07
-3.821731e-05 -1.610378e-05 -1.485898e-07
6.943516e-07 -4.146580e-05 -1.485898e-07
-3.813318e-05 1.659919e-05 -3.078445e-07
4.048637e-05 -1.202939e-05 -9.711018e-23
-1.148509e-06 4.146495e-05 1.696777e-07
4.124994e-05 7.543482e-06 3.849762e-07
2.249357e-05 -3.545639e-05 -3.668976e-07
1.759000e-05 -3.782058e-05 -3.751742e-07
3.558079e-05 2.137063e-05 -2.139272e-07
2.181657e-05 -3.611125e-05 -1.850060e-07
3.448574e-05 -2.391319e-05 3.758122e-07
2.600879e-05 3.226779e-05 4.017668e-08
-4.037485e-05 1.131150e-05 3.860746e-07
2.711640e-05 3.149499e-05 2.815094e-07
4.055657e-05 -1.179055e-05 -9.711018e-23
-4.070388e-05 -7.796378e-06 -2.941928e-08
4.038263e-05 1.123494e-05 3.889031e-07
3.736735e-05 1.858537e-05 3.822991e-07
-4.108627e-05 6.347240e-06 -2.944314e-07
3.939591e-05 1.343061e-05 -3.319199e-07
3.963415e-05 1.376133e-05 -3.791268e-07
-3.044578e-05 2.920003e-05 -1.936753e-07
-1.844895e-05 3.793710e-05 -1.936753e-07
7.511985e-06 -4.097170e-05 3.509153e-07
-3.618057e-05 2.170358e-05 -1.828772e-07
3.497005e-05 2.368435e-05 -9.711018e-23
4.062536e-05 -1.155130e-05 -9.711018e-23
-3.795562e-05 1.842416e-05 1.828772e-07
-3.342877e-05 2.574094e-05 -1.828771e-07
2.133500e-07 4.164012e-05 -3.431956e-07
1.471433e-05 -3.929114e-05 3.788901e-07
-2.381474e-05 3.482508e-05 1.862803e-07
3.120777e-05 2.815210e-05 -3.479104e-07
2.979281e-05 -2.967226e-05 3.368950e-07
-4.183502e-05 -4.229385e-06 -3.368830e-07
1.803771e-05 -3.740933e-05 2.493187e-07
-8.231912e-06 4.137665e-05 -1.892841e-07
4.069274e-05 -1.131165e-05 -9.711018e-23
-3.958830e-05 1.457769e-05 1.903542e-07
4.145190e-05 -2.220522e-06 2.229453e-07
9.086501e-06 4.120177e-05 -1.812383e-07
3.946862e-05 -1.486532e-05 -2.104296e-07
3.842041e-05 -1.742956e-05 1.865091e-07
2.197965e-05 3.602336e-05 -1.657266e-07
-1.567474e-05 -3.850341e-05 -2.926928e-07
[...]
POINT_DATA 13736
VECTORS 10.000GHz_fone_imag double
-8.248742e-06 -7.296329e-06 2.601990e-02
1.009730e-04 -4.596983e-05 2.596114e-02
2.437313e-04 -9.466906e-05 2.591408e-02
-4.912217e-04 -1.068494e-05 2.613497e-02
1.032057e-02 -6.000075e-03 -2.495767e-02
7.355916e-03 -9.564805e-03 -2.492764e-02
-1.089374e-02 5.092647e-03 -2.494240e-02
-5.994140e-03 1.043728e-02 -2.496998e-02
9.346837e-03 -7.423328e-03 -2.492370e-02
-2.085551e-03 1.179366e-02 -2.495212e-02
2.949314e-03 -6.661519e-03 -2.694956e-02
-1.098816e-02 1.294785e-02 -2.129954e-02
-1.088591e-02 3.897684e-03 2.318938e-02
-4.530937e-03 -1.217144e-02 2.245318e-02
3.813112e-05 -6.449438e-05 2.594225e-02
-7.418910e-03 -1.230891e-02 2.173569e-02
-2.091460e-02 5.749368e-03 -1.688366e-02
-3.889831e-03 1.120172e-02 2.353649e-02
1.191342e-02 3.110664e-03 2.262166e-02
-9.193718e-03 2.026690e-02 -1.600520e-02
-2.476089e-02 5.145393e-03 7.956627e-03
-7.723866e-03 -1.865782e-02 -1.858289e-02
2.515684e-02 -4.464772e-03 -9.730544e-03
-1.145296e-02 7.006936e-03 -2.449549e-02
1.199575e-02 -5.973916e-03 -2.449175e-02
-4.744219e-05 -2.605974e-04 2.609306e-02
-1.067647e-02 8.190751e-03 -2.448551e-02
6.881618e-03 -1.140368e-02 -2.433284e-02
-1.710017e-02 -5.319862e-03 -2.136462e-02
2.089912e-03 -1.671496e-03 -2.758472e-02
-1.581867e-03 2.516767e-03 -2.763809e-02
7.327570e-04 -2.901939e-03 -2.764017e-02
-1.324913e-03 1.155701e-02 2.315458e-02
3.827405e-03 -1.229677e-02 2.264257e-02
2.200268e-05 -1.276892e-02 2.256549e-02
-7.437721e-03 -1.020339e-02 2.264184e-02
4.503958e-04 -1.109889e-04 2.589253e-02
-5.797495e-03 -1.116725e-02 2.269427e-02
-9.590282e-03 -8.470661e-03 2.255226e-02
-1.141774e-02 -4.861038e-03 2.274530e-02
-8.879615e-03 -9.206593e-03 2.255285e-02
-1.205738e-02 -4.365838e-03 2.257381e-02
-6.879165e-03 -1.082195e-02 2.255368e-02
-5.138231e-03 -1.134763e-02 2.270066e-02
-2.386827e-02 -1.161138e-02 3.069795e-03
-9.853852e-04 -2.652987e-02 3.078626e-03
-1.834136e-02 -1.127579e-02 -1.716840e-02
6.439906e-05 2.336579e-04 2.586751e-02
-1.418322e-02 1.620854e-02 -1.716492e-02
2.256985e-02 6.995547e-03 -1.382814e-02
-7.374539e-04 1.834336e-03 -2.774166e-02
-5.839370e-04 1.939522e-03 -2.774028e-02
1.218477e-02 -3.372701e-03 2.265936e-02
-2.530719e-02 8.071333e-03 3.081758e-03
-3.993382e-03 -2.103977e-02 -1.732687e-02
-5.998255e-04 1.144370e-02 2.364054e-02
2.512178e-02 7.348753e-03 -6.577294e-03
-3.697305e-03 -2.535033e-02 6.094069e-03
-6.812939e-05 -2.091933e-05 2.599888e-02
1.016838e-02 -2.375226e-02 6.729280e-03
9.677658e-03 1.211829e-02 -2.317448e-02
1.418650e-02 6.591494e-03 -2.299976e-02
-2.134237e-02 -1.192710e-03 -1.724931e-02
-1.032858e-02 -4.934697e-04 -2.584152e-02
-3.403227e-04 2.269636e-03 -2.788316e-02
-2.026472e-02 -1.008940e-02 1.310697e-02
3.643227e-03 -2.245599e-02 1.307824e-02
-1.050166e-03 -2.261646e-02 1.311758e-02
7.319561e-03 8.674899e-03 -2.538342e-02
5.622376e-05 -1.806799e-05 2.581807e-02
-2.412327e-02 -5.229958e-03 -1.220152e-02
1.067794e-02 -3.671731e-03 2.347464e-02
-5.517563e-03 9.713797e-03 2.346057e-02
-2.549065e-02 3.720186e-04 7.909337e-03
1.723392e-03 -2.049205e-03 -2.784751e-02
-9.694618e-03 -9.014606e-03 2.231620e-02
-1.303885e-02 2.718708e-03 -2.429548e-02
3.898344e-03 -7.929964e-03 -2.644647e-02
6.455006e-03 -5.884560e-03 -2.642920e-02
1.736483e-04 4.045588e-04 -2.776137e-02
5.018732e-05 -5.541781e-07 2.595856e-02
1.524632e-04 4.446994e-04 -2.774798e-02
2.388322e-04 3.642039e-04 -2.783119e-02
-8.327463e-05 5.420399e-04 -2.773398e-02
1.431854e-04 4.175014e-04 -2.776729e-02
3.416850e-04 3.277256e-04 -2.770386e-02
3.168070e-04 3.192668e-04 -2.772640e-02
2.777391e-04 3.067886e-04 -2.780009e-02
3.581072e-04 3.644487e-04 -2.774029e-02
2.068689e-04 3.812445e-04 -2.782837e-02
2.379878e-03 -8.073056e-03 -2.668948e-02
-6.622890e-06 2.289567e-04 2.590016e-02
6.076796e-03 -5.775315e-03 -2.639903e-02
3.695596e-03 -7.522384e-03 -2.640668e-02
9.543500e-03 -2.201348e-02 -1.287893e-02
-1.367200e-02 1.339853e-04 2.214483e-02
8.902038e-03 -6.605770e-03 2.345996e-02
-3.944570e-03 -1.180171e-02 2.273928e-02
-6.878922e-03 -1.041295e-02 2.268149e-02
-4.938700e-03 -1.123717e-02 2.277361e-02
1.954365e-02 -5.818504e-03 -1.873359e-02
2.046683e-03 -1.107468e-02 2.319314e-02
-3.267113e-04 -5.128164e-05 2.589137e-02
1.947617e-02 -1.298024e-02 -1.458494e-02
4.967074e-03 -1.718214e-02 -2.100977e-02
-8.298381e-03 -9.046545e-03 2.263822e-02
-1.458366e-02 4.516018e-03 -2.318825e-02
-7.674012e-03 -9.650561e-03 2.265300e-02
3.131990e-03 1.686377e-02 -2.174762e-02
3.869191e-03 -8.016779e-03 -2.646172e-02
6.404653e-03 -6.180230e-03 -2.645559e-02
3.682320e-04 -1.862657e-03 -2.785039e-02
6.647994e-03 -1.151462e-02 -2.415163e-02
-5.850535e-05 2.100792e-04 2.613478e-02
-9.403594e-05 2.308665e-04 2.583741e-02
1.229916e-02 1.646933e-03 2.258193e-02
-2.441072e-02 -7.075671e-03 8.149089e-03
-2.213974e-02 -6.229413e-03 1.319976e-02
-1.975211e-03 1.200325e-02 2.286365e-02
-1.111613e-02 -3.024353e-03 2.322932e-02
-7.894170e-03 1.962351e-02 -1.720296e-02
1.851748e-02 -1.032072e-02 -1.729379e-02
-3.085921e-03 2.098796e-02 -1.741054e-02
-9.916076e-03 7.013681e-03 -2.492527e-02
2.074475e-02 -1.695790e-02 -2.339284e-04
-4.864222e-04 3.152490e-04 2.592997e-02
-2.247933e-02 7.681873e-03 1.069064e-02
8.289676e-03 1.450516e-02 -2.216652e-02
-2.233930e-02 1.484167e-02 -4.081535e-03
-1.360580e-02 9.946827e-04 2.191093e-02
-1.339357e-02 3.057765e-03 -2.397283e-02
-8.579803e-03 -2.395337e-02 7.841591e-03
2.021751e-02 1.366659e-03 -1.846060e-02
5.712918e-04 -2.334107e-02 -1.364940e-02
-1.254160e-02 -1.258382e-02 -2.146523e-02
-3.394460e-04 1.353865e-02 -2.449005e-02
-4.775190e-04 -6.035949e-06 2.586551e-02
2.193703e-02 -9.648267e-03 -1.317460e-02
2.311484e-02 1.077748e-02 7.816669e-03
-1.853333e-02 1.523173e-02 -1.310197e-02
1.661719e-02 -1.726386e-02 -1.322910e-02
-2.214493e-02 9.107844e-03 -1.314297e-02
5.579335e-03 -2.329722e-02 -1.324132e-02
-2.528028e-02 -3.668458e-03 -9.783636e-03
2.246839e-02 1.247246e-02 6.571850e-03
-1.582348e-02 -2.354511e-03 -2.246735e-02
-5.644482e-03 1.197347e-02 2.229248e-02
-2.280188e-04 5.211342e-05 2.586685e-02
8.959364e-03 2.384975e-02 7.517118e-03
1.107592e-02 2.282449e-02 7.733776e-03
-4.529170e-03 -8.644090e-03 -2.622264e-02
-5.881401e-04 -1.007944e-02 -2.597552e-02
-8.980507e-03 -4.604371e-03 -2.597291e-02
-1.599518e-03 -1.482942e-02 -2.336230e-02
-2.361155e-02 -9.031420e-03 8.209883e-03
-5.981136e-03 9.615891e-03 2.314802e-02
6.454881e-05 2.481190e-02 9.479702e-03
-1.427172e-02 -1.733510e-02 -1.556190e-02
-5.983366e-04 2.697537e-04 2.605010e-02
-2.002902e-02 -1.067559e-02 1.312222e-02
-1.556884e-02 -1.829795e-02 1.147078e-02
-2.968927e-03 -1.284209e-02 2.233331e-02
-2.596400e-02 5.539653e-03 -5.367958e-03
-6.418295e-03 -1.027324e-02 2.273212e-02
-4.066474e-03 -1.144823e-02 2.280195e-02
-1.212720e-02 -1.958814e-02 -1.509450e-02
-1.322965e-02 1.259162e-02 -2.072406e-02
-8.055739e-03 1.640400e-02 -2.073788e-02
-2.252113e-02 1.786931e-03 1.307859e-02
-1.660112e-04 -9.639722e-05 2.599146e-02
1.005419e-02 -2.228409e-02 9.933452e-03
1.747218e-02 -1.958603e-02 -7.034124e-03
1.583247e-03 7.971880e-04 -2.780652e-02
9.066133e-05 1.770908e-03 -2.780339e-02
5.840521e-03 1.166114e-03 -2.736947e-02
-1.202104e-02 2.874570e-03 -2.474038e-02
-3.695849e-04 -2.675619e-02 7.743607e-04
-1.410776e-02 1.508208e-03 -2.391685e-02
-1.454857e-02 1.023864e-02 -2.067616e-02
6.476350e-03 1.978224e-02 -1.792083e-02
1.573703e-04 -1.255915e-04 2.609785e-02
-4.616715e-03 9.981945e-03 -2.559370e-02
3.733094e-03 -7.885521e-03 -2.637351e-02
-1.800515e-02 -1.861272e-02 -8.478075e-03
-2.146118e-02 -3.632159e-03 -1.691448e-02
3.585695e-03 2.233338e-02 1.298324e-02
1.858259e-02 -1.480855e-02 1.160525e-02
3.669678e-03 -2.163832e-02 -1.607443e-02
-1.794770e-02 1.023752e-02 -1.798166e-02
-2.149666e-02 -9.403656e-03 1.232334e-02
1.615520e-02 2.014999e-02 6.489807e-03
-5.079134e-05 1.087513e-04 2.595373e-02
2.143073e-02 1.103549e-02 -1.296408e-02
1.447487e-03 2.406322e-02 -1.296632e-02
1.916009e-02 -7.663856e-03 -1.772148e-02
7.536234e-04 7.721108e-03 -2.657749e-02
1.586778e-02 -1.327948e-02 -1.773697e-02
-4.444842e-03 -9.423256e-03 -2.586888e-02
-5.959864e-03 -8.524616e-03 -2.585360e-02
-9.639962e-03 -3.929447e-03 -2.589071e-02
2.398205e-04 -1.037162e-02 -2.589877e-02
-1.924976e-02 8.539705e-03 -1.744895e-02
5.245797e-05 -1.054804e-04 2.611828e-02
3.584335e-04 -1.179798e-02 -2.505613e-02
-2.554306e-02 -4.623475e-03 5.958491e-03
1.310322e-02 -2.073704e-02 9.742082e-03
1.061777e-02 -2.315204e-02 -9.313659e-03
1.284150e-02 7.751630e-03 -2.341633e-02
6.252839e-03 -1.052113e-02 2.278802e-02
-2.051178e-02 1.471041e-02 7.910301e-03
-1.716547e-03 -2.247398e-03 -2.773588e-02
2.531082e-02 -7.001942e-03 5.520796e-03
-1.255578e-02 -1.426817e-02 -1.984963e-02
-1.279964e-04 -1.540149e-05 2.606295e-02
-1.995510e-03 -4.159681e-04 -2.807542e-02
-2.537559e-02 -7.053040e-03 4.655644e-03
-2.314808e-02 -1.145642e-02 -7.852198e-03
-2.004677e-02 3.102062e-03 -1.880641e-02
2.129406e-02 7.382191e-03 -1.534333e-02
2.409128e-02 8.363694e-03 7.569608e-03
-9.470597e-03 8.886280e-03 2.238158e-02
-5.804607e-03 1.161138e-02 2.237889e-02
-4.396306e-03 2.379239e-02 -1.268912e-02
-1.075863e-02 6.480629e-03 2.282491e-02
-1.814871e-04 -9.316081e-05 2.608207e-02
7.095118e-05 -1.444641e-04 2.585898e-02
1.118867e-02 -5.491831e-03 2.285092e-02
-9.949305e-03 7.638588e-03 2.282928e-02
7.486356e-05 2.328798e-02 -1.435749e-02
-9.057805e-03 2.390407e-02 7.528591e-03
6.957251e-03 -1.020610e-02 2.267096e-02
1.726388e-02 1.570622e-02 1.220017e-02
-1.586686e-02 1.609535e-02 1.312745e-02
-2.245721e-02 -2.057726e-03 1.321255e-02
-7.260778e-03 1.509234e-02 -2.191160e-02
-2.505089e-03 1.229522e-02 2.261041e-02
1.123409e-04 2.056283e-04 2.587081e-02
1.199173e-02 -4.225854e-03 2.256243e-02
-1.534414e-02 9.558638e-04 -2.325815e-02
2.595284e-03 1.207181e-02 2.280308e-02
1.288273e-02 -4.691029e-03 2.198327e-02
-1.130772e-02 5.169353e-03 2.274603e-02
5.841169e-03 9.558329e-03 2.342011e-02
-7.635601e-03 -1.876035e-02 -1.860165e-02
4.331741e-03 -1.978246e-02 -1.858483e-02
-1.836091e-02 -8.643686e-03 -1.857354e-02
-1.246675e-02 -1.596076e-02 -1.858446e-02
-9.287926e-05 -3.847334e-05 2.592056e-02
-4.956563e-04 -2.029381e-02 -1.857294e-02
5.942888e-03 5.018060e-03 -2.678193e-02
-4.889737e-03 -1.298026e-02 -2.402810e-02
-1.252689e-02 7.612726e-03 -2.369349e-02
1.118003e-02 5.498865e-03 2.273591e-02
1.193494e-02 -3.007529e-03 2.300665e-02
2.566265e-02 -4.547471e-03 5.545102e-03
-1.289311e-03 -1.351520e-02 -2.422037e-02
-1.183659e-02 -6.642625e-03 -2.421615e-02
1.633809e-02 -6.176136e-03 -2.097576e-02
-2.529794e-04 -3.398094e-05 2.609911e-02
-3.507895e-03 1.735766e-02 -2.113337e-02
-4.867525e-03 -8.483887e-03 -2.616381e-02
-2.108908e-02 1.658177e-02 -1.449336e-03
2.425873e-02 -1.148878e-02 -1.351062e-03
-2.315500e-02 1.352125e-02 -1.389423e-03
9.903927e-03 -1.466333e-02 -2.110415e-02
-1.250471e-02 1.197505e-03 2.286103e-02
-2.968038e-03 -1.081678e-02 2.325436e-02
-6.623706e-03 -9.131712e-03 2.326732e-02
-8.619200e-04 1.356637e-02 -2.423475e-02
2.677546e-04 -1.056421e-04 2.588371e-02
-2.286075e-03 7.366880e-03 -2.655857e-02
-2.472869e-03 7.148104e-03 -2.680921e-02
-7.068755e-03 3.398113e-03 -2.663344e-02
6.697106e-03 -4.138380e-03 -2.661393e-02
-4.059164e-03 6.883720e-03 -2.636840e-02
6.323920e-03 -4.749073e-03 -2.662892e-02
-2.613095e-02 5.944376e-03 -3.023958e-03
-2.056779e-03 -1.840150e-03 -2.808689e-02
-1.980754e-02 4.384738e-03 -1.888122e-02
-3.650171e-03 1.294380e-02 2.212416e-02
-3.797381e-06 2.813833e-04 2.587164e-02
-8.290396e-03 4.792045e-03 -2.620368e-02
8.624859e-03 -4.030132e-03 -2.628415e-02
-7.521325e-03 5.953616e-03 -2.622038e-02
-7.090413e-05 -2.451820e-03 -2.751502e-02
1.616567e-03 -9.762737e-03 -2.605644e-02
1.137400e-02 -1.674330e-04 2.315788e-02
2.478714e-02 4.496690e-03 7.978234e-03
2.233919e-02 -6.222023e-03 1.262510e-02
9.183868e-04 -1.263386e-02 2.252923e-02
1.313921e-03 -1.262268e-02 2.256341e-02
-3.041241e-04 -4.147426e-05 2.596000e-02
7.502454e-03 -1.036491e-02 2.259422e-02
-4.115778e-03 1.185671e-02 2.269039e-02
-3.951021e-03 1.193242e-02 2.272063e-02
4.536926e-03 -1.216956e-02 2.242840e-02
1.960848e-02 5.647159e-03 -1.864191e-02
-1.091433e-02 8.199544e-03 2.200764e-02
2.060265e-02 -8.154687e-03 -1.553848e-02
-1.713484e-02 3.167478e-03 -2.116347e-02
1.195912e-02 -1.864035e-02 -1.593820e-02
-1.069438e-02 -8.378913e-03 2.202238e-02
3.628456e-05 -1.574846e-04 2.593310e-02
-4.900657e-03 2.153946e-02 -1.591839e-02
-2.040859e-02 1.096736e-04 -1.858103e-02
2.538306e-02 6.586870e-03 5.660487e-03
2.229726e-02 7.857164e-03 -1.347696e-02
5.155377e-05 -2.492278e-02 -1.122329e-02
-1.476512e-02 -2.006150e-02 -1.122975e-02
-1.002886e-02 -2.278482e-02 -1.122699e-02
-2.281097e-02 -1.000949e-02 -1.123180e-02
7.542618e-03 -1.915448e-02 -1.785307e-02
-1.205359e-02 1.720328e-02 -1.793320e-02
-7.706951e-07 1.431836e-04 2.603306e-02
1.899574e-02 -9.208044e-03 -1.793996e-02
-1.016141e-02 -9.624674e-03 -2.393054e-02
-5.962895e-03 -1.213208e-02 -2.421275e-02
3.468627e-03 -1.359055e-02 -2.389392e-02
-1.016203e-02 -9.692396e-03 -2.390150e-02
-1.342226e-02 -4.189593e-03 -2.390166e-02
-4.741115e-03 -1.276691e-02 -2.420463e-02
3.401901e-03 -1.343747e-02 -2.399859e-02
-8.735854e-03 -1.035222e-02 -2.421853e-02
-7.040470e-03 -1.204680e-02 -2.395034e-02
-2.282908e-04 2.273295e-04 2.602650e-02
4.816922e-03 -3.146260e-03 -2.707323e-02
-1.349377e-02 -9.318732e-04 2.208936e-02
-9.235250e-03 9.845625e-03 2.207703e-02
1.279682e-02 -1.886527e-03 2.252064e-02
-1.219328e-02 -1.488139e-02 -2.001866e-02
-1.790083e-02 -1.109628e-02 -1.781538e-02
1.817306e-03 1.333765e-02 2.209817e-02
2.064040e-03 2.089156e-02 -1.798118e-02
-1.376995e-02 1.591955e-02 -1.782363e-02
-1.169985e-02 -6.621494e-03 2.208151e-02
1.452089e-04 2.772790e-06 2.602060e-02
-4.378183e-04 -7.212156e-05 2.604627e-02
-2.268539e-02 -4.665680e-03 1.258075e-02
-1.879726e-02 1.345027e-02 -1.469433e-02
9.944660e-04 2.110943e-03 -2.780306e-02
2.176623e-03 8.841566e-04 -2.781496e-02
1.342293e-03 1.931226e-03 -2.781119e-02
-7.353832e-05 2.353965e-03 -2.779463e-02
2.608835e-02 3.280512e-03 4.195977e-03
-1.126594e-03 8.316735e-04 -2.791538e-02
2.503831e-02 5.725288e-03 6.969245e-03
-2.858390e-03 7.046478e-03 -2.649383e-02
-1.667469e-04 2.338356e-04 2.589728e-02
-1.901080e-02 1.122287e-02 -1.636230e-02
7.068088e-03 -1.023667e-02 2.268055e-02
4.469119e-03 -2.446977e-02 -1.129570e-02
-9.278616e-03 5.116719e-03 2.339413e-02
1.641421e-03 -1.053360e-02 2.332187e-02
-2.329730e-02 -8.179349e-03 -1.181812e-02
-1.223466e-02 5.443683e-03 2.230802e-02
3.722989e-04 -1.136057e-02 2.310242e-02
1.376072e-02 2.191845e-02 6.144606e-03
6.899886e-03 -1.059955e-03 -2.716184e-02
-6.029113e-04 -1.286405e-04 2.606401e-02
-1.492234e-03 -8.647776e-03 -2.620260e-02
2.361590e-02 -8.273591e-03 9.197316e-03
2.431948e-02 -2.530831e-03 -1.237891e-02
2.276190e-02 -1.406053e-02 -5.256650e-03
2.246371e-02 3.430848e-03 1.329926e-02
3.968805e-03 -9.842047e-03 2.336999e-02
1.256889e-02 2.796628e-03 2.240082e-02
-5.913796e-03 -1.679856e-02 -2.071563e-02
1.779989e-02 3.260818e-03 -2.062789e-02
4.924306e-03 2.471745e-02 -1.031057e-02
-2.057815e-04 2.240417e-04 2.590078e-02
1.262969e-02 -2.362443e-02 -6.411552e-04
1.990639e-02 -1.774545e-02 -7.315384e-04
1.168393e-02 -7.561263e-03 -2.388578e-02
-1.774919e-02 2.000003e-02 -9.428007e-04
-2.006323e-03 1.917835e-03 -2.784746e-02
-1.229921e-03 2.475981e-03 -2.786089e-02
-4.942190e-04 1.095213e-02 -2.556653e-02
-1.982221e-02 1.186501e-02 -1.400714e-02
2.086563e-02 -1.006276e-02 -1.420178e-02
-1.110820e-02 -2.367723e-02 5.489540e-03
-2.621666e-04 -2.412637e-04 2.588570e-02
-1.830600e-02 1.410058e-02 -1.397575e-02
-1.702980e-02 -1.985035e-02 5.439386e-03
2.426716e-02 2.087089e-03 9.996201e-03
8.259017e-06 1.141121e-03 -2.790061e-02
-6.265797e-03 9.906248e-03 -2.503926e-02
-3.905802e-03 1.060912e-02 -2.505253e-02
7.034127e-03 -9.211840e-03 -2.504447e-02
-2.041295e-03 1.157602e-02 -2.504817e-02
1.997350e-02 -3.138815e-03 -1.856523e-02
-1.604063e-02 -2.058366e-02 -7.902900e-03
1.641951e-04 -3.269677e-04 2.582315e-02
-2.661014e-02 1.848143e-03 1.341641e-03
4.764055e-04 8.720613e-03 -2.636068e-02
9.348129e-03 -6.729728e-03 -2.492382e-02
-1.027155e-02 5.416686e-03 -2.505189e-02
-3.383941e-03 1.114241e-02 -2.505028e-02
9.725844e-03 -6.348182e-03 -2.506317e-02
1.458316e-03 -1.153166e-02 -2.490823e-02
2.360021e-03 1.200338e-02 2.267680e-02
6.947005e-04 -1.171786e-02 -2.524104e-02
7.698769e-03 7.369456e-03 -2.569141e-02
8.234826e-04 -5.869890e-05 2.602079e-02
1.344269e-02 -2.265507e-02 -5.135959e-03
2.239197e-02 -7.890040e-03 -1.333795e-02
-2.552540e-04 1.173757e-03 -2.797922e-02
-1.195832e-03 9.187708e-04 -2.776211e-02
-7.951779e-04 2.065089e-03 -2.776256e-02
1.055746e-03 -6.914981e-04 -2.796320e-02
-7.051019e-04 -1.592098e-02 -2.238004e-02
-6.262982e-03 9.377659e-03 2.322112e-02
1.277499e-02 3.961979e-04 2.258785e-02
7.540088e-03 -9.311424e-03 2.285606e-02
-8.932179e-05 2.921902e-04 2.578794e-02
-5.261307e-03 9.661101e-03 2.322963e-02
-1.728695e-02 -2.049081e-02 4.576147e-04
-2.683347e-03 -2.674159e-02 4.014148e-04
-1.064195e-03 2.684709e-02 -1.556941e-03
1.209448e-02 -3.490146e-03 2.272472e-02
2.335909e-02 -4.967380e-04 1.195760e-02
2.172585e-02 -5.487113e-03 1.358505e-02
-1.230906e-02 -2.847567e-03 2.268038e-02
3.595053e-03 1.258037e-02 2.229097e-02
-1.885949e-02 -9.581528e-03 -1.769568e-02
-8.253936e-05 -2.050134e-04 2.610235e-02
-1.154303e-03 -2.113374e-02 -1.769768e-02
2.417043e-03 -1.157418e-02 2.284438e-02
7.942028e-03 -8.806344e-03 2.280042e-02
-8.288138e-03 7.261626e-03 2.323527e-02
6.833690e-03 -9.399030e-03 -2.501045e-02
-1.018108e-02 4.054155e-03 2.356650e-02
1.957557e-03 -7.570720e-05 -2.796927e-02
-3.438866e-04 1.930219e-02 -1.983828e-02
2.365548e-02 -5.424101e-03 1.053778e-02
-1.099701e-02 -2.574995e-03 2.323374e-02
1.604188e-04 2.287055e-04 2.594158e-02
1.000480e-02 4.116971e-03 2.333727e-02
1.229757e-02 -2.395706e-03 -2.484869e-02
-1.301677e-03 2.685339e-02 -1.815385e-03
-1.221170e-02 -2.339006e-02 3.114604e-03
8.622610e-03 -2.535836e-02 6.406175e-04
-9.123469e-03 -2.522770e-02 7.891008e-04
-1.520362e-02 -2.204849e-02 5.029377e-04
6.654153e-03 -2.598098e-02 6.058041e-04
-2.487640e-02 -9.827916e-03 4.891972e-04
-2.330595e-02 -1.323452e-02 7.966722e-04
-9.780751e-06 1.344105e-04 2.599438e-02
-1.201396e-04 -1.974106e-04 2.593608e-02
3.035467e-03 -2.660244e-02 6.638993e-04
-1.182581e-02 -2.405988e-02 5.714978e-04
-1.944157e-02 -1.848547e-02 5.606228e-04
1.097753e-03 -2.679740e-02 5.844826e-04
-1.351401e-02 -2.314186e-02 4.978691e-04
-6.349592e-03 -8.056168e-03 -2.610650e-02
1.142369e-02 6.620627e-03 2.227677e-02
1.317421e-02 2.312833e-02 3.307608e-03
4.193718e-03 1.061998e-02 2.306544e-02
7.125347e-03 8.955858e-03 2.305640e-02
4.676536e-04 3.339147e-05 2.611016e-02
5.321964e-03 1.016064e-02 2.306041e-02
5.965816e-03 9.741863e-03 2.309781e-02
2.523789e-02 5.436927e-03 5.316933e-03
9.463351e-03 -1.223001e-04 -2.627074e-02
7.418579e-04 -1.075368e-03 -2.760871e-02
1.145835e-03 -8.548046e-04 -2.766338e-02
8.693876e-04 -9.988795e-04 -2.778382e-02
-1.326039e-03 6.453088e-04 -2.777104e-02
-1.006109e-03 9.151748e-04 -2.778302e-02
1.318771e-03 -5.368655e-04 -2.782100e-02
-5.566646e-05 1.766952e-04 2.590360e-02
1.787115e-04 -1.502457e-03 -2.760883e-02
5.633901e-04 -1.195626e-03 -2.786135e-02
1.007188e-03 -1.136350e-03 -2.787087e-02
1.482719e-03 -2.640939e-04 -2.782327e-02
-7.877014e-04 1.050123e-03 -2.782804e-02
-1.101913e-03 9.418344e-04 -2.775773e-02
-1.331832e-03 4.685878e-04 -2.783714e-02
7.057565e-05 -1.449339e-03 -2.779426e-02
-1.031835e-04 1.370776e-03 -2.780111e-02
-1.171982e-02 1.167000e-03 2.294883e-02
-3.280972e-04 -6.638911e-05 2.610704e-02
4.116297e-03 -1.390199e-02 -2.341005e-02
-6.758877e-03 -1.253460e-02 -2.347897e-02
-1.366562e-02 -4.770032e-03 -2.344765e-02
-1.071468e-02 -9.547786e-03 -2.334500e-02
-1.000849e-02 -1.028188e-02 -2.334332e-02
-7.625809e-03 -1.215097e-02 -2.334329e-02
1.729339e-02 1.887214e-02 7.769040e-03
1.958862e-02 1.637551e-02 7.727666e-03
1.514590e-02 -1.001763e-02 -2.074849e-02