# vtk DataFile Version 2.0
Electric current density generated by TTH
ASCII
DATASET UNSTRUCTURED_GRID
POINTS 1468 double
1.485930e-05 -3.639478e-21 -5.415524e-22
1.225062e-05 8.409576e-06 -5.415524e-22
1.065615e-05 -2.610004e-21 9.593409e-07
-5.735767e-06 1.356281e-05 -7.566895e-07
8.665727e-06 -1.115789e-05 -1.643114e-06
-1.338800e-05 -6.121051e-06 7.698949e-07
-1.357291e-05 3.086868e-06 -1.809049e-06
-1.042465e-05 5.290306e-07 -6.238920e-08
-7.802697e-06 -1.225582e-05 -1.162804e-06
-8.024838e-06 -1.111898e-05 -1.938129e-06
1.467851e-05 -8.361143e-07 8.182822e-07
1.467851e-05 8.361143e-07 8.182822e-07
1.039185e-05 1.041964e-05 7.831408e-07
1.043719e-05 -2.556373e-21 2.707762e-22
-2.978730e-06 -1.443707e-05 -7.130514e-07
-9.611049e-06 -1.010908e-05 1.788186e-06
1.131439e-05 -7.878910e-06 1.895009e-06
-1.017161e-05 -6.530330e-06 2.138761e-06
1.032952e-05 -2.096677e-06 6.669186e-07
1.032952e-05 2.096677e-06 6.669186e-07
1.137954e-05 7.801947e-06 1.889053e-06
4.382516e-06 -1.074804e-05 1.950632e-06
-1.658548e-06 -1.213694e-05 2.174847e-06
1.344395e-05 2.635884e-06 1.944927e-06
1.065615e-05 -2.610004e-21 -9.593409e-07
1.344471e-05 -2.604281e-06 1.947786e-06
-2.901219e-06 1.358958e-05 1.825467e-06
-8.157827e-06 7.017233e-06 1.151426e-06
-5.804396e-06 -1.273838e-05 1.750897e-06
1.171772e-05 -7.065631e-07 2.015451e-06
1.171772e-05 7.065631e-07 2.015451e-06
1.064801e-05 -8.684141e-06 1.922571e-06
-1.085734e-05 -9.895268e-06 8.483507e-07
1.293014e-05 3.084396e-06 -2.114981e-06
1.293014e-05 -3.084396e-06 -2.114981e-06
1.126967e-05 -2.760273e-21 -1.728673e-06
-1.002031e-05 1.077924e-05 -7.796122e-07
1.069013e-05 9.060713e-06 1.739282e-06
7.765813e-06 -1.250313e-05 7.762269e-07
9.717565e-06 -8.571301e-06 -2.189313e-06
1.066026e-05 -1.961915e-06 -1.271403e-06
1.066026e-05 1.961915e-06 -1.271403e-06
1.427894e-05 3.607053e-06 -7.520014e-07
1.427894e-05 -3.607053e-06 -7.520014e-07
-1.216742e-05 2.981313e-06 -2.207747e-06
-7.498733e-06 -7.506498e-06 -8.576535e-07
1.215624e-05 -2.977419e-21 -2.155620e-06
4.851218e-06 1.393257e-05 -6.773284e-07
8.128721e-06 1.130232e-05 -1.807382e-06
1.091179e-05 -3.097827e-06 1.784688e-06
1.089729e-05 3.158727e-06 1.786773e-06
5.092027e-06 -1.319395e-05 1.629747e-06
8.255621e-06 8.940706e-06 2.158557e-06
5.086209e-06 1.079917e-05 2.093534e-06
7.543599e-06 -7.584640e-06 -1.040515e-06
2.470086e-06 1.140633e-05 1.983232e-06
-9.877805e-06 -3.753554e-06 -7.462901e-07
1.314025e-05 -3.218432e-21 -2.155620e-06
-1.102531e-05 6.217077e-06 -2.211036e-06
-6.609050e-06 -1.317121e-05 -7.269913e-07
3.887126e-06 1.045708e-05 1.631721e-06
5.312306e-06 -1.066275e-05 -2.085160e-06
9.199496e-06 -1.031372e-05 1.874779e-06
-3.062173e-06 1.041548e-05 1.295258e-06
1.116322e-05 6.254056e-06 2.206131e-06
-5.904656e-06 -1.037912e-05 -2.094945e-06
-8.296016e-06 -8.452864e-06 -2.059511e-06
1.273352e-06 1.036344e-05 -1.359865e-07
1.402681e-05 -3.435578e-21 -1.728673e-06
8.397132e-06 -6.638257e-06 1.053174e-06
-9.872346e-06 4.699188e-06 1.396094e-06
-5.560607e-06 1.363302e-05 7.631027e-07
-1.438468e-05 -3.148110e-06 -7.584683e-07
-5.625963e-07 1.126061e-05 -1.732639e-06
9.956850e-06 3.279450e-06 -4.478541e-07
9.978452e-06 -3.185041e-06 -4.041955e-07
-2.034384e-06 -1.025247e-05 -2.586449e-07
-8.223804e-06 -1.224076e-05 6.963799e-07
-9.361569e-06 5.490650e-06 -1.290598e-06
1.464033e-05 -3.585847e-21 -9.593409e-07
1.231614e-05 5.509427e-06 2.043622e-06
1.229858e-05 -5.533968e-06 2.046081e-06
-1.062569e-05 -3.075648e-06 1.540185e-06
6.004526e-06 -8.842103e-06 1.023186e-06
-5.821464e-06 -9.404886e-06 -1.539091e-06
-1.105167e-05 -8.459952e-06 -1.810120e-06
-1.174659e-05 9.949774e-07 -2.037124e-06
-1.076913e-05 2.482398e-06 1.529477e-06
1.726386e-06 1.296294e-05 -2.169009e-06
1.132121e-05 -3.308220e-06 -2.039650e-06
6.006885e-06 -1.002735e-05 -1.992092e-06
1.132121e-05 3.308220e-06 -2.039650e-06
-8.466343e-06 1.205862e-05 7.338828e-07
1.143076e-05 -4.823603e-06 -2.197837e-06
1.143076e-05 4.823603e-06 -2.197837e-06
7.418099e-06 -8.934818e-06 -1.953666e-06
-1.388169e-05 -6.614911e-07 -1.824352e-06
-9.666621e-06 -5.892123e-06 -1.768243e-06
-2.676517e-06 1.394782e-05 -1.572783e-06
-1.410714e-05 -2.161057e-06 -1.501043e-06
-3.744123e-06 -1.346125e-05 -1.770812e-06
6.006885e-06 1.002735e-05 -1.992092e-06
8.368066e-06 -6.273202e-06 3.053652e-07
-6.872038e-06 -1.177215e-05 -1.980567e-06
3.014415e-06 -1.132229e-05 -2.005241e-06
9.861540e-07 1.473144e-05 -6.407665e-07
6.844093e-06 -9.747206e-06 2.084193e-06
-7.751610e-06 1.250734e-05 -7.865828e-07
3.146814e-06 1.362341e-05 -1.763384e-06
-3.359658e-06 -1.377579e-05 1.594945e-06
8.356098e-06 -1.217272e-05 -6.394730e-07
-4.451370e-06 9.494659e-06 -4.636055e-07
1.166157e-05 9.209047e-06 -5.415524e-22
-4.522793e-06 1.288859e-05 -1.966442e-06
1.082022e-05 -7.139778e-06 2.188458e-06
-1.098086e-05 3.198574e-06 -1.849924e-06
9.369763e-06 4.613560e-06 -1.736141e-07
6.603980e-06 8.622425e-06 -1.301581e-06
5.815701e-06 9.065857e-06 -1.168045e-06
7.016985e-06 8.517767e-06 1.512953e-06
6.746170e-07 1.402570e-05 1.716523e-06
2.331621e-06 1.047190e-05 1.096690e-06
-1.032412e-05 7.794311e-06 2.192257e-06
0.000000e+00 1.476617e-05 6.349427e-07
-1.455782e-05 2.455599e-06 -6.438577e-07
9.618281e-06 5.396102e-06 -1.505129e-06
-1.039041e-05 -9.694181e-06 -1.564661e-06
-8.449441e-06 6.127139e-06 2.193613e-09
1.018763e-05 9.730353e-06 1.678179e-06
4.033716e-08 -1.316213e-05 2.150493e-06
-1.949798e-06 -1.245134e-05 -2.210594e-06
1.019286e-05 -9.726881e-06 1.676991e-06
-7.987714e-06 1.044853e-05 -2.152901e-06
8.203073e-06 6.678008e-06 -7.754506e-07
-1.423568e-05 -3.740002e-06 7.756814e-07
-8.312417e-06 -1.222627e-05 -5.706767e-07
1.250713e-05 -4.016528e-06 2.156531e-06
1.250713e-05 4.016528e-06 2.156531e-06
6.660589e-06 1.318086e-05 6.282614e-07
9.476496e-06 -8.419625e-06 2.210874e-06
-4.171886e-06 1.357622e-05 -1.572333e-06
4.337354e-06 -1.022646e-05 -1.586562e-06
2.912181e-06 -1.081047e-05 1.667130e-06
-1.063002e-05 -9.211752e-06 1.696640e-06
-1.165448e-05 7.720059e-06 1.765370e-06
4.791191e-06 1.231315e-05 2.137854e-06
-9.739090e-06 -4.567165e-06 -1.145092e-06
-1.115138e-05 -5.841612e-06 -2.210256e-06
-1.329918e-05 -4.462965e-06 1.727682e-06
-1.561909e-06 1.413957e-05 1.549450e-06
2.386242e-06 1.387090e-05 1.689404e-06
7.914991e-06 -7.279617e-06 1.139779e-06
-1.036630e-05 7.319862e-06 -2.210658e-06
6.922839e-06 8.002233e-06 7.848787e-07
9.680158e-06 5.887053e-06 1.774909e-06
8.411774e-06 1.134253e-05 1.648901e-06
1.049645e-05 6.779077e-07 5.934738e-07
-1.505911e-06 -1.049077e-05 -8.285637e-07
1.048966e-05 -6.529974e-07 5.626187e-07
5.278674e-06 9.013917e-06 -1.951832e-07
8.015228e-06 7.046185e-06 9.916785e-07
5.568669e-06 -8.846579e-06 -2.666729e-07
8.491430e-06 9.753769e-06 -2.192753e-06
-9.342642e-06 -1.051641e-05 -1.695866e-06
-1.476266e-05 -4.935696e-07 -6.189089e-07
-4.480694e-06 1.042269e-05 1.786149e-06
1.460032e-05 1.820589e-06 -7.898960e-07
1.460032e-05 -1.820589e-06 -7.898960e-07
-8.519748e-06 6.277394e-06 -7.886470e-07
-9.256370e-06 6.569265e-06 1.790205e-06
9.440382e-06 -5.684790e-06 1.495724e-06
-9.589222e-06 4.646128e-06 -9.579922e-07
3.012916e-06 1.255644e-05 2.195163e-06
-6.353971e-06 1.329736e-05 -7.238422e-07
4.487606e-06 9.769456e-06 -1.135205e-06
-3.335419e-06 1.147271e-05 2.097151e-06
8.179356e-06 -9.070573e-06 2.167956e-06
-1.338653e-05 -6.224524e-06 -6.456713e-07
-4.908763e-06 -1.323073e-05 1.657173e-06
1.169244e-05 -6.966538e-06 1.990684e-06
1.399227e-05 4.568276e-06 7.747155e-07
1.399227e-05 -4.568276e-06 7.747155e-07
-1.072703e-05 8.843070e-06 1.821139e-06
9.848209e-06 1.099169e-05 -6.609373e-07
9.848209e-06 -1.099169e-05 -6.609373e-07
-1.244009e-05 -4.917117e-06 2.087640e-06
-1.335152e-05 4.964655e-06 1.529758e-06
2.463883e-06 -1.219248e-05 2.201127e-06
-9.324790e-06 -4.767991e-06 3.967985e-07
2.416376e-06 -1.055105e-05 -1.249667e-06
1.174315e-05 6.877263e-06 1.991525e-06
-1.243060e-05 7.970627e-06 -6.336907e-07
4.842722e-06 -1.164865e-05 -2.210808e-06
-5.483603e-06 1.096684e-05 2.176949e-06
-1.095521e-06 -1.471070e-05 6.821529e-07
-7.342949e-06 -1.277921e-05 7.204494e-07
9.611051e-06 -5.296801e-06 -1.444175e-06
-1.183585e-05 7.300686e-06 -1.818201e-06
5.683069e-06 -9.456648e-06 -1.509809e-06
6.806324e-06 -1.257719e-05 -1.468998e-06
1.237661e-05 6.943092e-06 -1.583787e-06
1.181104e-05 -6.547949e-06 -2.038452e-06
1.237712e-05 -6.942516e-06 -1.583629e-06
6.614903e-06 1.050013e-05 -2.198189e-06
5.632492e-06 1.306089e-05 -1.551421e-06
-1.323351e-05 5.622832e-07 2.128874e-06
-7.549771e-06 7.437050e-06 8.267796e-07
5.281329e-07 -1.234812e-05 -2.192109e-06
-1.257441e-05 1.042961e-06 2.210843e-06
-1.471185e-05 -3.237751e-07 7.845913e-07
1.186799e-05 -4.030296e-06 -2.208084e-06
1.186799e-05 4.030296e-06 -2.208084e-06
1.181104e-05 6.547949e-06 -2.038452e-06
-9.425588e-06 -4.585230e-06 -4.414359e-07
-6.727701e-06 -1.198859e-05 1.918553e-06
8.959956e-06 5.384646e-06 -2.679272e-07
-1.366098e-05 -3.650526e-06 -1.631706e-06
1.618997e-06 -1.151381e-05 -1.961121e-06
1.092192e-05 -6.325060e-06 -2.210890e-06
1.093918e-05 6.296690e-06 -2.210899e-06
-1.206062e-05 -2.236745e-06 -2.177814e-06
-5.841300e-06 -1.088003e-05 2.190701e-06
-1.229836e-05 4.061286e-06 2.190147e-06
1.102043e-05 9.967389e-06 -5.415524e-22
6.451797e-06 -9.232091e-06 -1.723404e-06
1.117174e-05 7.686024e-07 -1.669128e-06
1.117174e-05 -7.686024e-07 -1.669128e-06
-1.085313e-05 9.732762e-07 1.349376e-06
-7.331042e-06 1.001355e-05 -2.198214e-06
-4.555549e-06 1.222861e-05 -2.174323e-06
3.859016e-06 -1.248859e-05 -2.170219e-06
5.460965e-06 -1.164766e-05 2.200474e-06
-8.177002e-06 8.172526e-06 1.925194e-06
-6.305098e-06 1.242143e-05 -1.801593e-06
8.620061e-06 -6.435800e-06 -1.146327e-06
6.330214e-06 9.316978e-06 -1.724135e-06
-3.216202e-06 -1.040981e-05 -1.347614e-06
7.753154e-06 -1.087169e-05 2.095698e-06
-4.371601e-06 1.346467e-05 1.616707e-06
-6.740351e-06 -1.039665e-05 -2.195973e-06
4.811818e-07 -1.106154e-05 -1.550557e-06
8.073302e-06 1.232964e-05 -7.232979e-07
0.000000e+00 -1.477784e-05 5.946199e-07
-1.210196e-05 8.385823e-06 7.631115e-07
[...]
POINT_DATA 1468
VECTORS 10.000GHz_fone_imag double
-8.066352e-04 4.283782e-04 2.537364e-02
-8.612988e-04 7.604007e-04 2.499228e-02
-2.439015e-02 -4.363151e-05 -6.072996e-02
-3.581839e-03 8.643978e-03 2.289025e-02
1.370928e-02 -1.923319e-02 1.882608e-02
9.155428e-03 3.032411e-03 2.352492e-02
-2.370001e-02 5.260716e-03 1.648979e-02
-1.552048e-03 3.014672e-04 -7.836426e-02
-7.972088e-03 -1.173849e-02 2.317766e-02
-1.860035e-02 -2.377308e-02 1.441585e-02
-1.146606e-02 1.443692e-03 2.356504e-02
-9.296967e-03 1.306614e-04 2.290883e-02
-6.396173e-03 -6.887990e-03 2.350896e-02
-7.013259e-04 -2.826289e-05 -7.791138e-02
-1.677160e-03 -7.368447e-03 2.238035e-02
1.876800e-02 1.963696e-02 1.861791e-02
-2.119474e-02 1.515260e-02 1.694328e-02
4.191302e-02 2.725320e-02 -1.664296e-02
-1.731550e-02 2.728403e-03 -6.397995e-02
-1.655017e-02 -3.586476e-03 -6.634855e-02
-2.291364e-02 -1.461033e-02 1.558983e-02
-1.859924e-02 4.430959e-02 -2.753391e-02
5.825823e-03 4.753865e-02 -8.094779e-03
-3.171056e-02 -6.337521e-03 1.326444e-02
3.063450e-02 -4.066977e-04 -6.343368e-02
-2.947605e-02 5.789550e-03 1.398646e-02
7.548145e-03 -2.577577e-02 1.762761e-02
2.830961e-02 -2.379967e-02 -6.049286e-02
1.094991e-02 2.312206e-02 1.928779e-02
-4.825381e-02 2.927420e-03 -2.168547e-02
-4.848903e-02 -2.481968e-03 -2.518767e-02
-2.549261e-02 1.848317e-02 1.393732e-02
6.518215e-03 5.788703e-03 2.288739e-02
3.283942e-02 7.335948e-03 1.062188e-02
3.477513e-02 -8.137101e-03 1.076346e-02
4.809023e-02 3.609943e-04 -4.281535e-02
-6.729082e-03 7.163683e-03 2.535458e-02
-2.023641e-02 -1.740907e-02 1.908698e-02
-6.008667e-03 8.775180e-03 2.522750e-02
3.012899e-02 -2.535969e-02 3.775233e-03
3.801056e-02 -6.971733e-03 -5.788597e-02
3.868908e-02 7.612052e-03 -5.826943e-02
9.169576e-03 1.953321e-03 2.505402e-02
9.913353e-03 -3.161329e-03 2.503175e-02
-4.549157e-02 1.182383e-02 -4.945122e-03
-1.996580e-02 -2.054608e-02 -6.804733e-02
4.599758e-02 -8.170071e-04 -8.927005e-03
2.846504e-03 8.427972e-03 2.505987e-02
1.460945e-02 2.093941e-02 1.683428e-02
-4.741347e-02 1.366070e-02 -3.887460e-02
-4.672908e-02 -1.284287e-02 -3.978786e-02
-8.523707e-03 2.203038e-02 2.097097e-02
-3.376648e-02 -3.675319e-02 -1.428340e-02
-1.950878e-02 -4.407993e-02 -1.725327e-02
2.143506e-02 -2.247308e-02 -5.706826e-02
-1.217531e-02 -4.403900e-02 -2.647301e-02
-1.920911e-02 -5.339949e-03 -6.802504e-02
3.935022e-02 6.853537e-04 5.899509e-03
-3.898444e-02 2.124064e-02 -8.696372e-04
-3.825345e-03 -7.058638e-03 2.422638e-02
-1.326261e-02 -4.040613e-02 -4.165734e-02
1.995974e-02 -4.079474e-02 -1.572338e-02
-2.048778e-02 2.232965e-02 1.608020e-02
1.021900e-02 -3.792898e-02 -5.356479e-02
-3.854674e-02 -2.185555e-02 -5.384261e-04
-2.212886e-02 -4.004053e-02 -2.038624e-02
-3.411093e-02 -3.694859e-02 -2.292823e-02
6.124259e-04 3.092623e-03 -7.004738e-02
2.483791e-02 -2.805032e-04 1.822336e-02
-2.736427e-02 1.984443e-02 -6.339594e-02
3.663082e-02 -1.727112e-02 -5.612034e-02
3.737967e-03 -9.123595e-03 2.494490e-02
-9.298346e-03 -1.536244e-03 2.360513e-02
-2.340953e-03 4.534870e-02 -3.915402e-02
1.543452e-02 8.422130e-03 -7.141595e-02
1.237606e-02 -5.296082e-03 -7.507636e-02
-2.989169e-03 -1.092024e-02 -7.529400e-02
6.134348e-03 8.326818e-03 2.281774e-02
-3.061502e-02 1.684405e-02 -5.436047e-02
1.259793e-02 -2.685385e-04 2.319886e-02
-3.230916e-02 -1.442454e-02 1.287889e-02
-3.054663e-02 1.513703e-02 9.602907e-03
3.655546e-02 8.643069e-03 -5.058768e-02
-1.925961e-02 2.434866e-02 -5.952601e-02
-2.209425e-02 -3.892972e-02 -4.526768e-02
-2.176848e-02 -1.647037e-02 1.750014e-02
-5.055383e-02 4.408544e-03 -2.280022e-02
3.806111e-02 -1.307244e-02 -5.104747e-02
5.329536e-03 3.860678e-02 6.461542e-03
4.540520e-02 -1.381406e-02 -2.207388e-02
2.489669e-02 -4.119501e-02 -2.369953e-02
4.714133e-02 1.562678e-02 -2.506919e-02
5.762036e-03 -7.738705e-03 2.475046e-02
4.196251e-02 -1.621082e-02 -9.664083e-03
3.846782e-02 1.559597e-02 -7.099736e-03
2.883629e-02 -3.858688e-02 -2.969462e-02
-2.597696e-02 -1.314003e-03 1.721264e-02
-4.066475e-02 -2.550828e-02 -4.167584e-02
-2.583030e-03 2.131076e-02 2.042997e-02
-2.169168e-02 -2.636956e-03 2.103017e-02
-7.835611e-03 -2.674320e-02 1.766209e-02
2.200505e-02 3.898444e-02 -2.535683e-02
-3.116822e-03 6.233083e-03 -7.332812e-02
-1.527388e-02 -2.562564e-02 1.162619e-02
1.211274e-02 -4.368314e-02 -2.380363e-02
1.312713e-05 7.997481e-03 2.459253e-02
-2.691726e-02 3.782141e-02 -1.820464e-02
-4.637998e-03 7.407751e-03 2.250704e-02
6.143249e-03 2.462187e-02 1.572389e-02
5.048545e-03 2.136845e-02 1.791419e-02
3.314675e-03 -5.665982e-03 2.311513e-02
-2.537712e-03 1.173985e-02 -6.718356e-02
-1.308845e-04 -1.318961e-03 2.425810e-02
-9.677523e-03 2.686554e-02 1.361926e-02
-3.446459e-02 2.179323e-02 3.672507e-03
-4.470872e-02 1.253125e-02 -3.216044e-02
3.987792e-03 1.369578e-03 -7.047194e-02
2.420951e-02 3.401660e-02 -5.811854e-02
1.993833e-02 3.205179e-02 -6.177731e-02
-2.653455e-02 -3.222539e-02 -4.385059e-02
-2.815638e-04 -2.225899e-02 1.827752e-02
-7.467306e-03 -3.310163e-02 -6.375747e-02
3.163738e-02 -2.539435e-02 1.959630e-03
-4.130369e-04 -7.799064e-03 2.534603e-02
-7.937292e-03 1.407383e-03 2.554019e-02
3.797402e-02 2.422801e-02 -4.938479e-02
-1.507982e-02 -1.565529e-02 1.788348e-02
2.333062e-03 -1.136978e-04 -7.124025e-02
-1.790222e-02 -1.716793e-02 2.046062e-02
-1.518227e-03 3.797903e-02 4.141210e-03
-8.917992e-03 -4.134696e-02 -3.643351e-03
-1.767883e-02 1.723648e-02 2.040864e-02
-2.357016e-02 2.934236e-02 7.597471e-03
1.673447e-02 1.274687e-02 -6.593122e-02
7.966547e-03 3.024728e-03 2.423999e-02
-4.295139e-03 -5.521604e-03 2.343243e-02
-3.802727e-02 1.323178e-02 6.900139e-03
-3.842353e-02 -1.207820e-02 7.053462e-03
-3.112300e-03 -7.902640e-03 2.365450e-02
-3.105328e-02 2.680724e-02 -1.751150e-03
-7.371381e-03 2.190217e-02 2.011601e-02
1.996427e-02 -4.196991e-02 -4.861519e-02
-9.240546e-03 4.357929e-02 -3.830806e-02
2.021882e-02 1.649608e-02 1.965197e-02
2.033366e-02 -1.456475e-02 1.753918e-02
-1.146627e-02 -3.396367e-02 7.484703e-03
-3.132925e-02 -1.314038e-02 -6.222108e-02
-3.618186e-02 -1.965104e-02 -5.555968e-03
2.469584e-02 9.478283e-03 1.870892e-02
6.953585e-04 -2.195509e-02 1.997449e-02
-3.544963e-03 -2.161086e-02 1.756998e-02
-2.480737e-02 2.538233e-02 -6.001537e-02
-3.265196e-02 2.467385e-02 -3.053324e-03
-1.493805e-02 -2.078891e-02 -7.174757e-02
-4.273917e-02 -2.541431e-02 -3.801865e-02
-1.370932e-02 -2.010651e-02 1.963845e-02
-2.084696e-02 8.517401e-04 -6.608670e-02
-4.902226e-03 -2.417152e-02 -6.480507e-02
-1.924124e-02 7.853660e-04 -6.487088e-02
2.995466e-03 3.906731e-03 -7.734778e-02
-2.368471e-02 -2.219105e-02 -6.818831e-02
6.411356e-03 -7.570748e-03 -7.107292e-02
2.811321e-02 3.178222e-02 1.886073e-03
-1.689623e-02 -1.889017e-02 2.000094e-02
-6.654815e-03 -1.212521e-03 2.414025e-02
1.681752e-02 -4.154338e-02 -3.378913e-02
1.028854e-02 1.858127e-03 2.558086e-02
8.757952e-03 -1.954003e-03 2.484509e-02
-1.935720e-02 1.467884e-02 -6.989847e-02
3.877007e-02 -2.491693e-02 -3.872595e-02
-3.374064e-02 1.993002e-02 -4.670419e-02
-2.759960e-02 1.419958e-02 -6.706158e-02
-8.034361e-03 -4.135674e-02 2.034083e-03
-3.903174e-03 8.704982e-03 2.485260e-02
1.670443e-02 2.771254e-02 -6.500960e-02
1.481967e-02 -4.676864e-02 -1.903565e-02
-3.199398e-02 3.596181e-02 -1.075279e-02
-8.018850e-03 -3.899710e-03 2.536015e-02
8.415001e-03 2.295843e-02 2.088378e-02
-2.655357e-02 1.645945e-02 9.572142e-03
-9.070642e-03 -2.633507e-03 2.509686e-02
-8.919883e-03 2.994981e-03 2.489769e-02
1.908982e-02 -1.660335e-02 1.766634e-02
5.506396e-03 5.940474e-03 2.507048e-02
5.280372e-03 -6.915770e-03 2.299750e-02
3.139214e-02 1.286637e-02 7.923780e-03
1.845095e-02 -7.657516e-03 1.914884e-02
-1.024547e-02 4.585262e-02 -9.068520e-03
1.072229e-02 5.843291e-03 -7.690796e-02
1.019051e-02 -3.741786e-02 -5.962795e-02
-2.831061e-02 -1.641428e-02 1.424206e-02
-5.965920e-03 3.236509e-03 2.386442e-02
1.524582e-02 -4.050153e-02 -3.613895e-03
2.252519e-02 -4.199347e-02 -8.718470e-03
1.692705e-03 8.937209e-03 2.512447e-02
4.302384e-03 8.878832e-03 2.304836e-02
3.791941e-02 -2.174466e-02 -5.277192e-02
-2.376935e-02 1.565591e-02 1.740229e-02
2.315860e-02 -3.835100e-02 -5.160938e-02
8.536467e-03 -1.649397e-02 2.028738e-02
1.797033e-02 1.020745e-02 1.996873e-02
2.995774e-02 -1.665630e-02 1.337063e-02
1.756945e-02 -9.597934e-03 1.838194e-02
2.433009e-02 4.068420e-02 -8.172566e-03
7.949110e-03 1.863362e-02 1.875186e-02
3.777908e-02 -9.929771e-04 9.930684e-03
1.751519e-02 -1.672277e-02 -6.394753e-02
1.408849e-03 -4.658421e-02 -7.567078e-03
4.225243e-02 -3.740964e-03 -4.130557e-03
1.051857e-02 6.888773e-04 2.479693e-02
4.494404e-02 -1.484733e-02 -5.145745e-03
4.026609e-02 1.304357e-02 -3.840321e-03
3.071680e-02 1.699698e-02 1.274222e-02
-1.331859e-02 -7.998010e-03 -6.661594e-02
1.503669e-02 2.673857e-02 1.633943e-02
5.468252e-03 2.876671e-03 -7.053773e-02
-2.259330e-02 -6.076368e-03 2.031383e-02
5.555995e-03 -4.463514e-02 -2.701306e-02
4.024692e-02 -2.370888e-02 -3.835792e-03
3.963655e-02 2.275522e-02 -4.646389e-03
-4.816790e-02 -7.715672e-03 -1.071976e-02
2.003775e-02 3.670382e-02 -1.129528e-02
3.969065e-02 -1.280458e-02 4.068509e-03
6.771715e-05 1.213848e-04 2.618672e-02
2.738666e-02 -3.965753e-02 -4.266325e-02
4.312451e-02 1.828609e-03 -4.312419e-02
4.104507e-02 -3.057777e-03 -4.224585e-02
3.837348e-02 -2.336547e-03 -5.772245e-02
-2.862764e-02 3.853842e-02 -8.571619e-03
-1.206336e-02 3.687851e-02 7.098836e-03
1.277670e-02 -3.600264e-02 6.064722e-03
-1.804010e-02 3.888470e-02 1.510967e-03
3.549934e-02 -3.545088e-02 -3.213372e-02
-1.169264e-02 2.292761e-02 1.764247e-02
2.805845e-02 -2.436317e-02 -6.176023e-02
2.693110e-02 3.758274e-02 -3.624687e-02
-9.624642e-03 -3.309416e-02 -5.414812e-02
-1.877439e-02 2.807358e-02 1.100463e-02
7.344745e-03 -2.251993e-02 1.979802e-02
-2.620366e-02 -4.028825e-02 -7.896129e-03
2.872232e-03 -4.586350e-02 -4.864045e-02
5.320152e-03 7.960479e-03 2.552783e-02
8.189276e-05 8.282543e-03 2.489111e-02
6.917118e-03 -5.123994e-03 2.320496e-02
1.871486e-03 -9.152462e-03 2.262852e-02
-9.082917e-03 1.930077e-02 2.048089e-02
-4.335811e-03 -3.139568e-03 -7.491093e-02
1.613693e-03 -1.727700e-04 -7.604425e-02
1.304351e-02 -2.728980e-02 1.519972e-02
-2.055172e-03 1.076015e-02 2.328807e-02
8.844415e-03 4.088780e-02 -5.465170e-02
2.699202e-02 2.532665e-02 -5.512977e-02
1.392419e-02 -4.258510e-02 -5.198375e-03
-7.211104e-03 2.850801e-03 2.368799e-02
9.788046e-03 4.588418e-02 -6.057380e-03
1.634411e-03 -1.130542e-02 -6.896590e-02
1.988409e-02 1.161205e-02 2.073440e-02
2.030101e-03 -8.296550e-03 -6.805463e-02
2.192612e-02 7.806592e-03 2.032108e-02
2.175217e-02 -7.476410e-03 2.005067e-02
-7.848646e-03 -4.657641e-03 2.383409e-02
1.422985e-02 -3.043918e-02 9.103093e-03
-8.065263e-03 -2.046557e-02 -7.418363e-02
6.131921e-04 2.591578e-02 1.963737e-02
-3.127907e-02 -2.929537e-02 -3.774799e-02
-1.921277e-02 1.246664e-02 2.062973e-02
-1.835536e-02 -9.386913e-03 1.858182e-02
2.378909e-02 -3.497612e-02 -4.501633e-03
2.276282e-02 2.579708e-02 -6.102475e-02
-7.581005e-03 5.629203e-03 2.278580e-02
2.673906e-03 -1.623792e-03 -7.077093e-02
-3.406065e-02 3.128587e-02 -3.671362e-02
-5.682386e-03 -1.931674e-02 2.196328e-02
-5.411522e-05 2.383644e-02 2.028537e-02
7.110535e-03 4.457860e-04 -7.382106e-02
2.298262e-02 1.528917e-02 -6.870766e-02
6.928727e-04 -2.678662e-02 1.822579e-02
-4.847673e-02 6.684282e-03 -3.137554e-02
-1.898372e-02 3.953078e-02 -1.261080e-02
8.528304e-03 -1.497857e-02 -7.585800e-02
1.010987e-04 -7.601594e-03 2.432389e-02
-1.334449e-02 2.686220e-02 1.615955e-02
3.736909e-03 2.236586e-02 2.051280e-02
8.454902e-03 2.170853e-03 2.414817e-02
8.227177e-03 -2.266097e-03 2.504613e-02
-2.475114e-02 -8.435609e-03 1.595821e-02
-2.553328e-02 8.319275e-03 1.659195e-02
2.236896e-02 -3.642279e-02 2.648784e-03
3.033065e-02 3.249324e-02 -6.426252e-03
-3.255835e-03 -3.562425e-02 -6.307970e-02
-3.702275e-02 1.030656e-02 -5.777742e-02
-1.439606e-02 1.833951e-02 1.672786e-02
-7.965537e-03 -6.545697e-03 -7.055165e-02
2.525653e-02 -4.226007e-02 -3.381013e-02
3.023012e-02 -1.657978e-02 -6.085921e-02
-1.260188e-02 -3.485142e-02 8.573676e-03
-2.585707e-02 3.174185e-02 -4.538063e-02
1.886172e-02 1.495377e-02 1.963719e-02
6.970091e-03 -1.830569e-04 2.563463e-02
1.023858e-04 4.324290e-02 -4.952700e-02
9.126215e-03 4.610834e-02 -3.964577e-02
-3.777366e-02 -8.924292e-03 -5.854461e-02
7.259454e-03 4.450745e-03 2.481192e-02
-3.921671e-02 -3.005775e-02 -2.308195e-02
-5.363694e-03 -4.495726e-02 -3.877054e-03
-4.272025e-03 5.473312e-03 2.458289e-02
3.059581e-02 -4.056348e-02 -2.545817e-02
-2.071643e-02 -3.902096e-02 -4.778424e-02
4.441633e-02 -1.784695e-02 -4.238039e-02
4.331136e-02 1.728305e-02 -4.465742e-02
-9.418834e-03 -2.042948e-02 2.110955e-02
8.894207e-03 2.194748e-02 1.886718e-02
-3.146571e-02 -2.909957e-02 -4.334834e-02
8.280552e-03 -3.981649e-02 3.279491e-03
-3.809920e-03 7.934767e-03 2.510706e-02
-3.091946e-02 -2.923709e-02 -8.078863e-04
9.353730e-04 6.790047e-03 2.353675e-02
-8.981065e-03 -2.013987e-02 2.139370e-02
-3.598720e-03 -5.120997e-03 2.444469e-02
3.254449e-02 2.417357e-02 -4.285258e-02
-1.158748e-02 1.810291e-02 -7.006027e-02
3.316668e-02 -7.327434e-03 1.188377e-02
2.382028e-02 -2.785178e-02 5.565889e-03
4.263375e-02 -9.732772e-03 -3.777856e-02
4.931153e-02 1.898703e-03 -2.094880e-02
5.082671e-02 -1.423938e-03 -2.346972e-02
-3.284142e-02 -3.882578e-02 -2.912779e-02
3.008613e-03 -1.896569e-03 -7.421277e-02
-4.054706e-04 2.491876e-02 -6.633666e-02
2.155889e-03 -6.470356e-03 2.346782e-02
2.143606e-02 5.996632e-03 2.184174e-02
-3.049044e-02 -1.607800e-02 -6.442823e-02
-1.460485e-02 -4.300950e-02 -1.482638e-02
4.682496e-02 -1.027103e-02 -7.156431e-03
-1.861831e-04 -2.219903e-04 2.405076e-02
4.253988e-02 8.717820e-03 -3.750257e-02
-3.841093e-02 -2.157339e-02 -1.744833e-02
4.901829e-03 -6.612702e-03 2.296162e-02
-7.758197e-03 3.525325e-03 2.497657e-02
-3.305802e-02 2.644451e-02 -4.627993e-03
5.803612e-03 1.291640e-02 -7.279975e-02
4.389833e-03 7.251173e-04 -7.523924e-02
3.532111e-02 2.679342e-03 7.226264e-03
3.010834e-02 3.242911e-02 -1.932666e-02
-7.137899e-03 7.325749e-03 -7.807551e-02
1.988364e-02 -1.910135e-02 -6.426420e-02
-1.900424e-02 -4.075873e-02 -2.710300e-02
-2.542459e-02 4.145302e-02 -9.419683e-03
3.400987e-03 -1.352393e-03 -7.293704e-02
3.046562e-03 6.583948e-03 2.331459e-02
-1.874196e-02 6.001639e-04 1.995639e-02
-2.059467e-02 -8.914078e-04 2.226734e-02
-7.663757e-03 9.610628e-04 2.460706e-02
-8.747611e-03 -1.590686e-03 2.470219e-02
-3.479009e-02 7.483980e-04 -6.032654e-02
1.511568e-02 1.917638e-02 1.978665e-02
-7.037701e-03 1.909089e-03 2.425032e-02
8.869670e-03 -4.297499e-02 -3.591153e-02
-7.030150e-03 -1.773294e-03 2.348503e-02
-9.924160e-03 -2.653883e-03 2.520583e-02
1.296952e-03 8.749832e-03 2.537202e-02
1.870265e-02 8.505795e-03 1.878366e-02
1.964680e-02 -9.661628e-03 1.837208e-02
-1.351718e-03 2.125199e-02 2.080602e-02
3.680660e-03 4.755551e-02 -2.913333e-02
-4.140282e-02 -2.329203e-02 -1.438840e-02
-2.403159e-02 -3.744275e-02 -1.331388e-04
-6.575263e-03 -4.139832e-03 2.520576e-02
-4.778778e-02 1.673224e-02 -2.633968e-02
-5.598010e-03 2.967254e-03 2.264283e-02
2.124951e-02 9.138338e-04 1.792459e-02
2.178568e-02 -1.197694e-03 2.109236e-02
-1.713273e-02 6.488008e-03 -7.147400e-02
2.525723e-04 -4.011310e-02 7.390780e-03
-2.499128e-03 1.005159e-02 2.562741e-02
2.178024e-02 3.100468e-02 9.317473e-03
-4.844182e-03 -4.656236e-03 2.333374e-02
-1.790906e-02 -2.917223e-02 8.924721e-03
5.433586e-03 4.132760e-03 2.391224e-02
-2.639939e-02 3.727476e-02 -2.919442e-02
-9.072991e-03 3.878294e-02 6.371825e-03
-2.228991e-02 8.732702e-03 1.999213e-02
-1.937079e-02 -8.044696e-03 1.851875e-02
-6.667316e-03 5.297762e-03 2.489876e-02
-1.095276e-02 -2.755702e-03 -7.845464e-02
1.599487e-02 -1.853548e-02 2.047352e-02
-2.231900e-02 6.469589e-03 2.075908e-02
2.104763e-02 4.036168e-02 -7.703806e-03
1.212728e-02 1.300083e-02 -7.444705e-02
-4.723561e-02 8.410060e-04 -4.287384e-02
1.813316e-02 4.643143e-02 -2.204040e-02
4.314889e-02 1.385429e-02 -2.466690e-03
-1.913549e-02 -9.857309e-03 1.942300e-02
-2.256565e-02 1.085825e-02 1.979838e-02
-1.905575e-02 3.532869e-02 6.279363e-03
4.343765e-03 1.197462e-02 -7.105121e-02
-6.411687e-03 -2.969580e-02 1.660553e-02
2.688620e-03 6.972812e-03 2.514983e-02
-4.143871e-02 -1.257759e-02 -6.593511e-03
-4.135849e-02 1.199671e-02 -6.681761e-03
-1.795786e-03 -4.487674e-02 -2.357902e-03
-3.066949e-02 4.042616e-02 -2.672898e-02
-3.554644e-02 3.294948e-02 -4.108442e-02
2.825268e-02 -2.774957e-02 3.415906e-03
-1.138243e-02 1.925228e-02 1.982634e-02
3.288440e-02 3.754552e-03 9.599623e-03
3.314174e-02 -4.429123e-03 9.220580e-03
6.479202e-03 8.534551e-04 2.356305e-02
5.089360e-02 -4.771888e-03 -3.565388e-02
3.351959e-02 -3.643861e-02 -1.480539e-02
-5.015949e-02 -6.331897e-03 -1.790439e-02
-4.057463e-02 1.911046e-02 -5.146738e-02
-1.497444e-02 4.316242e-02 -4.577953e-02
-1.449737e-02 -1.760686e-02 1.952440e-02
2.183104e-02 -1.388268e-02 -7.014466e-02
1.690810e-02 -2.311485e-02 1.719291e-02
2.680260e-02 -3.453574e-02 1.010399e-03
2.619656e-03 1.505440e-02 -7.657577e-02
-3.770745e-02 6.636913e-03 4.372539e-03
7.965046e-03 1.120197e-03 2.544189e-02
6.020188e-03 -6.125775e-03 2.508044e-02
3.578952e-02 -3.669289e-02 -2.009928e-02
-4.357038e-02 2.327183e-02 -1.746244e-02
-3.106391e-02 -3.960344e-02 -2.626841e-02
3.840884e-02 -3.033629e-02 -1.209105e-02
-7.067037e-03 -1.842849e-02 2.287690e-02
4.724898e-02 6.349323e-03 -6.751949e-03
4.749993e-02 -6.111456e-03 -7.045621e-03
-7.807931e-04 -6.231294e-03 2.538403e-02
5.605939e-03 -4.401827e-03 2.476613e-02
6.133113e-03 5.223864e-03 2.466024e-02
-2.788064e-02 -4.165956e-02 -2.153821e-02
-1.035347e-03 7.829901e-03 2.558044e-02
-1.454435e-02 3.432486e-02 -5.547241e-02
-1.780931e-02 -4.627136e-02 -2.325048e-02
2.336016e-03 -5.647409e-03 2.324723e-02
2.430865e-02 -4.217194e-02 -1.289789e-02
5.032345e-02 -7.862316e-03 -3.264998e-02
5.454931e-04 -7.667076e-03 2.538215e-02
-4.062663e-02 -1.956910e-02 -4.815501e-02
1.323155e-02 -2.825295e-02 -6.686614e-02
-1.349170e-02 1.548092e-02 2.197683e-02
9.094134e-04 3.103185e-03 -7.280136e-02
7.017721e-03 -2.453053e-03 2.520406e-02
4.643486e-02 -2.686378e-03 -1.921320e-02
1.097167e-03 2.489633e-04 2.410350e-02
4.025267e-02 3.113819e-02 -2.203212e-02
1.949678e-02 -1.144462e-02 1.695988e-02
-4.319448e-02 1.396569e-02 -2.415457e-02
-4.778706e-02 -1.657008e-02 -2.359607e-02
2.779006e-02 1.194629e-02 1.564506e-02
2.526932e-02 -1.011382e-02 1.537369e-02
4.126807e-02 -1.382321e-02 -4.400470e-02
4.281845e-02 1.364497e-02 -4.332046e-02
-2.142168e-02 4.245221e-02 -3.069154e-02
-1.748644e-02 2.954215e-03 2.221539e-02
4.204617e-02 -7.541546e-03 -3.609027e-02
1.294075e-02 4.664567e-02 -1.273179e-02
4.432583e-02 9.768361e-03 -3.727789e-02
-2.291636e-02 2.283454e-02 1.471873e-02
-4.923954e-02 -1.066303e-02 -1.935550e-02
1.110412e-02 -1.853424e-02 2.114161e-02
8.062164e-03 3.096670e-02 -6.886573e-02
-2.561947e-03 -6.697739e-03 2.433218e-02
-1.777213e-03 -3.801869e-02 8.371248e-03
-3.392902e-02 3.670654e-02 -3.281031e-02
2.673830e-02 -1.868227e-02 -6.176086e-02
8.286162e-03 -2.038564e-04 2.462074e-02
4.610467e-02 1.623065e-02 -9.232708e-03
7.340166e-03 2.831678e-04 2.546208e-02
-1.772306e-02 -4.039947e-02 -5.308334e-03
-3.457850e-02 -1.856283e-02 8.240429e-03
3.634331e-02 2.376371e-02 -3.560988e-02
3.007868e-03 2.147333e-02 2.174619e-02
4.794997e-02 1.728722e-03 -7.896927e-03
-5.035240e-02 9.680924e-03 -2.824801e-02
-4.824573e-02 -1.018667e-02 -2.725989e-02
-1.467935e-02 -1.530785e-02 -7.425090e-02
-1.256028e-02 1.222202e-02 -6.642635e-02
2.814849e-03 4.577955e-02 -1.071903e-02
1.730351e-02 -3.320998e-02 8.356504e-03
-7.107218e-03 -2.061469e-02 1.853443e-02
-3.746007e-02 -1.242280e-02 6.432532e-03
-3.739892e-02 -4.242556e-03 9.877463e-03
-4.832758e-03 2.871247e-02 -6.696823e-02
8.149101e-03 -3.806229e-03 2.500896e-02
8.535186e-03 3.826113e-03 2.477973e-02
-4.615284e-02 1.610168e-02 -1.427563e-02
1.029454e-02 4.434423e-02 -4.357759e-02
1.549467e-02 4.280496e-02 -1.487719e-02
8.822797e-03 -7.385394e-03 -6.984401e-02
3.812550e-02 2.950243e-02 -9.004277e-03