# vtk DataFile Version 2.0
Electric current density generated by TTH
ASCII
DATASET UNSTRUCTURED_GRID
POINTS 2270 double
-2.435585e-05 8.645367e-06 -3.632093e-22
1.516429e-05 2.051061e-05 -9.413073e-07
1.516429e-05 -2.051061e-05 9.413073e-07
-2.862197e-06 -2.276328e-05 -4.297003e-07
2.416368e-05 -2.823507e-06 1.482531e-06
2.087329e-05 -1.207802e-05 1.462369e-06
2.276809e-05 1.150274e-05 9.399146e-07
1.954689e-05 -1.650537e-05 -8.407474e-07
1.954689e-05 1.650537e-05 8.407474e-07
-9.380291e-06 2.120177e-05 -9.011978e-07
1.690532e-05 -1.916995e-05 -8.746940e-07
-2.465049e-05 7.765512e-06 -3.632093e-22
1.690532e-05 1.916995e-05 8.746940e-07
2.456159e-07 2.398059e-05 -1.433411e-06
-3.034943e-06 -2.535053e-05 -9.114500e-07
-2.458110e-05 6.822054e-06 9.381987e-07
2.177250e-05 -8.202036e-06 -9.993138e-07
-2.099708e-05 1.215364e-05 -1.479473e-06
1.610564e-05 1.787177e-05 -1.451479e-06
1.610564e-05 -1.787177e-05 1.451479e-06
1.122123e-05 2.165035e-05 -1.482725e-06
1.253481e-05 -2.232373e-05 8.127597e-07
-2.491335e-05 6.875649e-06 -3.632093e-22
8.247795e-06 2.134562e-05 1.187354e-07
-1.168385e-05 2.112550e-05 1.466418e-06
2.298780e-05 6.697887e-06 -1.422751e-06
-1.864294e-05 -1.750689e-05 8.535970e-07
-1.130269e-05 -2.294122e-05 8.535960e-07
1.154939e-05 -2.283946e-05 -8.257623e-07
-3.029298e-06 -2.533575e-05 9.308089e-07
1.866567e-05 -1.348138e-05 6.420536e-07
-2.436680e-05 2.532139e-06 -1.476646e-06
-1.920540e-05 -1.253639e-05 4.035896e-07
-2.514411e-05 5.976923e-06 -3.632093e-22
-1.357580e-05 -1.848530e-05 4.036228e-07
-2.302476e-05 7.623380e-06 1.478989e-06
-7.025499e-06 -2.459337e-05 8.496694e-07
6.980115e-06 2.193395e-05 6.266895e-07
-5.935802e-06 -2.367897e-05 1.482078e-06
-2.078679e-05 9.563524e-06 -8.361186e-08
1.863619e-05 -1.399879e-05 -1.043557e-06
8.922505e-06 -2.112671e-05 -3.990009e-07
-1.315967e-05 2.010728e-05 1.445499e-06
-1.893531e-05 1.285160e-05 1.310476e-07
-2.534245e-05 5.070493e-06 -3.632093e-22
-2.406070e-05 8.470672e-06 -9.406157e-07
2.195458e-05 -1.302091e-05 9.192440e-07
-1.606192e-05 -1.727815e-05 -1.266638e-06
-1.986579e-05 -1.135489e-05 -9.502201e-08
-7.497557e-06 -2.161764e-05 -7.709239e-08
-1.460964e-05 -1.761101e-05 -9.699782e-08
-2.531732e-05 -3.661170e-06 8.446281e-07
2.069569e-05 1.022760e-05 -7.541175e-07
-1.887685e-05 -1.716158e-05 -9.361606e-07
-5.686825e-06 -2.488309e-05 -9.202232e-07
-2.550813e-05 4.157527e-06 -3.632093e-22
-4.751985e-06 -2.509724e-05 -8.963533e-07
-2.089150e-05 1.382204e-05 -1.313546e-06
-2.424919e-05 -9.099801e-07 -1.479833e-06
-1.003898e-05 2.348450e-05 9.002182e-07
4.516082e-06 2.258695e-05 -6.602696e-07
2.241403e-05 -4.874759e-06 -4.145015e-07
4.036835e-06 2.524223e-05 8.696023e-07
2.207124e-05 -1.084250e-05 1.465153e-06
1.047838e-05 -2.074344e-05 -9.695638e-07
9.214050e-06 2.388619e-05 8.133944e-07
-2.564093e-05 3.239203e-06 -3.632093e-22
1.859737e-06 2.303824e-05 7.999781e-07
-2.356339e-05 -6.000061e-06 -1.482185e-06
-2.079969e-05 1.055807e-05 -1.061150e-06
2.346401e-05 1.012408e-05 -8.805575e-07
1.301125e-05 -2.085833e-05 1.466206e-06
1.301125e-05 2.085833e-05 -1.466206e-06
2.345210e-05 -6.204977e-06 1.479352e-06
-2.318713e-05 -8.497961e-06 1.444927e-06
-7.430752e-06 2.442455e-05 9.135898e-07
-3.392756e-06 2.297954e-05 9.565480e-07
-2.574068e-05 2.316703e-06 -3.632093e-22
-2.089177e-05 -1.476415e-05 8.425045e-07
-1.437183e-05 -2.116357e-05 8.424995e-07
-2.422640e-05 -2.590828e-06 1.482912e-06
2.090092e-05 -9.815487e-06 -7.641847e-07
9.912846e-06 -2.076573e-05 6.105808e-07
-2.502473e-05 5.084792e-06 9.055867e-07
-1.141504e-05 2.288414e-05 -8.553568e-07
-2.344619e-05 -1.010436e-05 9.124068e-07
-1.440081e-06 -2.311427e-05 8.674649e-07
-2.553563e-05 -1.508673e-07 -9.056107e-07
-2.580725e-05 1.391217e-06 -3.632093e-22
-2.453838e-05 -7.229321e-06 -8.439432e-07
-1.721793e-05 1.890296e-05 -8.610946e-07
5.433197e-06 2.234024e-05 -5.666643e-07
2.441586e-05 8.875434e-07 1.481253e-06
2.437236e-05 -8.448600e-07 -1.482701e-06
1.844068e-05 1.416792e-05 9.867662e-07
6.315913e-06 2.475169e-05 -8.941860e-07
-1.076647e-05 2.161881e-05 -1.467911e-06
-1.376858e-05 -2.156044e-05 -8.430622e-07
-2.465627e-05 1.624732e-06 1.441520e-06
-2.584056e-05 4.639385e-07 -3.632093e-22
-2.069844e-05 -1.496047e-05 -9.017877e-07
2.354388e-05 9.920409e-06 8.891876e-07
5.684638e-06 2.235676e-05 7.249121e-07
-2.263313e-05 4.000551e-06 5.482686e-07
-2.413687e-05 -8.708372e-07 1.468079e-06
-1.719096e-05 1.532484e-05 6.521178e-07
-2.317385e-05 7.782126e-06 -1.480544e-06
-2.337230e-05 -6.102370e-06 1.468538e-06
-1.783483e-05 -1.672121e-05 -1.480437e-06
-5.848085e-06 -2.373775e-05 -1.480436e-06
-2.584056e-05 -4.639385e-07 -3.632093e-22
1.287100e-05 -2.204533e-05 -9.164769e-07
-5.758263e-06 2.488595e-05 8.959672e-07
-3.962958e-06 -2.524784e-05 8.778543e-07
8.051713e-06 -2.184162e-05 1.012609e-06
4.723669e-06 -2.514934e-05 8.323330e-07
5.761904e-06 -2.493318e-05 8.305887e-07
-1.873391e-05 1.360994e-05 8.628523e-07
-2.436072e-05 7.729858e-06 8.768809e-07
1.261440e-05 1.938112e-05 -8.176467e-07
1.254420e-05 -1.943625e-05 8.297411e-07
-2.580725e-05 -1.391217e-06 -3.632093e-22
-4.342863e-06 2.528596e-05 -7.236132e-07
-2.191983e-06 2.279878e-05 -2.712633e-07
-3.592752e-06 2.259554e-05 -3.800006e-08
-5.944502e-06 2.375281e-05 1.477758e-06
5.845771e-06 -2.482074e-05 -9.507344e-07
2.175450e-05 7.439521e-06 5.666036e-07
1.765365e-06 -2.359141e-05 1.304913e-06
-2.394191e-05 -2.479948e-06 -1.453921e-06
6.269876e-06 2.340610e-05 1.477162e-06
1.664417e-06 2.306865e-05 -8.235725e-07
-2.574068e-05 -2.316703e-06 -3.632093e-22
7.378025e-06 -2.450128e-05 8.339037e-07
1.027482e-05 -2.340551e-05 8.716614e-07
1.896640e-05 -1.722531e-05 -7.832562e-07
1.896640e-05 1.722531e-05 7.832562e-07
-2.195933e-05 6.603409e-06 3.885614e-07
-1.167949e-06 2.435804e-05 -1.482717e-06
-6.186405e-06 -2.207544e-05 3.704013e-07
-9.018862e-06 -2.155595e-05 1.099379e-06
7.028313e-06 2.314478e-05 -1.472739e-06
1.833611e-05 -1.788553e-05 7.935251e-07
-2.564093e-05 -3.239203e-06 -3.632093e-22
-2.273563e-05 -5.288560e-06 1.077168e-06
-2.314329e-05 -1.278703e-06 -8.938869e-07
2.274132e-05 -4.873134e-06 9.898067e-07
2.311116e-05 -2.330604e-06 9.562182e-07
1.047764e-05 2.192149e-05 -1.481487e-06
5.666183e-06 2.362953e-05 -1.481600e-06
-1.977008e-05 1.234208e-05 -1.041588e-06
2.346143e-05 -1.027793e-05 -7.944621e-07
1.362090e-06 -2.412419e-05 -1.469474e-06
1.335971e-05 2.183684e-05 8.169424e-07
-2.550813e-05 -4.157527e-06 -3.632093e-22
1.833262e-05 1.789106e-05 -7.913694e-07
-1.486701e-05 1.773860e-05 -8.474331e-07
1.019641e-05 2.172444e-05 1.437668e-06
2.329263e-05 -8.863887e-07 -1.044829e-06
-2.397594e-06 -2.428781e-05 1.482260e-06
9.717735e-06 2.264203e-05 1.456718e-06
-1.094572e-05 -2.200378e-05 -1.467378e-06
-2.291743e-05 9.184240e-06 1.446312e-06
-1.783497e-05 1.681274e-05 1.475463e-06
2.299132e-07 -2.561358e-05 7.934161e-07
-2.534245e-05 -5.070493e-06 -3.632093e-22
-2.271919e-05 -9.374207e-06 -1.467193e-06
5.089346e-06 2.388435e-05 1.481750e-06
-2.552331e-05 2.018797e-06 -8.114266e-07
-2.399641e-05 -8.974232e-06 -7.854790e-07
-1.217707e-05 -2.254294e-05 -7.823170e-07
2.273658e-05 -3.273572e-06 5.145672e-07
-1.803212e-05 1.819470e-05 7.904537e-07
-2.213787e-05 1.079879e-05 1.458228e-06
-2.452580e-05 -7.338727e-06 8.156863e-07
-2.560059e-05 8.899899e-08 8.149085e-07
-2.514411e-05 -5.976923e-06 -3.632093e-22
3.659343e-06 2.391614e-05 1.473443e-06
-1.070732e-05 2.183219e-05 1.482221e-06
2.330523e-05 1.061415e-06 1.064491e-06
-5.202912e-07 2.295178e-05 4.769191e-07
2.131394e-05 -1.132229e-05 -1.465403e-06
-5.408449e-06 2.270857e-05 -1.078233e-06
-1.223680e-05 2.249872e-05 -7.988441e-07
-1.168982e-05 2.120361e-05 -1.475379e-06
-4.919182e-06 -2.267428e-05 9.237459e-07
-2.373778e-05 6.674559e-06 -1.452972e-06
-2.491335e-05 -6.875649e-06 -3.632093e-22
-2.250563e-05 -4.116267e-06 -1.459843e-08
3.841733e-06 -2.527218e-05 -8.702595e-07
2.318925e-05 1.967199e-06 1.006244e-06
1.419607e-05 -1.998964e-05 1.474706e-06
1.419607e-05 1.998964e-05 -1.474706e-06
2.176429e-05 1.352480e-05 -7.779140e-07
2.267273e-05 -1.193953e-05 -7.779028e-07
2.317621e-05 -7.281665e-06 -1.481326e-06
1.781153e-05 -1.629367e-05 -1.466216e-06
1.775492e-05 1.631102e-05 1.461359e-06
-2.465049e-05 -7.765512e-06 -3.632093e-22
-2.065363e-05 -1.302204e-05 1.481920e-06
-1.476103e-05 -1.944889e-05 1.481919e-06
-2.182323e-05 7.922208e-06 9.421960e-07
2.316577e-05 -2.026505e-06 -9.860634e-07
2.270299e-05 8.550593e-06 1.479403e-06
-1.215174e-05 2.258172e-05 7.455259e-07
1.961747e-05 1.274278e-05 -1.122529e-06
9.560347e-06 -2.232755e-05 1.481090e-06
-1.463216e-05 2.100586e-05 -8.164510e-07
2.097728e-05 -1.240982e-05 -1.482871e-06
-2.435585e-05 -8.645367e-06 -3.632093e-22
-1.641499e-05 1.811834e-05 -1.480382e-06
-2.089716e-05 -1.302261e-05 -1.459777e-06
-1.399292e-05 1.810430e-05 8.949078e-08
1.087949e-05 2.320382e-05 -7.723209e-07
1.111557e-05 2.036037e-05 -9.177324e-07
2.405090e-06 2.545931e-05 8.560815e-07
-2.254757e-05 -5.304195e-06 -8.729474e-07
8.982635e-06 -2.396760e-05 -8.227070e-07
2.497020e-05 -5.414512e-06 8.865965e-07
1.188935e-05 -1.965210e-05 -5.082366e-07
-2.402982e-05 -9.514077e-06 -3.632093e-22
-1.945630e-05 1.656873e-05 8.801959e-07
-1.892395e-06 2.292684e-05 5.979871e-07
2.234561e-05 -1.035920e-05 -1.458452e-06
-1.707525e-05 -1.776990e-05 -1.455791e-06
-7.134368e-06 -2.358886e-05 -1.455790e-06
-2.306836e-05 3.912846e-06 -1.126865e-06
7.885092e-06 -2.290302e-05 1.476344e-06
2.463157e-05 -2.003246e-06 1.440754e-06
-2.278647e-05 -3.534325e-06 -7.082109e-07
2.401578e-05 -6.470535e-06 -1.392321e-06
-2.367281e-05 -1.037052e-05 -3.632093e-22
-9.900988e-06 2.358569e-05 -8.462270e-07
1.367204e-05 1.846979e-05 5.369280e-07
1.367204e-05 -1.846979e-05 -5.369280e-07
4.320975e-06 -2.290868e-05 -1.047977e-06
2.415785e-05 -8.575084e-06 7.609143e-07
8.851154e-06 -2.235399e-05 -1.448138e-06
2.157997e-05 -7.894291e-06 5.345139e-07
-1.311013e-05 -2.198555e-05 8.195855e-07
-1.999933e-05 -1.597707e-05 8.195842e-07
-3.104612e-06 -2.323596e-05 -1.163538e-06
-2.328529e-05 -1.121361e-05 -3.632093e-22
[...]
POINT_DATA 2270
VECTORS 10.000GHz_fone_imag double
6.675626e+09 1.921267e+10 2.366734e+08
2.200392e+10 -1.392354e+10 3.342567e+07
-2.239280e+10 -1.446706e+10 4.303891e+08
-2.968072e+10 4.700200e+09 -2.163248e+08
-2.268429e+09 -2.518679e+10 -1.174633e+08
-1.225436e+10 -2.281165e+10 -8.333902e+08
9.512603e+09 -1.794936e+10 2.079274e+09
-1.410295e+10 -1.609605e+10 2.841204e+08
1.386879e+10 -1.487980e+10 4.305504e+08
2.854229e+10 1.574633e+10 1.485376e+09
-1.497882e+10 -1.314526e+10 5.059504e+08
5.534955e+09 1.835734e+10 7.249879e+08
1.459552e+10 -1.375744e+10 -2.821932e+08
2.485112e+10 -6.060654e+08 -1.087871e+08
-2.180381e+10 2.226174e+09 7.835197e+08
5.674061e+09 1.944371e+10 -2.318307e+08
-9.535007e+09 -2.597191e+10 -7.882301e+08
1.626386e+10 2.760157e+10 -3.657628e+08
2.139693e+10 -1.748379e+10 -2.465794e+07
-1.917283e+10 -1.770551e+10 5.573958e+08
2.108958e+10 -1.118526e+10 5.251502e+08
-2.042010e+10 -1.264282e+10 -3.853107e+08
5.169015e+09 1.834939e+10 -6.141028e+07
2.885602e+10 -1.090516e+10 1.332053e+09
2.119804e+10 1.345891e+10 1.187079e+09
7.375284e+09 -2.464319e+10 1.802483e+08
-1.383166e+10 1.448282e+10 7.105089e+08
-1.795714e+10 9.349767e+09 6.824158e+08
-2.196084e+10 -9.483408e+09 -1.936391e+09
-2.206298e+10 2.919006e+09 -6.627052e+08
-1.665954e+10 -2.371385e+10 -3.738931e+08
2.867193e+09 2.445948e+10 -2.170336e+08
-1.643129e+10 2.868820e+10 -1.456724e+09
4.137966e+09 1.907871e+10 1.988246e+08
-2.456245e+10 2.112375e+10 -3.829607e+08
8.069129e+09 2.463584e+10 1.245986e+08
-2.027562e+10 5.489340e+09 -1.616759e+09
2.993424e+10 -1.012857e+10 1.614881e+09
-2.308283e+10 6.877014e+09 7.102472e+08
1.336753e+10 3.035406e+10 -1.589018e+08
-1.830798e+10 -2.445918e+10 3.442061e+08
-2.665612e+10 -1.239854e+10 2.564765e+09
2.344130e+10 1.524054e+10 1.846425e+08
1.692648e+10 3.281175e+10 1.375812e+09
3.855957e+09 1.911352e+10 -2.525638e+08
7.351140e+09 1.945200e+10 2.510425e+08
-1.017059e+10 -1.707133e+10 -2.811475e+09
-1.896106e+10 1.843215e+10 9.715369e+08
-2.069076e+10 2.919087e+10 -8.873407e+08
-2.974622e+10 1.053789e+10 -2.354301e+08
-2.874830e+10 2.183927e+10 1.025062e+09
-4.067753e+09 2.278747e+10 1.029931e+09
1.321433e+10 -2.743955e+10 -3.952378e+08
-1.378293e+10 1.590094e+10 -2.025446e+08
-2.071334e+10 4.925697e+09 -1.231092e+08
2.670321e+09 1.880176e+10 9.865178e+07
-1.946971e+10 3.343201e+09 1.212476e+08
1.266912e+10 1.716413e+10 3.371615e+07
3.024628e+08 2.760721e+10 2.618015e+08
1.920453e+10 7.706493e+09 5.644988e+08
2.698323e+10 -4.780743e+09 -2.693032e+08
-7.125479e+09 -2.926623e+10 1.012806e+09
2.248855e+10 -4.415031e+09 3.430338e+08
-1.013847e+10 -1.972984e+10 1.271805e+09
-3.611805e+10 -1.906754e+10 -1.496931e+08
1.867977e+10 -6.646839e+09 4.470973e+05
3.824126e+09 1.892617e+10 -5.906719e+08
2.932027e+10 -1.993921e+09 6.199563e+08
-5.885506e+09 2.375706e+10 1.466651e+09
1.257304e+10 2.697456e+10 -7.600973e+08
8.548810e+09 -1.843515e+10 -9.293237e+08
-2.043704e+10 -1.315905e+10 4.880549e+08
2.200722e+10 -1.351344e+10 -3.047419e+08
-5.757610e+09 -2.457786e+10 -6.926597e+08
-8.211323e+09 2.204334e+10 2.876358e+08
2.242570e+10 5.844977e+09 -2.323601e+09
3.412400e+10 3.053584e+09 2.380113e+08
1.366636e+09 2.078076e+10 -4.157466e+08
-1.403227e+10 1.929949e+10 -1.041671e+09
-1.896061e+10 1.245108e+10 -9.649826e+08
-3.539272e+08 2.731244e+10 -8.008961e+08
-1.771527e+10 -2.807836e+10 9.544128e+08
-2.338453e+10 -1.300052e+10 7.285358e+08
3.856894e+09 2.049769e+10 3.280317e+08
1.920505e+10 1.004958e+10 -2.513627e+08
-8.012780e+09 1.874842e+10 9.164945e+07
-3.722728e+10 1.367151e+08 7.358161e+08
-9.110204e+07 2.071925e+10 6.333541e+08
1.689215e+09 1.985910e+10 -1.571468e+08
-9.128078e+09 2.681031e+10 6.509590e+08
1.527861e+10 1.297742e+10 -1.373564e+08
2.939657e+10 -6.641512e+09 -1.612526e+09
-9.996527e+06 -3.662347e+10 2.375075e+08
-4.129991e+08 -2.848072e+10 1.886367e+09
2.044915e+10 -2.500148e+10 -9.891265e+08
1.969618e+10 -6.314442e+09 2.231291e+09
2.203180e+10 1.022599e+10 -6.116194e+08
-1.998508e+10 1.251096e+10 -9.891097e+08
1.321856e+09 2.378807e+10 -1.101397e+09
1.811396e+08 2.040242e+10 1.479301e+09
-1.277383e+10 1.627231e+10 1.178320e+09
7.664196e+09 -1.925629e+10 -4.480834e+08
2.978783e+10 -6.199171e+09 3.928077e+08
4.456871e+09 3.143719e+10 -4.701771e+08
-2.075397e+09 2.507309e+10 -1.888903e+09
2.002491e+10 2.642627e+10 -3.186845e+08
7.240326e+09 2.251308e+10 6.665462e+08
-9.949576e+09 2.607919e+10 -9.564408e+08
-1.735801e+10 1.980778e+10 2.025685e+08
-2.331441e+10 5.111402e+09 -7.925087e+08
-3.404696e+08 1.937516e+10 1.730405e+09
-1.849743e+10 -1.147944e+10 1.563944e+09
1.900651e+10 4.992166e+09 4.655762e+08
-1.977325e+10 3.784569e+09 -1.486949e+08
-3.383314e+10 -1.084414e+10 1.170107e+09
-1.962494e+10 -2.926089e+09 5.874922e+08
-2.382020e+10 -3.389279e+09 -1.562583e+09
1.762313e+10 2.358169e+10 -1.487117e+07
6.077790e+09 1.936265e+10 8.886349e+08
2.445660e+10 -1.530671e+10 -1.316861e+09
-2.371427e+10 -1.480112e+10 -2.083997e+09
-1.297085e+09 1.892063e+10 -3.420893e+08
2.156106e+10 5.576117e+09 -1.156747e+09
3.477153e+10 6.680599e+09 2.464673e+08
3.399965e+10 3.842818e+09 -1.352456e+08
2.339618e+10 5.353883e+09 6.436354e+07
-2.431657e+10 -3.255036e+09 1.125795e+09
1.016052e+10 -2.827254e+10 -3.174829e+08
-2.806767e+10 -3.550539e+09 3.227953e+08
-3.644795e+09 2.466435e+10 5.724538e+08
2.951542e+10 -5.655659e+09 4.211759e+08
2.947955e+10 -3.392313e+09 1.237114e+09
1.381026e+07 2.234061e+10 -7.497129e+08
-2.172597e+10 -8.808393e+09 1.316581e+09
-2.478983e+10 -1.106612e+10 2.635125e+08
-1.356643e+10 -1.548547e+10 -4.561856e+08
1.469617e+10 -1.686754e+10 -1.763012e+08
9.064338e+09 3.111165e+10 -4.887773e+08
2.417546e+10 1.342828e+09 -6.068309e+08
-2.826607e+10 6.860268e+09 -3.663211e+08
-2.668161e+10 8.771274e+09 2.192898e+08
2.594929e+10 -8.532944e+09 7.796858e+07
-1.467992e+10 -1.383089e+10 1.077057e+09
-3.398098e+09 2.639785e+10 -9.142251e+08
-9.295591e+09 3.142332e+10 2.905488e+09
-3.033159e+09 3.001998e+10 -3.267146e+08
-7.087579e+09 -2.826460e+10 9.795888e+08
-2.311892e+09 -2.772321e+10 -1.159092e+09
2.149760e+10 -1.297059e+10 4.410487e+08
2.743977e+10 -6.156028e+09 2.783405e+09
2.022567e+10 2.907995e+10 -8.593430e+08
-8.379405e+09 -1.833253e+10 -4.966168e+08
-2.466766e+10 -4.877836e+08 -1.056306e+09
1.758550e+10 -1.163327e+10 -4.434162e+08
-5.126035e+09 2.166722e+10 1.107715e+09
1.425039e+10 -1.427054e+10 -1.866965e+08
2.069866e+10 1.980029e+10 -1.193254e+09
2.351721e+10 -1.177917e+10 -5.823001e+08
-3.991360e+08 -3.302670e+10 1.910429e+09
-2.279445e+10 1.014742e+09 -1.849964e+09
2.280925e+10 -9.812838e+09 -1.842718e+08
-2.350214e+10 1.090283e+10 2.603388e+07
8.018032e+09 2.221804e+10 -1.532613e+09
1.627064e+10 1.747298e+10 -2.290433e+07
-2.033353e+10 -7.439636e+08 1.157909e+09
-3.637995e+09 2.019920e+10 2.661930e+07
-9.369082e+09 2.100762e+10 1.033721e+09
2.606951e+10 -4.840290e+09 -6.748631e+07
4.365451e+08 2.094515e+10 1.158143e+09
-7.319049e+09 1.804146e+10 3.789884e+08
-1.753321e+10 9.321942e+09 9.328452e+08
-4.410766e+09 -2.940711e+10 4.279069e+07
1.482267e+10 1.464705e+10 -1.061434e+09
8.930733e+09 2.239772e+10 -7.642858e+08
-8.933577e+09 2.203689e+10 -1.924054e+09
5.542678e+08 2.039953e+10 1.070813e+09
-3.914696e+09 2.313358e+10 1.668532e+08
2.466775e+10 -4.499787e+09 -1.872943e+09
2.045650e+10 1.013025e+10 -4.043190e+08
2.231321e+09 -4.177239e+10 3.674227e+08
3.218978e+10 -2.676058e+09 1.713917e+09
-1.458402e+10 -2.089619e+10 1.787145e+09
2.952841e+10 5.375114e+09 1.526387e+09
1.813743e+10 9.970458e+09 1.021389e+09
2.199939e+10 1.301543e+10 -8.348241e+08
-3.016859e+10 7.672297e+09 -2.023830e+08
7.054770e+09 2.225386e+10 2.945211e+08
-8.175664e+09 2.656258e+10 -6.278155e+07
-6.555260e+09 3.659780e+10 2.044776e+09
-2.081141e+10 -4.009291e+09 -1.520515e+09
1.230659e+09 -3.295473e+10 2.087281e+09
-1.789729e+10 -1.372675e+10 -5.923659e+08
1.754889e+10 -1.238502e+10 -1.106607e+09
1.083649e+10 -1.714701e+10 2.872814e+08
-1.301532e+10 -2.453761e+10 -2.311859e+08
-7.529551e+09 -2.576608e+10 1.576849e+09
-1.725211e+10 -1.852014e+10 3.527349e+08
1.717702e+10 -1.778362e+10 -1.604049e+09
-8.200525e+09 2.110288e+10 1.778654e+08
-1.113164e+10 1.935743e+10 1.706006e+09
-2.275540e+10 1.593780e+10 6.786676e+08
1.073786e+10 2.827057e+10 -1.498726e+09
-2.224875e+09 -2.958459e+10 9.321382e+08
9.201492e+09 -2.465684e+10 2.457707e+08
1.883885e+10 1.130808e+10 -1.319879e+09
1.445960e+10 -2.428056e+10 6.060920e+08
-3.101829e+10 -1.318960e+10 2.409866e+08
1.650105e+10 1.155209e+10 -3.282289e+08
-1.032296e+10 -2.182461e+10 -2.196197e+07
-6.342607e+09 1.824738e+10 1.664498e+09
1.787639e+10 1.573778e+10 1.034745e+09
-1.249386e+10 1.971353e+10 -2.213322e+07
2.459827e+10 1.737660e+10 -1.699246e+08
1.788340e+10 -8.365281e+09 1.603779e+08
2.776817e+10 -1.132769e+10 1.315338e+09
1.955853e+10 -2.279963e+09 9.078049e+08
-7.770331e+09 3.438253e+10 -1.917023e+09
-2.226420e+10 -9.962846e+09 -9.809704e+08
-4.698294e+09 -2.024146e+10 3.019482e+08
-2.897020e+10 -1.415288e+10 -3.588301e+08
-7.424794e+09 1.912102e+10 1.881631e+09
2.037197e+10 2.189208e+10 1.476097e+09
3.142204e+10 5.299319e+09 -4.623983e+08
-1.023439e+10 -2.286958e+10 5.378474e+08
-1.633900e+10 1.713183e+10 -1.503557e+09
-2.400490e+10 6.186780e+09 1.508835e+08
4.819214e+09 2.821214e+10 1.089489e+09
-3.321148e+10 -9.421120e+09 -2.217248e+08
-1.236524e+09 -2.268940e+10 5.158076e+07
-5.540791e+09 3.633806e+10 9.096744e+08
-7.987489e+09 -2.661247e+10 1.924435e+08
-8.029369e+09 1.715338e+10 -2.403928e+08
2.062113e+10 7.553999e+09 -2.492571e+08
3.137311e+10 -2.456800e+10 -5.701297e+08
-3.132995e+10 -2.457363e+10 -6.522524e+08
-2.978680e+10 -4.900822e+09 1.167813e+09
-6.909561e+09 -1.952196e+10 -4.748567e+08
-2.772730e+10 -1.266366e+10 -9.655945e+08
-1.052610e+10 -2.796142e+10 -3.411427e+08
-1.804863e+10 9.823690e+09 -1.196293e+09
-1.308211e+10 1.589981e+10 -9.422464e+08
-2.677395e+10 4.172776e+09 -2.352845e+08
-8.081418e+09 1.955484e+10 -3.158400e+08
-9.123309e+09 -2.022114e+10 8.401136e+08
-2.504364e+10 1.524519e+10 -9.680819e+08
-3.124265e+10 6.462492e+08 2.440286e+09
-2.738639e+10 -7.907967e+09 -2.150750e+09
-1.484862e+10 -1.737103e+10 7.673253e+08
1.810724e+10 -2.285503e+10 7.155706e+08
2.462528e+10 1.656907e+10 5.117629e+07
2.360819e+10 6.597974e+09 -1.766347e+09
3.537157e+09 -1.982929e+10 5.065652e+08
-3.267797e+10 2.602345e+09 -2.841971e+08
-1.168572e+10 2.318409e+10 -4.689925e+08
-2.964706e+10 -5.162238e+08 4.808888e+08
-1.752162e+10 -1.559245e+10 3.177853e+07
1.715524e+10 -1.557209e+10 -1.675877e+09
-2.745241e+10 1.108148e+09 6.384208e+08
2.845411e+09 -3.519094e+10 3.021111e+09
-2.828837e+10 -1.248829e+10 7.482426e+08
-1.397217e+10 2.624983e+10 -1.377163e+09
-2.622637e+10 1.545480e+10 -8.967083e+08
-2.759722e+10 1.379101e+10 1.197054e+09
-2.019392e+10 2.260309e+10 8.489913e+08
-1.219317e+10 1.675386e+10 5.367458e+08
-1.015017e+10 2.952869e+10 -6.465232e+07
-2.140445e+10 -2.075189e+10 -3.102292e+08
1.449887e+10 1.894900e+10 -6.302800e+07
1.877444e+10 -2.568112e+10 4.928139e+08
1.064466e+10 -3.512145e+10 3.232666e+09
-1.729417e+10 2.401221e+10 6.393216e+08
2.227566e+10 1.660668e+10 4.082696e+08
-1.982726e+10 -1.833256e+10 3.010474e+08
1.800749e+10 -1.658481e+10 4.607210e+08
9.673010e+09 -2.467257e+10 -1.849490e+09
-1.130408e+10 1.741982e+10 1.251029e+09
4.639271e+09 -2.560439e+10 1.906526e+09
-4.095499e+08 2.985855e+10 5.182293e+08
1.537845e+10 1.913264e+10 1.940708e+08
5.032501e+09 -2.821659e+10 1.779099e+08
-4.158084e+09 -2.824222e+10 4.601934e+08
9.442391e+09 1.656405e+10 -1.371704e+09
-9.020708e+09 -2.137383e+10 5.601733e+08
2.461554e+10 4.568097e+09 -1.188574e+09
7.129438e+09 1.946723e+10 -1.282028e+09
2.110364e+10 5.213040e+09 -6.787446e+08
-1.173282e+10 1.778271e+10 -1.932210e+09
5.750155e+09 -2.989117e+10 1.225498e+09
2.428484e+10 8.699886e+09 8.281597e+08
2.424787e+10 3.750670e+09 4.501361e+08
1.446428e+10 1.662038e+10 -1.076934e+09
-2.143681e+10 -1.688069e+09 4.416503e+08
-2.105596e+10 1.365644e+10 2.920638e+09
-2.935464e+10 -1.122306e+10 -1.748202e+09
4.790195e+09 2.534743e+10 3.263548e+08
8.606248e+09 -2.903861e+10 -1.594653e+08
9.209004e+09 -2.112144e+10 -2.682506e+08
-1.192018e+10 1.589007e+10 6.636410e+08
-3.845668e+09 -2.047626e+10 4.550357e+08
2.286845e+10 6.020821e+09 -4.185606e+08
-2.221191e+10 -3.260383e+09 -1.878156e+09
-8.396734e+09 -1.903564e+10 -8.697353e+08
1.140889e+10 2.712221e+10 -8.390275e+08
1.949554e+10 2.147884e+10 -1.204022e+09
-5.060342e+08 3.441985e+10 4.774779e+08
1.388502e+10 -2.505329e+10 1.464512e+08
2.813834e+09 -2.719749e+10 -1.392220e+08
2.897788e+10 9.652875e+09 -3.054893e+08
-1.169284e+10 1.564801e+10 -1.220401e+09
2.597607e+10 -2.782419e+08 -2.601738e+09
1.645462e+10 2.748144e+10 -2.418171e+09
2.176687e+09 1.947096e+10 3.597249e+08
2.592313e+09 -2.771712e+10 1.513248e+09
-2.115550e+10 -1.095075e+09 4.740148e+08
-7.259769e+09 1.933060e+10 -3.465247e+08
-1.969526e+10 8.151086e+09 6.778511e+08
-2.428068e+10 -4.333957e+09 8.444567e+08
1.141503e+10 -3.620466e+10 1.746258e+09
3.609155e+10 -8.075227e+08 2.007085e+08
-1.322276e+10 1.669303e+10 -3.991473e+08
2.351772e+09 2.009406e+10 -6.159057e+08
-2.395257e+10 -4.343594e+09 -2.307607e+09
-2.157832e+10 -2.039388e+10 4.494187e+08
1.909504e+10 -1.982021e+10 1.043717e+09
7.331157e+09 3.039823e+10 1.184805e+09
2.035299e+10 1.225875e+09 -1.405097e+07
2.192092e+10 1.698771e+10 -5.488324e+08
9.118141e+09 1.757234e+10 4.366823e+08
1.380505e+10 -1.366925e+10 3.383857e+08
-1.468291e+10 -1.420202e+10 8.488478e+08
-1.362125e+10 1.391334e+10 3.450633e+08
-3.172180e+10 2.346657e+10 -1.512705e+09
5.116653e+07 2.491216e+10 3.378747e+08
-4.572932e+09 2.144222e+10 7.415508e+08
1.512005e+10 2.244686e+10 8.084363e+08
-2.869309e+10 1.475653e+10 9.011594e+08
-2.018608e+10 2.293544e+10 -1.031215e+09
-1.221915e+10 2.923517e+10 2.627314e+09
-2.156944e+10 1.552570e+09 5.901379e+08
9.740130e+09 2.276491e+10 -5.997487e+08
1.912148e+10 1.737653e+10 1.125524e+09
-1.322440e+10 1.435591e+10 -4.778187e+08
-6.892593e+09 -2.634707e+10 -7.106018e+08
4.599919e+09 3.124625e+10 4.879693e+08
1.197772e+10 -1.656971e+10 -2.288226e+08
-1.245721e+10 -1.751798e+10 7.307913e+08
-2.281769e+10 -1.038749e+10 1.378829e+09
8.307899e+09 -1.827611e+10 -1.587952e+08
4.166507e+09 2.993364e+10 -4.301352e+08
1.996354e+10 6.755285e+08 7.184647e+07
2.293142e+10 9.061973e+09 7.070023e+08
1.325334e+10 -2.033350e+10 -1.244385e+09
-1.472672e+10 1.419020e+10 -2.462088e+08
1.545269e+10 -2.157669e+10 -1.729112e+08
-1.356359e+08 2.070954e+10 -3.633155e+08
-4.851055e+09 2.029267e+10 -1.011382e+09
-2.042074e+10 -1.304465e+10 1.352518e+09
2.060184e+10 -1.282434e+10 9.083638e+08
-1.960679e+10 1.245865e+10 6.326475e+08
2.276717e+10 -1.939959e+10 5.432235e+08
-2.421225e+10 -1.960292e+10 1.251110e+09
1.507757e+10 -1.360026e+10 2.031623e+08
-1.480134e+10 -1.386300e+10 -6.876546e+08
-1.533146e+10 1.337492e+10 -8.868300e+07
5.678610e+09 -2.882087e+10 3.973161e+08
-1.721133e+10 -2.214896e+10 5.422127e+08
2.491117e+10 7.008565e+09 -5.628689e+08
1.747713e+10 -9.237102e+09 -1.554070e+07
-2.158656e+10 -1.293204e+09 1.055629e+08
2.907319e+10 1.717390e+10 -2.060696e+08
-7.192481e+09 -3.222693e+10 1.563204e+09
2.208038e+10 2.151126e+10 4.158945e+08
1.870427e+10 -2.079705e+10 -2.006819e+08
1.355827e+10 -2.708098e+10 6.767625e+08
-1.677039e+10 1.482207e+10 -1.509062e+08
-1.921537e+10 -1.835530e+10 1.083013e+09
1.292826e+10 -2.328553e+10 -1.658314e+09
1.544088e+10 -2.512111e+10 1.236937e+08
4.616847e+09 2.769277e+10 -1.035038e+09
2.447261e+10 9.054835e+09 -1.106153e+09
-2.891436e+10 2.743239e+09 1.640383e+09
6.219643e+09 1.974427e+10 -1.696599e+08
2.358898e+10 2.572015e+10 9.956677e+08
-2.674722e+10 -1.175452e+10 2.398098e+09
2.525118e+10 -2.596867e+09 8.413650e+08
-1.962128e+10 1.436151e+10 2.992799e+09
2.253964e+10 -2.157359e+10 9.268568e+08
-2.282396e+10 -2.138639e+10 -1.371373e+09
3.941947e+09 2.122362e+10 -7.606485e+06
-2.353556e+10 1.410911e+10 -5.295415e+07
-1.728057e+10 2.216631e+10 -2.436059e+09
-2.090956e+10 -3.805087e+10 3.923772e+08
1.691095e+10 2.505940e+10 -5.845376e+08
2.079772e+10 3.835842e+09 1.101835e+09
1.512177e+10 2.797024e+10 2.673994e+09
2.948725e+10 -5.223442e+09 -4.948963e+07
-1.733418e+10 1.267075e+10 -1.062799e+09
-2.107340e+10 4.804262e+09 -4.512396e+08
-1.620059e+10 -1.838246e+10 1.310800e+09
4.900194e+09 -2.314701e+10 -6.809109e+08
-5.163169e+09 -2.302242e+10 4.589526e+07
6.610870e+08 -3.574482e+10 2.235715e+08
-1.601699e+09 -2.311440e+10 -1.316091e+09
2.371068e+10 6.208371e+09 1.420007e+09
-2.779781e+10 1.108574e+10 1.144270e+09
-2.324257e+10 2.149634e+10 -1.221594e+09
-1.498798e+10 2.884252e+10 3.503908e+07
-1.652116e+10 1.066360e+10 6.545027e+08
-1.030651e+10 2.208863e+10 -1.487084e+09
-1.883020e+10 7.707465e+09 4.116418e+08
-1.490127e+10 1.251054e+10 4.330204e+08
-2.998782e+10 5.226274e+09 1.206899e+09
-2.301073e+10 -8.164005e+09 6.923395e+08
-1.755468e+10 2.120772e+10 -5.906712e+08
-1.183018e+10 2.537454e+10 -1.955860e+08
-2.408312e+10 1.209035e+10 -2.178682e+08
1.747382e+10 1.010382e+10 -2.203236e+08
2.452260e+10 2.242454e+10 -2.310116e+09
-1.741211e+10 1.089198e+10 -2.340523e+09
1.693266e+10 -1.915182e+10 9.462444e+08
-6.311084e+09 3.178810e+10 -5.914282e+08
-1.193838e+10 -1.573349e+10 -2.141972e+08
1.167233e+10 -1.529022e+10 -5.771047e+08
7.000940e+09 2.511808e+10 -7.245766e+08
-1.330793e+10 -2.221791e+10 1.894796e+08
1.924688e+10 -5.801563e+09 -1.519405e+09
-1.990557e+09 -3.088190e+10 -9.686670e+08
-8.254290e+09 -2.243186e+10 5.263578e+08
-1.372327e+10 1.472516e+10 1.731108e+08
-1.820079e+10 1.060305e+10 -4.798091e+08
-1.888919e+10 5.485759e+09 -5.788626e+08
-1.387217e+10 1.798157e+10 -1.858263e+08
-1.987328e+10 1.159449e+10 -6.191087e+07
2.335890e+10 -9.916300e+09 3.493025e+08
1.164502e+10 2.613143e+10 3.163615e+08
1.975131e+10 -2.668002e+10 3.882311e+08
-2.512878e+10 -1.926773e+10 -1.334982e+09
1.767361e+10 1.348849e+10 4.761480e+08
-4.125722e+09 -2.288570e+10 -9.751749e+07
2.937261e+09 -2.065225e+10 1.040344e+09
-1.734344e+10 7.987662e+09 1.123431e+09
-4.638225e+08 -2.406712e+10 -1.230808e+09
2.768560e+10 -1.047614e+10 -5.313949e+08
1.668102e+10 -1.123924e+10 -7.247113e+08
-1.773484e+10 -1.151781e+10 -5.411357e+08
-1.771868e+10 -2.547559e+10 1.302113e+09
-2.535526e+10 -7.814869e+09 2.781194e+09
2.983320e+10 4.632105e+08 4.201181e+08
-3.696825e+10 -1.748508e+10 -9.303081e+08
1.518204e+10 2.353426e+10 3.206142e+09
-1.488121e+10 1.348294e+10 -9.366399e+08
-1.773852e+10 8.533382e+09 -1.006888e+08
-1.185362e+10 2.195030e+10 1.998219e+08
-1.897490e+10 2.702293e+10 1.260866e+09
-2.539055e+10 1.709084e+10 2.034576e+09
-1.314166e+10 1.858127e+10 1.415144e+09
-1.315264e+10 -1.803729e+10 1.278771e+09
-3.041859e+10 -7.017475e+09 -6.747622e+08
2.594655e+10 -1.046868e+10 2.260429e+07
3.631947e+09 -3.179763e+10 4.603154e+08
2.889706e+10 -4.448499e+09 7.418076e+08
-9.500348e+09 -2.480274e+10 1.121177e+09
-1.848323e+10 7.904822e+09 -1.218487e+08
2.397916e+10 1.718805e+10 1.005770e+09
2.009999e+10 -4.773892e+09 4.191655e+08
-7.229690e+09 -1.880842e+10 -1.359988e+09
-9.058004e+09 1.776712e+10 6.899645e+08
-1.035978e+10 -2.831817e+10 -8.917592e+08
-1.762001e+10 1.367778e+10 3.463081e+08
9.560301e+09 -1.906652e+10 -5.175835e+08
2.270790e+10 -7.177140e+09 1.936355e+08
1.450537e+10 1.831772e+10 -1.672263e+09
-1.403644e+10 -1.823809e+10 2.126050e+07
-1.832916e+10 6.817984e+09 -2.604902e+08
2.028427e+10 1.266424e+10 -6.241346e+08
-1.612531e+10 -1.591057e+10 2.989474e+08
1.662902e+09 -2.583898e+10 1.997945e+09
-9.376321e+08 -2.060503e+10 -6.543358e+08
1.035952e+10 1.968022e+10 2.401029e+09
-1.098336e+10 -2.325195e+10 2.052686e+08
2.317581e+10 -8.380253e+09 -1.635736e+08
-1.320038e+10 -2.017357e+10 -2.644693e+08
-9.681388e+09 2.677603e+10 1.324990e+08
2.137048e+10 1.704075e+08 5.401782e+08
-1.809747e+10 7.069684e+09 -4.935058e+08
1.551775e+10 -1.606291e+10 -1.755007e+08
-3.355160e+10 -2.735125e+09 -4.506384e+08
-1.588730e+10 -1.634569e+10 -7.294112e+08
1.581961e+10 -1.724472e+10 5.684065e+08
2.834888e+10 -1.609206e+10 -1.014278e+09
-2.304827e+10 1.889248e+10 -2.137280e+09
-1.537708e+10 3.091910e+10 -9.843966e+08