# vtk DataFile Version 2.0
Electric current density generated by TTH
ASCII
DATASET UNSTRUCTURED_GRID
POINTS 2480 double
2.758844e-05 -6.757219e-21 -3.349009e-22
2.651445e-05 7.622734e-06 -3.349009e-22
-2.753508e-05 1.715163e-06 -3.349009e-22
2.549277e-05 -7.271971e-06 1.336538e-06
2.549277e-05 7.271971e-06 1.336538e-06
-2.490421e-05 1.197706e-06 -4.586586e-07
1.534183e-05 1.996590e-05 -8.858548e-07
1.163444e-05 -2.341230e-05 -1.365147e-06
6.207321e-06 -2.650205e-05 -9.344733e-07
-2.559132e-05 -9.464959e-06 -8.582360e-07
1.438782e-05 2.047803e-05 6.664318e-07
1.556294e-05 -1.948349e-05 4.674303e-07
4.705715e-06 -2.681870e-05 9.246283e-07
-2.757510e-05 8.579968e-07 -3.349009e-22
-6.502678e-06 2.646307e-05 -9.002032e-07
7.207707e-06 2.626690e-05 -9.142310e-07
3.747799e-06 -2.699509e-05 8.959509e-07
1.846342e-05 2.007156e-05 -8.747049e-07
-2.494531e-05 8.676372e-06 1.354068e-06
-2.380411e-06 -2.715904e-05 -8.852930e-07
1.397504e-05 2.195922e-05 1.353774e-06
1.101870e-05 -2.236705e-05 -4.610535e-07
2.498881e-05 -1.072577e-05 9.613470e-07
2.498881e-05 1.072577e-05 9.613470e-07
-2.758844e-05 2.606649e-19 -3.349009e-22
2.492314e-05 -3.639194e-06 8.950607e-07
2.492314e-05 3.639194e-06 8.950607e-07
-1.474616e-05 -2.280129e-05 9.995167e-07
1.723335e-05 -1.966299e-05 -1.365281e-06
-1.062023e-05 -2.270881e-05 7.371493e-07
4.714322e-06 -2.682098e-05 -9.205424e-07
-1.613781e-05 -1.997339e-05 1.254896e-06
9.019672e-06 2.574270e-05 -8.685929e-07
-2.674609e-05 5.206065e-06 -9.027606e-07
-6.872242e-06 2.412620e-05 -7.621455e-07
-2.757510e-05 -8.579968e-07 -3.349009e-22
1.241194e-05 -2.166142e-05 5.412172e-07
-1.501302e-05 -1.982148e-05 -1.769867e-07
9.998720e-06 2.276464e-05 1.644261e-07
1.585846e-05 -2.073819e-05 1.362547e-06
-1.425323e-05 2.153834e-05 -1.309430e-06
-1.847578e-05 1.788933e-05 1.271161e-06
-2.299862e-05 9.425056e-06 -5.666262e-08
-4.844489e-06 2.548839e-05 -1.339106e-06
2.693589e-05 4.132184e-06 -8.993966e-07
2.693589e-05 -4.132184e-06 -8.993966e-07
-2.753508e-05 -1.715163e-06 -3.349009e-22
8.526204e-06 2.369661e-05 8.908824e-07
3.387713e-06 2.565529e-05 -1.323588e-06
-2.714917e-05 2.518611e-06 -8.822333e-07
-2.574086e-05 2.644500e-06 1.323158e-06
-2.365191e-05 7.654747e-06 1.279067e-07
-3.066272e-06 2.571133e-05 1.327517e-06
-2.503277e-05 -1.076645e-05 -9.006852e-07
-2.407976e-05 -8.104278e-06 -1.098539e-06
-1.014780e-05 -2.379706e-05 1.321597e-06
7.358158e-06 -2.485638e-05 -1.334359e-06
-2.746841e-05 -2.570671e-06 -3.349009e-22
2.046243e-05 1.793496e-05 9.444972e-07
2.046243e-05 -1.793496e-05 9.444972e-07
1.735127e-05 -2.108620e-05 -8.303966e-07
-1.843490e-05 1.670888e-05 2.683446e-07
2.568764e-05 -9.144235e-06 8.811302e-07
2.568764e-05 9.144235e-06 8.811302e-07
-1.931636e-05 -1.723182e-05 1.325503e-06
-1.291036e-05 -2.134285e-05 4.880362e-07
-2.359641e-05 1.050773e-05 1.310290e-06
6.739138e-06 2.459428e-05 1.162273e-06
-2.737518e-05 -3.423691e-06 -3.349009e-22
-7.447220e-07 2.733440e-05 -7.794207e-07
1.690728e-05 -1.829603e-05 -3.943168e-07
1.689473e-05 1.831252e-05 -4.060936e-07
2.464787e-05 -3.210793e-06 -8.008260e-08
2.464787e-05 3.210793e-06 -8.008260e-08
-2.692738e-05 4.299630e-06 8.789734e-07
7.712124e-06 2.614332e-05 8.923623e-07
1.615075e-05 -2.194291e-05 9.052355e-07
-1.629813e-05 1.954156e-05 1.126456e-06
-2.616574e-05 7.721840e-06 8.634078e-07
-2.725546e-05 -4.273399e-06 -3.349009e-22
8.697748e-06 -2.453616e-05 -1.354221e-06
-2.930158e-06 2.468515e-05 1.130050e-07
-3.400583e-06 2.491411e-05 8.437145e-07
-2.602860e-05 6.868578e-06 -1.175457e-06
-2.468927e-05 -1.160308e-05 8.652226e-07
3.625328e-06 -2.495677e-05 9.299516e-07
-5.071177e-06 -2.440600e-05 4.423229e-07
4.627949e-06 -2.577538e-05 -1.366925e-06
-6.616157e-06 -2.648648e-05 8.395892e-07
1.974611e-05 -1.554769e-05 8.272901e-07
-2.710938e-05 -5.118973e-06 -3.349009e-22
1.974611e-05 1.554769e-05 8.272901e-07
-2.526946e-05 -2.594777e-06 -1.095092e-06
-1.444475e-05 -2.029943e-05 4.020066e-07
7.553126e-06 -2.627233e-05 7.908690e-07
2.341201e-05 1.398493e-05 -8.761296e-07
2.341201e-05 -1.398493e-05 -8.761296e-07
1.624192e-05 2.191301e-05 -8.699490e-07
-2.735533e-05 -4.692487e-07 -7.576246e-07
-1.207914e-05 2.446114e-05 8.638409e-07
2.625494e-05 8.848655e-07 1.366468e-06
-2.693706e-05 -5.959595e-06 -3.349009e-22
2.622393e-05 -8.644241e-07 1.367230e-06
-2.720108e-05 -1.898967e-06 8.804070e-07
-4.153003e-06 -2.697359e-05 8.508973e-07
-2.157668e-05 1.493609e-05 1.367178e-06
1.555009e-05 1.945495e-05 3.737242e-07
2.570410e-05 2.820981e-06 -1.318362e-06
2.570410e-05 -2.820981e-06 -1.318362e-06
-2.497070e-05 -6.910024e-06 -1.331276e-06
-1.030223e-05 2.414203e-05 1.367066e-06
-7.208622e-06 2.545876e-05 1.346369e-06
2.626456e-05 8.443643e-06 -3.349009e-22
-2.673869e-05 -6.794451e-06 -3.349009e-22
-1.508640e-06 2.643197e-05 1.343559e-06
1.450393e-05 -2.176937e-05 -1.365905e-06
-1.700829e-05 -2.131296e-05 8.799877e-07
-8.001976e-06 2.606707e-05 -8.799959e-07
6.174359e-06 -2.654744e-05 8.936492e-07
-2.436601e-06 2.702737e-05 -1.015277e-06
-1.674606e-05 1.929742e-05 -1.191514e-06
2.239475e-05 -1.569495e-05 -7.759210e-07
2.239475e-05 1.569495e-05 -7.759210e-07
-3.304832e-07 -2.727182e-05 8.725856e-07
-2.651445e-05 -7.622734e-06 -3.349009e-22
2.031411e-05 1.835104e-05 -7.326223e-07
2.035743e-05 -1.831261e-05 -7.223765e-07
-1.006740e-05 2.350604e-05 -1.203014e-06
3.039240e-06 -2.561752e-05 -1.299960e-06
2.607349e-05 4.412636e-06 1.349005e-06
2.607349e-05 -4.412636e-06 1.349005e-06
-2.099555e-05 1.462097e-05 -1.210296e-06
2.120215e-05 1.493412e-05 1.336800e-06
2.120215e-05 -1.493412e-05 1.336800e-06
-4.775236e-06 2.439076e-05 1.139296e-08
-2.626456e-05 -8.443643e-06 -3.349009e-22
2.836468e-06 2.500525e-05 -8.692167e-07
1.152448e-05 2.477019e-05 -8.138201e-07
2.256846e-05 1.301860e-05 1.357107e-06
2.256846e-05 -1.301860e-05 1.357107e-06
1.314288e-05 -2.300913e-05 1.338962e-06
-1.330138e-05 -2.379188e-05 8.917156e-07
1.445508e-07 2.495815e-05 5.249763e-07
-4.938020e-06 2.541219e-05 1.326020e-06
1.962651e-05 1.717233e-05 -1.359882e-06
1.962651e-05 -1.717233e-05 -1.359882e-06
-2.598926e-05 -9.256383e-06 -3.349009e-22
1.287733e-05 -2.253314e-05 -1.340832e-06
-2.325393e-05 -9.283546e-06 -6.864310e-07
5.588368e-06 2.426337e-05 3.473169e-07
-2.447127e-05 4.345736e-06 -3.218151e-08
-1.455381e-05 2.311618e-05 -8.188498e-07
-1.978922e-05 1.888679e-05 -7.633651e-07
-2.119480e-06 -2.485882e-05 -5.013782e-07
1.193480e-05 2.190515e-05 -4.922365e-07
-1.175948e-05 -2.309163e-05 1.332284e-06
-2.534598e-05 -5.280739e-06 -1.326705e-06
-2.568881e-05 -1.006017e-05 -3.349009e-22
-2.322572e-05 1.208285e-05 -1.366740e-06
9.865172e-06 -2.399258e-05 -1.338459e-06
-2.436801e-05 -6.282646e-06 -8.683430e-07
-2.441518e-05 -8.799328e-06 1.340683e-06
1.327996e-05 2.227590e-05 -1.336858e-06
2.032558e-05 -1.486720e-05 8.894280e-07
2.032558e-05 1.486720e-05 8.894280e-07
4.677536e-06 -2.444702e-05 -3.147070e-07
-2.449474e-05 1.208977e-05 -8.192499e-07
-1.844690e-05 1.858915e-05 -1.366951e-06
-2.536352e-05 -1.085422e-05 -3.349009e-22
-9.596951e-06 -2.553298e-05 8.687357e-07
1.123388e-05 2.258987e-05 9.409202e-07
1.546132e-05 -1.958245e-05 -5.050109e-07
-1.254324e-05 2.423428e-05 -8.552248e-07
1.313474e-05 2.395951e-05 -8.087672e-07
1.777089e-05 1.943781e-05 -1.362424e-06
-2.122133e-05 1.715609e-05 -8.542422e-07
2.424261e-05 -1.268654e-05 7.543732e-07
2.424261e-05 1.268654e-05 7.543732e-07
1.778689e-05 1.781706e-05 8.814448e-07
-2.501368e-05 -1.163777e-05 -3.349009e-22
1.778689e-05 -1.781706e-05 8.814448e-07
-1.301349e-05 -2.281743e-05 1.366547e-06
-2.306440e-05 1.219021e-05 1.360813e-06
-1.736655e-05 -1.966542e-05 1.367256e-06
3.852476e-06 -2.458968e-05 -3.111051e-07
-1.610510e-06 2.481106e-05 1.609560e-07
2.419963e-05 -9.173177e-06 -1.324080e-06
2.419963e-05 9.173177e-06 -1.324080e-06
6.346419e-06 2.434818e-05 -8.644425e-07
-1.917945e-05 1.948008e-05 7.898353e-07
-2.463965e-05 -1.241006e-05 -3.349009e-22
3.359562e-06 -2.713499e-05 -7.828233e-07
-2.398696e-05 1.297611e-05 8.749584e-07
-2.061015e-05 -1.787661e-05 8.616295e-07
1.228753e-05 2.320804e-05 -1.366779e-06
7.158055e-06 -2.490230e-05 1.331629e-06
-2.679166e-05 -5.363803e-06 -8.091682e-07
-2.356975e-05 8.447532e-06 6.852077e-07
-2.542047e-05 6.095654e-06 -1.364994e-06
-5.691676e-06 2.505966e-05 -1.263273e-06
2.627407e-05 9.299093e-07 -1.365574e-06
-2.424178e-05 -1.317035e-05 -3.349009e-22
2.626927e-05 -8.940672e-07 -1.365867e-06
1.421035e-05 2.042015e-05 -2.564472e-07
2.290565e-05 1.263186e-05 -1.365872e-06
2.290565e-05 -1.263186e-05 -1.365872e-06
2.549947e-05 -5.167204e-06 -1.352129e-06
2.549947e-05 5.167204e-06 -1.352129e-06
6.475571e-06 -2.399915e-05 1.000361e-07
8.022035e-06 -2.608181e-05 -8.556674e-07
1.391218e-05 2.353185e-05 -7.905726e-07
-1.817187e-05 -1.856341e-05 1.345413e-06
-2.382046e-05 -1.391790e-05 -3.349009e-22
-2.581092e-05 -2.473048e-06 1.335799e-06
-2.730297e-05 1.129092e-06 -8.050737e-07
-8.029324e-06 -2.609657e-05 8.350137e-07
-5.715971e-06 2.670359e-05 -8.289703e-07
1.440203e-05 2.322810e-05 7.991144e-07
1.098073e-05 -2.290477e-05 -1.094004e-06
-1.832183e-05 -2.023136e-05 8.468336e-07
-9.982432e-06 2.549032e-05 7.331619e-07
-2.490032e-05 7.928511e-06 -1.364437e-06
1.957993e-05 1.573242e-05 -8.070875e-07
2.598926e-05 9.256383e-06 -3.349009e-22
-2.337609e-05 -1.465198e-05 -3.349009e-22
1.957993e-05 -1.573242e-05 -8.070875e-07
1.602387e-05 -2.083292e-05 -1.365953e-06
-1.339001e-05 2.157476e-05 -1.087418e-06
-2.296750e-05 1.489835e-05 7.313780e-07
-2.433569e-05 -1.048969e-05 -1.338554e-06
1.740619e-05 -2.062676e-05 1.130939e-06
2.130428e-05 -1.310911e-05 -6.430609e-07
2.130428e-05 1.310911e-05 -6.430609e-07
-2.374342e-05 8.657353e-06 -9.847707e-07
-2.066544e-05 1.623008e-05 -1.366197e-06
-2.290911e-05 -1.537188e-05 -3.349009e-22
-2.471925e-05 5.480936e-06 1.028050e-06
-2.336198e-05 -1.142488e-05 -1.350305e-06
-5.017886e-06 2.688146e-05 7.776229e-07
-2.485041e-05 -5.198948e-07 7.545847e-08
-1.551377e-05 1.941738e-05 -9.996206e-09
-2.219904e-05 -1.216203e-05 -1.021605e-06
3.583152e-06 2.519618e-05 1.128948e-06
[...]
POINT_DATA 2480
VECTORS 10.000GHz_fone_imag double
8.063825e-05 7.550361e-06 1.758977e-02
-3.004203e-04 -1.292687e-04 1.755650e-02
1.032822e-04 1.164515e-05 1.750138e-02
-1.939220e-02 5.523129e-03 3.922090e-03
-1.938327e-02 -5.521571e-03 3.918361e-03
-8.496889e-03 4.090786e-04 -2.392784e-02
9.130235e-03 1.195049e-02 -1.914162e-02
9.356995e-03 -1.922172e-02 -2.331546e-03
2.672280e-03 -1.280853e-02 1.301015e-02
-1.122367e-02 -4.044819e-03 1.391189e-02
-6.455983e-03 -9.582500e-03 -2.244628e-02
-4.663404e-03 5.916259e-03 -2.427356e-02
-1.937896e-03 1.287996e-02 1.322527e-02
-3.457949e-05 1.855732e-04 1.738827e-02
-3.176177e-03 1.191734e-02 1.380370e-02
3.703769e-03 1.176810e-02 1.376068e-02
-1.646328e-03 1.239997e-02 1.365080e-02
8.400155e-03 9.098838e-03 1.353641e-02
1.946112e-02 -6.563393e-03 2.202464e-03
-8.211746e-04 -1.207217e-02 1.376378e-02
-1.177897e-02 -1.833780e-02 -4.070387e-03
3.894694e-03 -7.311572e-03 -2.448137e-02
-1.203944e-02 5.751065e-03 1.306265e-02
-1.202660e-02 -5.740608e-03 1.308681e-02
-5.317909e-05 3.846888e-05 1.752880e-02
-1.512219e-02 2.229834e-03 -1.921325e-02
-1.512292e-02 -2.225055e-03 -1.921095e-02
7.697467e-03 1.168071e-02 1.232164e-02
1.462819e-02 -1.569583e-02 -2.631988e-03
6.194191e-03 1.204214e-02 -2.101448e-02
2.193550e-03 -1.297953e-02 1.315433e-02
1.322130e-02 1.601182e-02 -9.693531e-03
4.085436e-03 1.159954e-02 1.469940e-02
-1.201047e-02 2.083132e-03 1.378033e-02
-4.024318e-03 1.312920e-02 -2.081540e-02
-1.772436e-04 -1.834535e-04 1.735603e-02
-5.341877e-03 8.412146e-03 -2.303575e-02
-1.897044e-03 -2.363127e-03 -2.536691e-02
-1.244057e-03 -2.266252e-03 -2.576788e-02
-1.312061e-02 1.728301e-02 -2.742506e-03
-1.185064e-02 1.780787e-02 -7.557256e-03
1.500346e-02 -1.421656e-02 -9.777519e-03
-7.809300e-04 -3.155120e-04 -2.573752e-02
-4.529181e-03 2.099936e-02 -5.491914e-03
1.323890e-02 2.090190e-03 1.314587e-02
1.323918e-02 -2.092339e-03 1.314455e-02
2.501256e-04 9.300098e-05 1.747544e-02
-5.185428e-03 -1.415254e-02 -1.972537e-02
3.260008e-03 2.106797e-02 -6.284702e-03
-1.240637e-02 7.556970e-04 1.364797e-02
2.140307e-02 -2.181560e-03 -6.762890e-03
2.714642e-03 -1.074863e-03 -2.570926e-02
2.315348e-03 -2.107531e-02 -6.438540e-03
-1.141145e-02 -4.802587e-03 1.353483e-02
-1.801496e-02 -5.664053e-03 -1.442728e-02
8.290362e-03 1.963142e-02 -6.966139e-03
6.266173e-03 -2.052975e-02 -6.055067e-03
-1.410989e-04 1.409028e-04 1.742465e-02
-9.759015e-03 -8.796613e-03 1.341222e-02
-1.000717e-02 8.984227e-03 1.323368e-02
7.559039e-03 -9.185314e-03 1.422351e-02
3.238666e-03 -3.146817e-03 -2.518724e-02
-1.123647e-02 4.016501e-03 1.397693e-02
-1.123644e-02 -4.016416e-03 1.397888e-02
1.560903e-02 1.448111e-02 -6.337251e-03
4.802704e-03 7.552656e-03 -2.434640e-02
1.959723e-02 -8.625007e-03 -6.959856e-03
-5.393879e-03 -1.825853e-02 -1.337284e-02
2.732406e-04 -6.751505e-04 1.723492e-02
-8.552161e-04 1.074265e-02 1.456695e-02
4.935458e-03 -5.257796e-03 -2.423920e-02
5.260117e-03 5.552985e-03 -2.417556e-02
8.604894e-04 1.535740e-04 -2.544778e-02
8.586955e-04 -1.518408e-04 -2.545653e-02
1.180971e-02 -1.947041e-03 1.376268e-02
-3.576770e-03 -1.238733e-02 1.314860e-02
-7.512279e-03 9.416158e-03 1.403100e-02
1.229119e-02 -1.487159e-02 -1.420481e-02
1.140677e-02 -2.986072e-03 1.391888e-02
3.196979e-04 3.608132e-04 1.747406e-02
7.440535e-03 -2.026848e-02 -4.023465e-03
4.311695e-04 -2.932901e-03 -2.535134e-02
1.927757e-03 -1.466258e-02 -1.938726e-02
-1.647321e-02 4.408775e-03 8.890240e-03
1.114889e-02 4.819116e-03 1.397863e-02
-2.331872e-03 1.610133e-02 -1.841305e-02
1.668703e-03 8.450732e-03 -2.443616e-02
3.824373e-03 -2.129848e-02 -1.040978e-03
2.775030e-03 1.095351e-02 1.402333e-02
-1.136918e-02 8.886133e-03 -2.022205e-02
-3.068282e-04 8.117337e-05 1.750750e-02
-1.117507e-02 -9.014479e-03 -2.014569e-02
-1.894170e-02 -2.008026e-03 -1.448357e-02
2.900195e-03 5.409271e-03 -2.423867e-02
-3.280894e-03 1.057168e-02 1.426135e-02
1.063548e-02 6.323296e-03 1.389955e-02
1.063358e-02 -6.329051e-03 1.390187e-02
7.073973e-03 9.509985e-03 1.399791e-02
-1.039082e-02 -4.255140e-04 1.471614e-02
5.830674e-03 -1.054174e-02 1.372831e-02
-2.116400e-02 -4.182533e-04 -3.126359e-04
-1.467339e-04 -4.061841e-05 1.750002e-02
-2.122659e-02 3.643039e-04 -7.053894e-04
1.214534e-02 9.659252e-04 1.388942e-02
1.775031e-03 1.175909e-02 1.389284e-02
1.776375e-02 -1.186353e-02 3.122497e-05
-3.973618e-03 -5.435684e-03 -2.445411e-02
2.097442e-02 2.010350e-03 -7.574155e-03
2.096934e-02 -2.012544e-03 -7.579880e-03
-2.072949e-02 -5.474775e-03 -5.713150e-03
8.679410e-03 -1.948138e-02 3.135327e-04
5.715738e-03 -1.966729e-02 3.100450e-03
3.387753e-05 -1.641921e-04 1.748395e-02
-2.326530e-04 1.359262e-04 1.747581e-02
1.221574e-03 -2.013562e-02 3.227488e-03
1.125599e-02 -1.816649e-02 -2.481498e-03
7.692434e-03 9.490627e-03 1.392574e-02
-3.449071e-03 1.157683e-02 1.377968e-02
-2.743629e-03 1.242127e-02 1.329110e-02
-1.022272e-03 1.419532e-02 1.258987e-02
-1.271341e-02 1.496264e-02 -1.281223e-02
9.093669e-03 -5.997452e-03 1.456091e-02
9.089677e-03 5.986208e-03 1.450244e-02
-3.149872e-04 1.223905e-02 1.369105e-02
-1.460844e-04 -4.627411e-04 1.736129e-02
7.249165e-03 6.944985e-03 1.505570e-02
7.329078e-03 -6.894313e-03 1.507190e-02
-8.448651e-03 1.840629e-02 -1.136659e-02
2.293162e-03 -2.104750e-02 -7.917361e-03
-2.009762e-02 -3.098299e-03 2.123796e-03
-2.009829e-02 3.101366e-03 2.122503e-03
-1.653379e-02 1.193638e-02 -1.127762e-02
-1.762576e-02 -1.232883e-02 -5.776067e-03
-1.759077e-02 1.235996e-02 -5.816897e-03
-6.209802e-05 -1.335675e-03 -2.580109e-02
-2.155150e-05 -4.846019e-05 1.762539e-02
2.053185e-03 1.500836e-02 -1.922231e-02
5.118728e-03 1.016267e-02 1.434256e-02
-1.852821e-02 -1.099792e-02 -3.685744e-03
-1.852245e-02 1.099152e-02 -3.684297e-03
-1.008893e-02 1.737786e-02 3.631016e-03
6.217581e-03 1.093427e-02 1.313892e-02
6.393066e-05 -9.674775e-03 -2.329386e-02
4.305836e-03 -2.091537e-02 -6.587510e-03
1.597061e-02 1.412858e-02 -2.660822e-03
1.622822e-02 -1.417025e-02 -3.336518e-03
-3.847715e-05 1.757631e-04 1.752828e-02
1.090872e-02 -1.868885e-02 -4.516938e-03
-1.110741e-02 -4.843366e-03 -2.169627e-02
-1.246969e-03 -5.840749e-03 -2.484570e-02
-5.518065e-04 2.904910e-04 -2.556154e-02
-6.355532e-03 9.660304e-03 1.422694e-02
-8.087342e-03 7.210867e-03 1.440671e-02
-9.962302e-04 -9.221090e-03 -2.387060e-02
4.545040e-03 8.251317e-03 -2.389541e-02
1.000787e-02 1.909812e-02 -4.843653e-03
-2.098614e-02 -4.153055e-03 -6.336249e-03
-2.882591e-04 -2.132400e-04 1.767026e-02
-1.913975e-02 9.975782e-03 -1.390061e-03
8.328274e-03 -2.010487e-02 -5.289201e-03
-1.487902e-02 -4.158916e-03 -1.891121e-02
2.032371e-02 6.902943e-03 -5.745102e-03
1.105568e-02 1.824600e-02 -5.471826e-03
-1.214701e-02 9.341826e-03 -1.900686e-02
-1.238358e-02 -8.902752e-03 -1.930441e-02
7.726883e-04 -5.608488e-03 -2.505021e-02
-1.045601e-02 4.717700e-03 1.400255e-02
-1.478537e-02 1.525311e-02 -1.009949e-03
-1.486063e-04 -1.148594e-04 1.757880e-02
4.384273e-03 1.138424e-02 1.373755e-02
-7.008487e-03 -1.474250e-02 -1.798318e-02
5.699729e-03 -7.257871e-03 -2.332872e-02
-5.081666e-03 1.067893e-02 1.383769e-02
5.172975e-03 9.589465e-03 1.468395e-02
1.430908e-02 1.500037e-02 1.627587e-03
-9.425670e-03 7.594532e-03 1.372892e-02
-9.696227e-03 4.348980e-03 1.459875e-02
-9.693210e-03 -4.353360e-03 1.459666e-02
-1.075851e-02 -1.010775e-02 -1.963399e-02
1.237157e-04 -6.658552e-05 1.772258e-02
-1.078963e-02 9.622855e-03 -1.979864e-02
1.024097e-02 1.797758e-02 5.928595e-04
1.880866e-02 -1.036249e-02 -3.407786e-03
1.383869e-02 1.596648e-02 -9.016645e-04
7.481546e-04 -6.181868e-03 -2.504080e-02
1.796186e-04 -3.104731e-03 -2.542706e-02
2.016347e-02 -7.609497e-03 -6.309182e-03
2.016258e-02 7.609527e-03 -6.310106e-03
3.772853e-03 1.474076e-02 -1.894229e-02
7.864809e-03 -7.663842e-03 1.463152e-02
-2.175277e-04 -3.147598e-04 1.795099e-02
1.549774e-03 -1.084146e-02 1.436920e-02
1.041565e-02 -5.293250e-03 1.385600e-02
9.067767e-03 7.836055e-03 1.366157e-02
9.859709e-03 1.861677e-02 -4.002681e-04
-6.288143e-03 2.017379e-02 -5.734602e-03
-1.096546e-02 -1.757846e-03 1.415545e-02
1.153903e-02 -4.262217e-03 -2.180567e-02
-2.082625e-02 5.093213e-03 -1.780160e-03
-4.856189e-03 2.051562e-02 -9.665164e-03
2.111420e-02 5.279899e-04 -2.865540e-04
6.329715e-04 -1.101070e-04 1.760465e-02
2.112586e-02 -6.445399e-04 -2.871105e-04
2.571039e-03 4.020844e-03 -2.531326e-02
1.885988e-02 1.025417e-02 -2.567166e-03
1.886430e-02 -1.025429e-02 -2.566852e-03
2.124174e-02 -4.167408e-03 -4.352903e-03
2.124270e-02 4.166183e-03 -4.351845e-03
-4.481666e-04 1.976834e-03 -2.564214e-02
3.421811e-03 -1.156228e-02 1.395395e-02
5.489888e-03 9.519754e-03 1.452127e-02
1.482366e-02 1.555862e-02 -4.937288e-03
5.517313e-05 2.136545e-04 1.771003e-02
2.148124e-02 2.105920e-03 -5.555489e-03
-1.124616e-02 5.617522e-04 1.463000e-02
3.293197e-03 1.081338e-02 1.415871e-02
-2.469951e-03 1.122684e-02 1.449716e-02
-5.775651e-03 -9.171185e-03 1.476830e-02
8.114947e-03 -1.709389e-02 -1.500759e-02
7.478086e-03 8.473527e-03 1.424334e-02
3.616320e-03 -9.267918e-03 1.473375e-02
-2.065946e-02 6.609025e-03 -1.815786e-03
1.070192e-02 8.949242e-03 -2.060630e-02
3.231267e-05 3.736160e-05 1.756906e-02
-1.327330e-04 -8.586903e-05 1.749015e-02
1.115437e-02 -8.749818e-03 -2.025026e-02
1.257573e-02 -1.682740e-02 2.674338e-04
-9.465364e-03 1.530374e-02 -1.548189e-02
8.317353e-03 -5.133015e-03 1.486233e-02
-1.861869e-02 -8.098805e-03 3.480564e-03
-1.058429e-02 1.256455e-02 1.041301e-02
9.793441e-03 -5.579342e-03 -2.224462e-02
9.801162e-03 5.597697e-03 -2.224092e-02
-1.618757e-02 5.783616e-03 -1.756659e-02
-1.671266e-02 1.302119e-02 8.828224e-05
3.391598e-04 -9.551058e-06 1.738476e-02
1.766109e-02 -3.620090e-03 -1.595953e-02
-1.901756e-02 -9.440688e-03 -4.727896e-03
2.053913e-03 -1.080282e-02 1.439995e-02
1.752870e-03 -8.195516e-05 -2.552028e-02
-3.546213e-04 5.422876e-04 -2.575348e-02
-1.554145e-02 -7.332572e-03 -1.637223e-02
-2.983657e-03 -1.953958e-02 -1.358154e-02
3.624960e-03 2.618838e-03 -2.508386e-02
1.683801e-02 -1.281559e-02 -1.216904e-03
1.698468e-02 1.279262e-02 -1.131546e-03
2.609148e-04 6.063580e-04 1.742889e-02
-2.472219e-03 8.714903e-03 -2.380725e-02
2.127366e-02 -3.197249e-03 -2.664272e-04
2.127522e-02 3.195782e-03 -2.658874e-04
6.006495e-03 1.850653e-03 -2.521763e-02
8.367012e-03 5.264338e-03 -2.311639e-02
4.652055e-04 1.028336e-02 1.477353e-02
1.314542e-02 1.677478e-02 -2.580034e-03
5.633890e-03 -3.540981e-03 -2.479088e-02
-1.208690e-02 -8.059325e-04 -2.170786e-02
-1.239650e-02 8.496222e-04 -2.150675e-02
-7.198003e-06 5.099103e-06 1.743682e-02
-4.023720e-03 1.006491e-02 1.452508e-02
8.901727e-03 7.398562e-03 1.393895e-02
1.295203e-03 -1.449750e-03 -2.548801e-02
1.190544e-03 1.384746e-03 -2.551452e-02
2.513491e-03 -1.061196e-02 1.449838e-02
1.041882e-02 1.746219e-03 1.459511e-02
-7.917417e-04 -1.005995e-02 1.470294e-02
9.806209e-03 -5.041264e-03 1.452763e-02
9.811751e-03 5.045781e-03 1.452281e-02
1.843290e-02 1.003622e-02 2.276548e-04
6.147965e-04 1.090981e-04 1.745123e-02
-4.467665e-03 9.643154e-03 1.458117e-02
-4.972804e-03 9.350169e-03 1.467766e-02
4.438352e-03 1.083921e-02 1.408617e-02
-3.594716e-03 1.023613e-02 1.453150e-02
-1.051961e-02 -1.857811e-02 -2.171662e-03
2.301455e-03 -6.780159e-03 -2.460864e-02
1.849027e-02 1.044807e-02 -4.533880e-03
-8.294098e-03 -7.047804e-03 1.450082e-02
-8.002524e-03 7.357430e-03 1.455425e-02
-2.117648e-03 9.284705e-03 -2.355680e-02
2.170237e-04 6.973570e-04 1.743804e-02
4.216680e-03 -1.029949e-02 1.432113e-02
2.103601e-02 5.260373e-03 -3.864876e-03
6.587191e-03 -9.865548e-03 1.408651e-02
3.710807e-03 -5.861387e-03 -2.466510e-02
-7.979920e-03 1.876268e-02 3.155347e-03
-1.456454e-02 9.132250e-03 8.859002e-03
-1.659252e-02 1.201337e-02 2.680749e-03
-1.403776e-02 -2.655758e-04 -2.090200e-02
1.760297e-02 1.213626e-02 -4.164501e-03
2.602765e-03 1.349158e-03 -2.558276e-02
-3.751613e-05 6.641711e-07 1.749164e-02
2.603540e-03 -1.349040e-03 -2.558268e-02
9.542485e-03 -3.719575e-03 1.491786e-02
1.126160e-02 -1.042437e-03 1.436753e-02
-5.996439e-03 1.618866e-02 9.029294e-03
5.652120e-03 -8.577569e-03 1.484143e-02
1.667037e-03 -2.093316e-02 -8.010221e-03
-1.067745e-02 1.369481e-02 8.765648e-03
1.727730e-02 1.082949e-02 2.113857e-03
4.042638e-03 3.635212e-03 -2.486571e-02
-1.572948e-02 -9.745654e-03 -1.553141e-02
8.038750e-04 1.619444e-04 1.738586e-02
-1.571299e-02 9.749474e-03 -1.551512e-02
-4.878398e-03 2.035312e-02 3.576706e-04
-1.032768e-02 -6.609994e-04 1.482360e-02
-1.287686e-02 -1.752095e-02 -4.306867e-03
8.568261e-03 5.317500e-03 1.474106e-02
8.697977e-03 -1.967876e-02 -5.665172e-03
1.634574e-03 2.713194e-03 -2.526381e-02
-1.576652e-03 -9.329501e-03 1.530289e-02
1.730169e-02 -1.280372e-02 -5.796856e-03
1.328051e-02 -6.545650e-03 -1.969595e-02
-3.750670e-04 4.692660e-04 1.741038e-02
-2.117863e-02 2.787701e-03 -7.979264e-04
8.844015e-03 1.244869e-02 -1.907689e-02
-5.632780e-03 9.483628e-03 1.469231e-02
6.801593e-03 -7.848090e-03 1.476117e-02
-2.077104e-02 4.136837e-04 1.230921e-03
1.956562e-02 8.538277e-03 -1.036205e-03
9.351832e-03 9.791136e-03 -2.040487e-02
9.605550e-03 -9.602537e-03 -2.045437e-02
4.345274e-03 1.509246e-02 -1.930113e-02
1.819671e-02 -8.421752e-03 3.762241e-03
-9.094706e-05 -1.863872e-04 1.750920e-02
-3.893909e-03 -2.064935e-02 4.639231e-04
-2.096325e-02 -3.518648e-03 -2.037073e-03
6.093577e-05 1.596318e-03 -2.561714e-02
-3.063010e-03 2.146720e-02 -3.297127e-03
-2.180085e-03 -2.753168e-03 -2.538835e-02
-2.014662e-02 1.609684e-03 3.834410e-03
-2.016020e-02 -1.617888e-03 3.825730e-03
-9.455324e-04 2.099853e-03 -2.532975e-02
1.240317e-02 1.740691e-02 -1.992401e-03
-1.082121e-02 -2.943754e-03 1.434481e-02
7.387462e-05 3.326922e-05 1.771882e-02
3.363311e-04 -1.359628e-05 1.733571e-02
2.123550e-02 3.522607e-03 -2.953685e-03
3.150658e-03 -1.463310e-02 -1.946645e-02
-1.678998e-02 -1.009519e-03 -1.766447e-02
1.576182e-03 3.848341e-03 -2.506614e-02
-9.330341e-03 -4.533794e-03 1.514511e-02
-8.848928e-03 4.187705e-03 -2.337700e-02
-1.390798e-03 9.426404e-03 1.548499e-02
8.090347e-04 1.096982e-02 1.432607e-02
7.949758e-04 -1.081401e-02 1.454583e-02
1.912421e-02 -7.282925e-03 1.701318e-03
1.302496e-04 2.325389e-04 1.751092e-02
7.981075e-03 -5.882468e-03 1.486281e-02
-1.560316e-02 4.394917e-03 -1.869229e-02
-7.816599e-03 -1.990912e-02 -3.275699e-03
1.545950e-02 3.469585e-03 -1.847661e-02
1.545965e-02 -3.470617e-03 -1.847559e-02
1.555477e-02 -1.360575e-02 2.331042e-03
-9.483798e-03 1.085291e-02 -2.004012e-02
1.036533e-02 3.738026e-03 1.447837e-02
-3.005929e-03 6.923254e-03 -2.419603e-02
-7.472240e-05 -1.171208e-02 -2.222332e-02
-7.327634e-05 -1.685176e-05 1.757793e-02
-1.237521e-03 -2.135623e-02 -1.801123e-03
-9.944585e-03 -1.626740e-03 1.481850e-02
6.355783e-03 1.740136e-03 -2.487577e-02
6.358984e-03 -1.740275e-03 -2.487549e-02
1.067428e-02 -7.807105e-04 1.473158e-02
-1.828292e-03 -2.065300e-02 2.614902e-03
-7.842271e-04 -1.085632e-02 1.458837e-02
-5.128068e-03 2.030811e-02 1.743178e-03
-1.420371e-02 1.511637e-02 1.540077e-03
5.778165e-03 8.824165e-03 1.474376e-02
9.571212e-04 -8.766912e-05 1.725672e-02
4.764474e-04 2.143791e-02 -1.394252e-03
1.894573e-02 9.366381e-03 -1.361553e-03
1.894968e-02 -9.366330e-03 -1.362329e-03
2.894892e-03 -2.673284e-04 -2.543699e-02
1.510380e-02 -1.518347e-03 -1.926074e-02
2.927004e-03 2.580487e-04 -2.545003e-02
1.509580e-02 1.498473e-03 -1.926357e-02
7.891762e-04 -2.111461e-02 -2.459815e-04
-9.740048e-03 1.924161e-02 8.617335e-04
9.225396e-03 -6.603168e-03 -2.264502e-02
2.306118e-04 1.127849e-03 1.748699e-02
-1.076326e-02 7.830799e-03 -2.151784e-02
8.561568e-03 -7.648386e-03 1.403990e-02
4.325015e-03 -1.040174e-02 -2.270059e-02
-1.910223e-02 9.721925e-03 -7.010151e-03
-1.910376e-02 -9.723361e-03 -7.012686e-03
-8.356650e-03 -5.056868e-03 1.510766e-02
4.243654e-03 -8.668264e-03 -2.368212e-02
9.446393e-03 1.908540e-02 -9.264788e-04
-2.294516e-03 1.507301e-03 -2.543353e-02
-8.972766e-03 1.951191e-02 -3.413442e-03
-1.965577e-05 6.015005e-05 1.754455e-02
-9.420430e-03 1.938420e-02 -3.235272e-03
-5.087928e-03 1.261089e-02 -2.083392e-02
6.236906e-03 -7.575955e-03 1.523263e-02
1.793558e-02 8.914881e-03 -1.075302e-02
-1.485552e-03 1.958497e-02 -1.339904e-02
1.001111e-02 1.416705e-03 1.505224e-02
1.001272e-02 -1.419661e-03 1.504996e-02
-2.274198e-03 1.758509e-03 -2.560707e-02
-1.138848e-04 -2.003978e-03 -2.579795e-02
9.437056e-03 1.946724e-03 -2.321311e-02
8.511386e-04 3.039767e-04 1.750939e-02
9.437070e-03 -1.946900e-03 -2.321025e-02
8.892732e-03 7.256999e-03 1.415841e-02
8.922166e-03 -7.492148e-03 1.411171e-02
-1.451893e-02 2.686870e-03 -1.984258e-02
-1.452484e-02 -2.686448e-03 -1.983360e-02
8.089348e-04 2.130585e-02 -3.640017e-03
-3.226197e-03 -1.202825e-02 -2.147633e-02
-9.783889e-05 -1.024664e-02 1.484929e-02
2.866507e-03 2.074468e-02 -7.255820e-03
8.672958e-04 -2.592246e-06 -2.559344e-02
2.932215e-04 6.985162e-04 1.763304e-02
-1.757685e-02 -4.606845e-03 7.280470e-03
-1.757037e-02 4.614225e-03 7.313904e-03
2.146006e-02 -1.588375e-03 -6.022542e-03
3.918142e-03 -1.012700e-02 1.449848e-02
-1.538735e-02 -1.392962e-02 -9.998757e-03
1.605739e-02 -1.274882e-02 2.673844e-03
5.591066e-03 1.854588e-02 4.629934e-03
8.456832e-03 3.516064e-04 -2.384248e-02
8.321990e-03 -1.385609e-04 -2.390765e-02
-1.773002e-02 -1.159382e-02 4.753958e-04
-1.866944e-04 1.915020e-04 1.803816e-02
-1.770865e-02 1.157651e-02 4.604134e-04
-8.901759e-03 -1.141065e-02 -1.998572e-02
-1.611120e-02 -1.359500e-02 4.130273e-04
-1.642510e-02 1.331342e-02 3.494326e-04
1.379525e-03 2.080423e-02 1.523605e-03
1.262636e-02 -1.714122e-02 6.999532e-04
4.026061e-03 2.015340e-02 1.765478e-03
1.096800e-02 1.633639e-02 -1.213740e-02
1.417770e-02 -1.538719e-02 -8.068100e-03
2.020134e-02 1.015612e-03 -1.185209e-02
-5.097576e-05 1.119784e-05 1.766259e-02
-1.555588e-02 -1.447463e-02 -4.405558e-04
-1.562037e-02 1.471666e-02 5.586312e-05
7.569190e-03 -7.013497e-03 1.466893e-02
7.678107e-03 4.093479e-03 -2.435579e-02
1.216768e-02 -1.283412e-02 -1.655013e-02
1.409264e-02 1.550643e-02 -7.748942e-03
-6.094200e-04 -2.139300e-02 -2.490995e-03
2.494186e-03 -1.458421e-02 -1.946288e-02
-5.738558e-03 8.106003e-03 1.527442e-02
1.280931e-02 -5.074390e-03 -2.061681e-02
-1.949514e-04 -3.921583e-04 1.758114e-02
-7.661228e-05 -8.512600e-05 1.764425e-02
-5.709008e-03 1.869627e-02 4.732525e-03
-1.581934e-02 1.168068e-02 4.142992e-03
-1.594947e-02 -1.164793e-02 4.295973e-03
-8.782311e-03 -5.080300e-03 1.543799e-02
-8.579551e-03 4.768329e-03 1.511469e-02
-8.829247e-03 3.026493e-03 1.559566e-02
1.060172e-02 2.914249e-03 1.456723e-02
4.871731e-03 -9.549123e-03 1.449159e-02
1.243347e-02 -1.705534e-02 -7.163539e-03
2.097508e-02 -4.262429e-03 -2.403643e-03
1.997287e-04 9.292382e-05 1.765654e-02
-3.065515e-04 9.565149e-03 -2.344759e-02
2.127596e-02 -3.638323e-03 -2.322914e-03
5.362994e-04 -1.553075e-02 -1.864772e-02
2.041751e-02 -5.702814e-03 8.950322e-04
2.041875e-02 5.702526e-03 8.940397e-04
1.814653e-03 1.722272e-02 -1.725273e-02
9.646839e-03 3.934158e-03 1.499526e-02
9.646636e-03 -3.935027e-03 1.499527e-02
-2.992883e-03 -2.638661e-03 -2.534868e-02
4.689293e-03 -1.977605e-02 3.229295e-03
1.321575e-04 1.930453e-04 1.749758e-02
6.479830e-03 8.158397e-05 -2.469915e-02
-9.687377e-03 3.752768e-03 1.465001e-02
-6.712247e-03 -2.030911e-02 5.815375e-04
1.820555e-02 6.181179e-03 -1.358494e-02
1.425549e-03 -8.833908e-04 -2.558841e-02
1.845923e-02 3.178551e-03 6.225131e-03
1.838500e-02 -8.459688e-03 3.270996e-03
1.838325e-02 8.459311e-03 3.270182e-03
6.760635e-03 6.790345e-03 1.510215e-02
-7.425748e-03 3.970670e-03 -2.412050e-02
2.951304e-04 2.925348e-04 1.745807e-02
-7.428481e-03 -3.966006e-03 -2.412176e-02
4.481249e-03 -2.119416e-02 -3.369709e-03
-1.161475e-03 2.158013e-04 -2.557855e-02
1.011176e-02 1.804720e-02 -9.832926e-03
8.544063e-03 4.874069e-03 1.514085e-02
8.960630e-04 1.036191e-02 1.485313e-02
-5.137298e-03 9.838541e-03 -2.214044e-02
-1.739631e-02 -1.189057e-02 1.078711e-04
2.350726e-03 -5.452560e-03 -2.461526e-02
9.869463e-03 -4.548338e-03 1.439919e-02
2.624450e-04 3.613974e-04 1.727402e-02
9.872016e-03 4.548959e-03 1.439700e-02
5.733209e-03 1.940116e-02 4.541358e-03