# vtk DataFile Version 2.0
Electric current density generated by TTH
ASCII
DATASET UNSTRUCTURED_GRID
POINTS 6849 double
3.770201e-05 -9.234329e-21 -1.707121e-22
3.749624e-05 3.933675e-06 -1.707121e-22
1.540809e-05 3.440977e-05 -1.707121e-22
2.944193e-05 -2.242076e-05 -6.969821e-07
-1.358755e-05 -3.454349e-05 6.874819e-07
-1.458610e-05 -3.378461e-05 6.657873e-07
-1.195784e-05 -3.512890e-05 6.892833e-07
1.917517e-05 3.177569e-05 6.885567e-07
3.317652e-05 -1.670928e-05 -6.824226e-07
-6.974363e-06 -3.651481e-05 6.759664e-07
1.233320e-05 -3.415981e-05 -1.176497e-07
3.649060e-05 -3.167566e-06 5.860925e-07
3.649060e-05 3.167566e-06 5.860925e-07
1.500742e-05 3.458640e-05 -1.707121e-22
-3.540060e-05 -8.213724e-06 -2.117665e-07
-3.557869e-05 -7.402298e-06 2.104397e-07
-3.423836e-05 1.215469e-05 -1.805375e-07
-3.399823e-05 1.285952e-05 2.353034e-07
-6.247021e-06 3.579077e-05 -1.806790e-07
-5.429277e-06 3.593271e-05 2.104397e-07
-2.926140e-05 -2.153543e-05 -1.806790e-07
-2.975274e-05 -2.086652e-05 2.104397e-07
-3.359591e-05 -1.383173e-05 -1.805375e-07
-3.388815e-05 -1.314687e-05 2.353034e-07
1.460473e-05 3.475836e-05 -1.707121e-22
-2.769093e-05 2.352057e-05 -1.806790e-07
-2.822752e-05 2.288766e-05 2.104744e-07
-3.626332e-05 -2.374710e-06 -2.117665e-07
-3.630770e-05 -1.545158e-06 2.104397e-07
-1.066228e-05 3.472773e-05 -1.642608e-07
-1.835983e-05 -3.135023e-05 -1.763099e-07
3.380286e-05 -1.531664e-05 -6.888680e-07
-2.794124e-05 2.450979e-05 6.777207e-07
-6.973024e-06 3.650780e-05 6.777207e-07
-2.957999e-05 -2.250482e-05 6.777207e-07
1.420007e-05 3.492563e-05 -1.707121e-22
-3.606778e-05 -8.975406e-06 6.777207e-07
-3.704500e-05 -3.018343e-06 6.777207e-07
2.056984e-05 3.094133e-05 -6.806875e-07
-7.824483e-06 -3.572270e-05 5.442178e-07
3.185174e-05 -1.916590e-05 -6.763290e-07
3.093184e-05 -2.055452e-05 -6.840878e-07
3.106479e-05 -1.879703e-05 3.811660e-08
3.021385e-05 -2.176863e-05 6.565044e-07
1.629563e-05 3.249688e-05 -2.482325e-07
4.144532e-06 -3.664452e-05 6.853399e-07
1.379350e-05 3.508819e-05 -1.707121e-22
2.986303e-07 -3.687710e-05 6.853688e-07
3.109161e-05 1.875372e-05 4.716312e-08
1.298830e-05 -3.480895e-05 6.810572e-07
2.516689e-06 3.707684e-05 -6.790427e-07
-2.903665e-05 -2.319883e-05 -6.781358e-07
-2.735090e-05 2.516429e-05 -6.781358e-07
-3.680817e-05 5.145081e-06 -6.781358e-07
-7.904322e-06 3.631899e-05 -6.773792e-07
-9.460943e-06 3.593767e-05 -6.790428e-07
-2.521701e-05 2.730230e-05 -6.781358e-07
1.338506e-05 3.524602e-05 -1.707121e-22
-3.550970e-05 1.105301e-05 -6.719471e-07
-2.705680e-05 -2.548024e-05 -6.781358e-07
-2.046468e-05 3.102434e-05 -6.781358e-07
-3.377945e-05 -1.550039e-05 -6.781358e-07
-2.291654e-05 2.925996e-05 -6.781358e-07
-3.596313e-05 9.362401e-06 -6.791188e-07
4.113553e-06 3.694085e-05 -6.773791e-07
-1.101662e-05 -3.495418e-05 5.992871e-07
3.452916e-05 -1.371913e-05 -6.807080e-07
3.457423e-05 1.367665e-05 -6.743991e-07
1.297482e-05 3.539909e-05 -1.707121e-22
3.383174e-05 1.526734e-05 -6.879174e-07
2.829135e-05 -2.392772e-05 6.953211e-07
3.662111e-05 2.032049e-06 -6.152048e-07
3.662111e-05 -2.032049e-06 -6.152048e-07
-9.498954e-06 -3.593707e-05 6.768678e-07
1.899007e-05 3.094889e-05 -5.920553e-08
-2.190391e-05 -3.003796e-05 6.756719e-07
-3.361397e-05 1.587957e-05 6.756719e-07
-1.440100e-05 3.427348e-05 6.756719e-07
2.945690e-05 2.267606e-05 -6.761707e-07
1.256283e-05 3.554739e-05 -1.707121e-22
2.145158e-05 3.023127e-05 -6.940557e-07
3.387784e-05 1.439816e-05 -6.692989e-07
2.693503e-05 2.563730e-05 -6.731934e-07
3.389566e-05 -1.434560e-05 -6.680875e-07
-1.834824e-06 -3.714240e-05 6.726209e-07
5.913400e-06 -3.671454e-05 6.726174e-07
2.050479e-06 -3.713114e-05 6.726173e-07
4.631174e-06 3.690076e-05 6.719267e-07
2.912530e-06 3.707601e-05 6.719267e-07
-1.403433e-06 3.716375e-05 6.719261e-07
1.214914e-05 3.569089e-05 -1.707121e-22
-1.790518e-05 -3.259629e-05 6.719261e-07
-1.871384e-05 -3.210007e-05 6.802757e-07
-2.524674e-05 -2.730780e-05 6.719261e-07
-3.264814e-05 -1.781046e-05 6.719261e-07
-3.655806e-05 6.836343e-06 6.715030e-07
-2.740168e-05 -2.513890e-05 6.730167e-07
-2.087887e-05 3.077156e-05 6.730167e-07
-2.184864e-05 3.009475e-05 6.721365e-07
-9.085582e-06 3.606336e-05 6.719261e-07
-3.588159e-05 9.784617e-06 6.715046e-07
1.173382e-05 3.582958e-05 -1.707121e-22
-3.687213e-05 4.739577e-06 6.758164e-07
-2.425569e-05 2.819377e-05 6.715046e-07
-3.398667e-05 -1.510032e-05 6.719261e-07
-3.322270e-05 -1.672098e-05 6.710839e-07
-3.706740e-05 3.020168e-06 6.719261e-07
-2.556219e-05 2.701274e-05 6.719261e-07
-2.818960e-05 -2.425702e-05 6.721365e-07
-3.537668e-05 1.147187e-05 6.719261e-07
-1.828253e-05 3.238615e-05 6.719261e-07
-2.613927e-05 -2.645898e-05 6.710839e-07
3.744802e-05 4.368882e-06 -1.707121e-22
1.131691e-05 3.596344e-05 -1.707121e-22
-2.328409e-05 2.899939e-05 6.719261e-07
-1.934649e-05 3.176559e-05 6.710839e-07
-2.643222e-05 2.616093e-05 6.721365e-07
-3.619145e-05 8.561092e-06 6.719261e-07
7.558223e-07 3.718256e-05 6.719261e-07
6.764995e-06 3.656978e-05 6.719258e-07
1.839555e-05 3.220384e-05 6.920871e-07
3.179268e-05 1.917291e-05 -6.863218e-07
3.597049e-05 -5.016446e-06 -1.208565e-07
3.597049e-05 5.016446e-06 -1.208565e-07
1.089848e-05 3.609245e-05 -1.707121e-22
1.537978e-05 -3.381867e-05 -6.814022e-07
-1.213537e-05 -3.514639e-05 -6.740189e-07
3.566109e-05 -6.881055e-06 -1.225232e-07
3.566109e-05 6.881055e-06 -1.225232e-07
3.694365e-05 4.595502e-06 -6.602282e-07
3.639483e-05 7.846737e-06 -6.593022e-07
3.694365e-05 -4.595502e-06 -6.602282e-07
3.639483e-05 -7.846737e-06 -6.593022e-07
3.460043e-05 1.368275e-05 6.668878e-07
3.460034e-05 -1.368285e-05 6.669040e-07
1.047857e-05 3.621659e-05 -1.707121e-22
-3.026457e-05 2.006507e-05 -7.286256e-08
-2.987425e-05 2.071288e-05 2.445900e-07
-1.073176e-05 3.554033e-05 6.865345e-07
2.909963e-05 2.225551e-05 5.904191e-07
2.765367e-05 -2.378708e-05 -4.546215e-07
-8.616717e-06 -3.602797e-05 6.958907e-07
8.441314e-06 3.615337e-05 6.864482e-07
2.174286e-05 -3.018374e-05 -6.692757e-07
2.803904e-05 2.425657e-05 6.934450e-07
-3.224941e-05 1.674907e-05 2.068853e-07
1.005726e-05 3.633584e-05 -1.707121e-22
2.311349e-05 2.917447e-05 6.627646e-07
3.773474e-06 -3.703116e-05 -6.620505e-07
7.593049e-06 -3.643820e-05 -6.627061e-07
-1.343776e-07 -3.722069e-05 -6.626999e-07
-9.999895e-06 3.586956e-05 6.571100e-07
7.689826e-06 3.643478e-05 6.570947e-07
3.053090e-05 -2.132663e-05 -6.554882e-07
1.379941e-05 -3.460579e-05 6.503598e-07
1.097030e-05 -3.560332e-05 -6.505701e-07
2.572913e-05 -2.693105e-05 6.539763e-07
9.634582e-06 3.645019e-05 -1.707121e-22
2.575586e-05 2.690275e-05 6.547045e-07
2.314877e-05 -2.917630e-05 6.547045e-07
-4.423216e-06 -3.698055e-05 -6.546860e-07
-3.445100e-06 -3.696517e-05 -6.865186e-07
-2.186426e-05 -2.899457e-05 -9.349626e-08
-2.251732e-05 -2.856698e-05 2.969675e-07
-2.319968e-05 -2.796433e-05 -1.918180e-07
-3.461608e-05 -1.097513e-05 -9.298287e-08
-3.443177e-05 -1.172708e-05 2.960668e-07
-3.307949e-05 1.498260e-05 -9.349626e-08
9.210608e-06 3.655963e-05 -1.707121e-22
-3.344273e-05 1.431859e-05 3.065873e-07
-1.460260e-05 3.324899e-05 -9.349626e-08
-1.533655e-05 3.298321e-05 2.969675e-07
-1.613931e-05 3.255382e-05 -1.918180e-07
1.680808e-06 3.720316e-05 6.557848e-07
-3.680846e-05 5.660158e-06 6.557848e-07
-3.211739e-06 3.617358e-05 -1.042207e-07
-4.109611e-06 3.613040e-05 2.721487e-07
-3.095615e-05 -1.898841e-05 -1.042207e-07
-3.051755e-05 -1.977305e-05 2.721487e-07
8.785392e-06 3.666413e-05 -1.707121e-22
-3.630941e-05 6.854220e-07 -1.042207e-07
-3.636275e-05 -2.119032e-07 2.721487e-07
-3.594145e-05 -5.201414e-06 -1.042207e-07
-3.584884e-05 -6.095539e-06 2.721487e-07
1.023399e-05 -3.487756e-05 2.326742e-07
2.296207e-05 -2.817344e-05 -2.255795e-07
3.633075e-05 6.223051e-06 -6.817026e-07
3.632201e-05 -6.232112e-06 -6.801546e-07
3.740508e-05 -9.199486e-07 -5.626400e-07
3.740508e-05 9.199486e-07 -5.626400e-07
8.358991e-06 3.676369e-05 -1.707121e-22
3.417316e-05 1.226966e-05 3.810608e-08
3.417316e-05 -1.226966e-05 3.810608e-08
-1.682605e-05 3.217399e-05 1.213852e-08
-2.378054e-05 -2.743661e-05 1.213852e-08
1.223535e-05 3.502691e-05 6.901494e-07
2.091061e-05 -3.004153e-05 5.690398e-07
2.224043e-05 2.981130e-05 -6.710425e-07
1.573415e-05 3.370237e-05 -6.708034e-07
1.295658e-05 -3.432412e-05 -6.207744e-07
2.372158e-05 2.811235e-05 -6.608064e-07
7.931463e-06 3.685829e-05 -1.707121e-22
2.460433e-05 2.719117e-05 -6.115103e-07
1.796523e-05 -3.251898e-05 -6.814216e-07
1.883011e-05 -3.106246e-05 -1.493502e-07
8.688809e-06 -3.539713e-05 -4.188622e-07
2.432161e-05 -2.715110e-05 4.237467e-07
1.007521e-05 3.579184e-05 -6.739147e-07
-3.501689e-06 3.701900e-05 -6.735477e-07
-2.125094e-05 -3.051337e-05 -6.735477e-07
-2.008102e-05 -3.129570e-05 -6.735477e-07
-3.158392e-05 -1.962459e-05 -6.735477e-07
7.502865e-06 3.694792e-05 -1.707121e-22
-2.254394e-05 -2.956614e-05 -6.745472e-07
-3.081866e-05 -2.080574e-05 -6.735477e-07
-2.365870e-05 -2.868683e-05 -6.735477e-07
-3.261606e-05 1.785669e-05 -6.735477e-07
-3.326843e-05 1.660963e-05 -6.735477e-07
-1.233754e-05 3.507782e-05 -6.735477e-07
-1.365613e-05 3.458582e-05 -6.735477e-07
-3.653372e-05 -6.925019e-06 -6.735477e-07
-3.493082e-05 -1.274779e-05 -6.735477e-07
-3.450740e-05 1.385309e-05 -6.735477e-07
3.739476e-05 4.803500e-06 -1.707121e-22
7.073254e-06 3.703256e-05 -1.707121e-22
-3.180020e-05 1.930122e-05 -6.693532e-07
-1.641969e-05 3.336259e-05 -6.735477e-07
-3.105821e-05 2.044641e-05 -6.735477e-07
-3.717288e-05 -9.195723e-07 -6.735477e-07
-1.513246e-05 3.396166e-05 -6.745472e-07
-2.929521e-05 2.290108e-05 -6.735477e-07
-3.394989e-05 1.515886e-05 -6.745472e-07
-3.012321e-05 2.179750e-05 -6.740088e-07
-3.538821e-05 -1.141679e-05 -6.735477e-07
-3.718105e-05 4.877935e-07 -6.735477e-07
6.642690e-06 3.711221e-05 -1.707121e-22
-3.676961e-05 -5.537538e-06 -6.735477e-07
-4.900065e-06 3.685998e-05 -6.735477e-07
1.925415e-05 -3.181315e-05 -6.730796e-07
5.897162e-06 -3.639090e-05 -6.829014e-07
2.068104e-06 -3.680758e-05 -6.829042e-07
1.140845e-05 3.539934e-05 -6.713580e-07
1.823760e-05 -3.141578e-05 1.561850e-07
[...]
POINT_DATA 6849
VECTORS 10.000GHz_fone_imag double
2.096936e-04 2.425797e-04 2.032070e-02
5.963497e-05 -1.763954e-04 2.017321e-02
-3.212991e-04 2.271997e-04 2.041178e-02
1.738610e-02 -1.326669e-02 -7.847434e-04
7.914007e-03 1.975634e-02 3.511832e-03
8.110396e-03 1.946980e-02 -7.248269e-03
6.790054e-03 2.020073e-02 2.727319e-03
-1.112967e-02 -1.838339e-02 3.078717e-03
1.915111e-02 -9.429427e-03 3.875734e-03
3.916860e-03 2.042534e-02 5.009133e-03
1.562629e-03 -3.987777e-03 -2.309975e-02
-1.856329e-02 1.638276e-03 -1.269277e-02
-1.857534e-02 -1.639796e-03 -1.269659e-02
1.128531e-04 -4.885533e-04 2.014372e-02
-7.169019e-03 -1.439746e-03 -2.214748e-02
7.165924e-03 1.453480e-03 -2.264746e-02
-5.998112e-03 2.290726e-03 -2.282739e-02
7.872084e-03 -2.940139e-03 -2.215063e-02
-9.309051e-04 6.332920e-03 -2.269724e-02
1.127539e-03 -7.408912e-03 -2.251460e-02
-5.358079e-03 -3.754933e-03 -2.272754e-02
6.169823e-03 4.326507e-03 -2.247165e-02
-5.885258e-03 -2.167721e-03 -2.286412e-02
7.758154e-03 2.993503e-03 -2.215382e-02
2.434512e-04 7.325981e-05 2.027842e-02
-5.032032e-03 4.064758e-03 -2.276685e-02
5.759183e-03 -4.685609e-03 -2.253961e-02
-7.352232e-03 -3.064151e-04 -2.222657e-02
7.311440e-03 2.786022e-04 -2.265607e-02
-1.864854e-03 5.729415e-03 -2.273645e-02
-3.092567e-03 -5.337948e-03 -2.250784e-02
1.945523e-02 -8.717024e-03 3.009561e-03
1.588482e-02 -1.361021e-02 4.617537e-03
3.939643e-03 -2.069856e-02 4.612341e-03
1.665562e-02 1.275281e-02 4.720189e-03
-2.047083e-04 -5.171560e-05 2.043030e-02
2.058994e-02 4.736332e-03 4.327630e-03
2.105987e-02 1.353295e-03 4.388769e-03
1.160506e-02 1.751529e-02 4.479551e-03
3.774905e-03 1.688349e-02 -1.489953e-02
1.812039e-02 -1.071116e-02 5.233833e-03
1.753620e-02 -1.186452e-02 3.898815e-03
-1.040332e-03 5.272792e-04 -2.341575e-02
-1.630025e-02 1.212461e-02 6.874147e-03
3.761015e-03 7.297761e-03 -2.213860e-02
-2.443367e-03 2.147225e-02 -4.587138e-03
-9.418642e-05 -1.655261e-04 2.022871e-02
3.465347e-06 2.152384e-02 -4.430564e-03
-1.709047e-03 -8.106537e-04 -2.360916e-02
-7.449764e-03 1.975589e-02 4.656550e-03
1.384681e-03 2.107223e-02 4.221952e-03
-1.666346e-02 -1.292382e-02 4.457130e-03
-1.568853e-02 1.400961e-02 4.488794e-03
-2.087872e-02 3.011425e-03 4.442730e-03
-4.479707e-03 2.043400e-02 4.688164e-03
-5.159956e-03 2.056616e-02 4.156415e-03
-1.444665e-02 1.527332e-02 4.494085e-03
1.761393e-04 4.776301e-06 2.031802e-02
-1.999946e-02 6.269200e-03 5.323564e-03
-1.524616e-02 -1.448431e-02 4.553673e-03
-1.145105e-02 1.775064e-02 4.363121e-03
-1.914573e-02 -8.742785e-03 4.537796e-03
-1.293519e-02 1.667958e-02 4.733978e-03
-2.062656e-02 5.415222e-03 3.967396e-03
2.268304e-03 2.080298e-02 4.697606e-03
5.763852e-03 1.828390e-02 -1.205657e-02
1.983115e-02 -7.577378e-03 3.962309e-03
1.950631e-02 7.525895e-03 4.956449e-03
-1.830285e-04 -5.257683e-05 2.035835e-02
1.955166e-02 8.810839e-03 2.990984e-03
-1.669225e-02 1.406525e-02 8.567936e-04
1.971400e-02 1.235673e-03 -1.100184e-02
1.973424e-02 -1.271010e-03 -1.112158e-02
5.299812e-03 2.034962e-02 5.021712e-03
1.111383e-03 1.713517e-03 -2.310435e-02
1.223766e-02 1.680117e-02 5.009059e-03
1.877737e-02 -8.857994e-03 5.109644e-03
8.036468e-03 -1.918700e-02 4.941223e-03
1.665860e-02 1.281246e-02 4.861599e-03
2.586806e-04 -2.220840e-04 2.036810e-02
1.254326e-02 1.758379e-02 1.183390e-03
1.933931e-02 8.043617e-03 -6.865155e-03
1.516699e-02 1.450709e-02 4.987314e-03
1.947930e-02 -8.389140e-03 -7.133318e-03
9.968658e-04 2.075279e-02 5.474299e-03
-3.619032e-03 2.077958e-02 4.829245e-03
-1.443128e-03 2.101635e-02 4.810167e-03
-2.660286e-03 -2.080483e-02 5.262628e-03
-1.551287e-03 -2.079879e-02 4.920553e-03
7.135227e-04 -2.085293e-02 5.246870e-03
-7.926650e-05 2.248234e-04 2.030720e-02
1.025769e-02 1.822556e-02 5.223518e-03
1.076737e-02 1.840504e-02 4.242456e-03
1.452363e-02 1.525205e-02 5.013962e-03
1.858747e-02 1.014473e-02 5.055855e-03
2.049090e-02 -4.010301e-03 5.544120e-03
1.540348e-02 1.407909e-02 5.178539e-03
1.183783e-02 -1.726271e-02 5.098286e-03
1.236314e-02 -1.658461e-02 5.642045e-03
5.110811e-03 -2.015734e-02 5.497824e-03
2.004955e-02 -5.607306e-03 5.487914e-03
-1.938173e-04 -3.708150e-06 2.062780e-02
2.077854e-02 -2.859784e-03 4.869189e-03
1.356664e-02 -1.567843e-02 5.670460e-03
1.913554e-02 8.420052e-03 5.299939e-03
1.860769e-02 9.062603e-03 5.686509e-03
2.094470e-02 -1.847478e-03 5.109227e-03
1.433875e-02 -1.531154e-02 5.169848e-03
1.587506e-02 1.326477e-02 5.579000e-03
1.997436e-02 -6.580554e-03 5.071782e-03
1.059945e-02 -1.827657e-02 4.965873e-03
1.472424e-02 1.448498e-02 5.661724e-03
1.636047e-04 -8.034935e-05 2.033439e-02
7.784991e-05 -3.674353e-04 2.038099e-02
1.311393e-02 -1.642049e-02 5.149069e-03
1.081681e-02 -1.765772e-02 5.722667e-03
1.483254e-02 -1.442529e-02 5.536042e-03
2.037192e-02 -4.405174e-03 5.300587e-03
-5.117263e-04 -2.068239e-02 5.593726e-03
-3.941301e-03 -2.039126e-02 5.505398e-03
-1.065698e-02 -1.894298e-02 1.989122e-03
1.831623e-02 1.096466e-02 3.525524e-03
4.313693e-03 -5.085102e-04 -2.315601e-02
4.350074e-03 4.916226e-04 -2.316452e-02
5.004599e-05 -8.191515e-05 2.036136e-02
8.875142e-03 -1.919375e-02 4.432623e-03
-6.928054e-03 -1.970019e-02 5.209573e-03
4.214227e-03 -7.249282e-04 -2.318094e-02
4.262831e-03 8.678368e-04 -2.318996e-02
2.010782e-02 2.254534e-03 6.447560e-03
1.983844e-02 4.214415e-03 6.694727e-03
2.012782e-02 -2.277741e-03 6.420653e-03
1.984641e-02 -4.475216e-03 6.557773e-03
-1.917814e-02 -7.612569e-03 5.926802e-03
-1.914852e-02 7.548945e-03 5.981755e-03
2.504715e-04 3.068956e-04 2.035785e-02
-1.846804e-03 1.578443e-03 -2.346626e-02
7.536282e-03 -4.980072e-03 -2.185645e-02
6.320634e-03 -2.045306e-02 3.062812e-03
-1.526345e-02 -1.174960e-02 -1.194048e-02
1.130739e-02 -9.844988e-03 -1.782243e-02
4.917656e-03 2.112210e-02 1.010840e-03
-4.873384e-03 -2.101866e-02 2.786925e-03
1.201992e-02 -1.689410e-02 5.845805e-03
-1.639864e-02 -1.407764e-02 1.754935e-03
6.293270e-03 -3.438105e-03 -2.251057e-02
-4.691235e-05 1.539435e-04 2.041790e-02
-1.270981e-02 -1.575035e-02 6.205167e-03
2.006640e-03 -2.024791e-02 6.552955e-03
4.323481e-03 -1.993032e-02 6.325007e-03
-3.746481e-05 -2.042788e-02 6.609342e-03
5.345776e-03 -1.969981e-02 6.622549e-03
-3.992024e-03 -1.971006e-02 6.925904e-03
1.624627e-02 -1.154016e-02 7.011998e-03
-7.256750e-03 1.865260e-02 7.449452e-03
5.892226e-03 -1.922171e-02 6.889138e-03
-1.375665e-02 1.449265e-02 7.145152e-03
7.361255e-05 -1.606055e-04 2.040008e-02
-1.393883e-02 -1.467020e-02 7.109096e-03
-1.249063e-02 1.598004e-02 6.657095e-03
-2.404614e-03 -1.992108e-02 6.943087e-03
-2.031698e-03 -2.128796e-02 3.795131e-03
-1.975167e-03 -2.324835e-03 -2.338972e-02
6.526405e-03 7.989081e-03 -2.115496e-02
-4.103769e-03 -5.266887e-03 -2.269532e-02
-2.940367e-03 -9.968283e-04 -2.332625e-02
9.776462e-03 3.464405e-03 -2.130648e-02
-2.919282e-03 1.438716e-03 -2.357965e-02
9.046160e-05 4.466027e-04 2.040431e-02
9.750194e-03 -3.979940e-03 -2.100853e-02
-1.381179e-03 2.700329e-03 -2.341194e-02
4.481455e-03 -9.324202e-03 -2.118553e-02
-2.765711e-03 6.094835e-03 -2.270162e-02
-7.458131e-04 -2.032828e-02 6.678068e-03
2.021607e-02 -2.962509e-03 6.562679e-03
-1.685682e-04 3.425857e-03 -2.320706e-02
1.127940e-03 -9.225985e-03 -2.187317e-02
-2.981501e-03 -1.671082e-03 -2.317590e-02
7.735186e-03 5.115833e-03 -2.186482e-02
-3.768067e-05 -1.709995e-04 2.041959e-02
-3.391980e-03 1.591905e-04 -2.323506e-02
9.326232e-03 1.517081e-04 -2.182031e-02
-3.411105e-03 -3.319415e-04 -2.319594e-02
9.172080e-03 1.661188e-03 -2.180781e-02
-2.153462e-03 7.075178e-03 -2.209558e-02
4.228999e-03 -5.591810e-03 -2.234989e-02
2.145706e-02 3.788696e-03 -5.195984e-03
2.139207e-02 -3.601164e-03 -5.354273e-03
1.709357e-02 -5.810722e-04 1.186042e-02
1.724811e-02 6.345263e-04 1.184770e-02
1.208056e-04 3.765864e-04 2.021352e-02
-8.660796e-04 -2.585326e-04 -2.343180e-02
-7.940045e-04 3.155113e-04 -2.346497e-02
-1.663745e-04 4.333458e-05 -2.344422e-02
-1.734748e-04 -1.080385e-05 -2.345666e-02
-7.431860e-03 -2.018987e-02 2.587458e-03
-1.064356e-02 1.503472e-02 -1.328281e-02
1.226607e-02 1.674444e-02 5.608151e-03
8.972464e-03 1.918981e-02 5.147547e-03
6.954181e-03 -1.878445e-02 -1.045112e-02
1.359584e-02 1.615406e-02 -7.667805e-03
-1.893523e-04 9.909128e-05 2.005211e-02
1.329977e-02 1.490480e-02 -1.107339e-02
1.034571e-02 -1.863312e-02 3.819270e-03
2.288334e-03 -4.187821e-03 -2.321337e-02
3.071177e-03 -1.325131e-02 -1.904176e-02
-9.373996e-03 1.010823e-02 -1.891342e-02
5.701205e-03 2.013530e-02 5.177666e-03
-1.986033e-03 2.110227e-02 4.865926e-03
-1.195461e-02 -1.715885e-02 4.916171e-03
-1.118125e-02 -1.736950e-02 5.503646e-03
-1.800872e-02 -1.118407e-02 4.855189e-03
-1.188286e-04 -3.820208e-05 2.028447e-02
-1.256166e-02 -1.698130e-02 4.483622e-03
-1.712528e-02 -1.183468e-02 5.318293e-03
-1.309988e-02 -1.626470e-02 4.664244e-03
-1.821084e-02 9.957860e-03 5.214929e-03
-1.861116e-02 9.398239e-03 4.796334e-03
-6.850973e-03 1.945286e-02 5.495974e-03
-7.672662e-03 1.944683e-02 4.922109e-03
-2.043356e-02 -3.926422e-03 5.527277e-03
-1.966287e-02 -7.049466e-03 5.426441e-03
-1.929385e-02 7.845326e-03 5.437208e-03
1.243248e-04 1.615070e-04 2.037499e-02
1.075747e-04 -2.889062e-04 2.024512e-02
-1.765271e-02 1.072190e-02 5.779608e-03
-8.989435e-03 1.884156e-02 4.636912e-03
-1.760721e-02 1.167030e-02 4.919420e-03
-2.080659e-02 -5.676073e-04 5.523591e-03
-8.481456e-03 1.935358e-02 4.743451e-03
-1.623180e-02 1.292216e-02 5.305336e-03
-1.919188e-02 8.704558e-03 4.888802e-03
-1.689886e-02 1.238031e-02 5.069635e-03
-1.998021e-02 -6.607986e-03 4.766498e-03
-2.114969e-02 2.281945e-04 4.980214e-03
4.591943e-05 -6.879914e-05 2.017977e-02
-2.097460e-02 -3.128598e-03 4.882012e-03
-2.941392e-03 2.057362e-02 5.323912e-03
1.107408e-02 -1.811595e-02 4.573377e-03
3.354044e-03 -2.138410e-02 -5.051064e-03
1.121511e-03 -2.165798e-02 -5.087171e-03
6.605923e-03 1.991479e-02 4.799876e-03
-2.956754e-03 4.987349e-03 -2.303004e-02
4.710412e-03 2.809610e-03 -2.282768e-02
5.494948e-03 -1.712087e-04 -2.283922e-02
5.374447e-03 6.156238e-04 -2.283916e-02
9.962526e-05 2.003560e-04 2.015679e-02
3.920995e-04 -5.442800e-03 -2.285625e-02
1.477944e-02 1.607093e-02 -3.155942e-03
-1.039780e-03 -1.537256e-04 -2.333379e-02
-1.091188e-03 -1.955218e-02 -1.173393e-02
-1.181862e-02 1.529581e-03 -2.035630e-02
-1.165267e-02 3.074511e-03 -2.006128e-02
-2.917846e-03 1.140200e-02 -2.023833e-02
8.548297e-04 1.229145e-02 -1.970920e-02
-1.155326e-02 -1.612979e-02 -1.122162e-02
-7.002682e-03 -1.887623e-02 6.663101e-03
-7.621299e-05 -1.286925e-04 2.022688e-02
1.401346e-02 1.648215e-02 -3.758614e-03
2.152770e-03 4.235833e-03 -2.311730e-02
-3.668110e-03 -8.142529e-03 -2.175008e-02
-1.578634e-02 1.506060e-02 -3.882823e-03
-2.694749e-03 -1.514716e-02 -1.734535e-02
-2.075427e-02 4.366608e-04 -7.680805e-03
-2.060557e-02 -4.144308e-04 -7.884809e-03
-1.043310e-02 1.806057e-02 4.936966e-03
-1.625085e-02 -1.170999e-02 7.186469e-03
-1.079375e-02 7.918356e-04 -2.050985e-02
-1.199920e-04 9.390990e-05 2.023596e-02
-1.080507e-02 -8.059794e-04 -2.057224e-02
-3.188868e-03 -5.966874e-03 -2.275041e-02
1.520473e-04 -8.181767e-04 -2.356234e-02
7.598657e-03 -1.795996e-02 8.083552e-03
-5.982958e-03 -8.136660e-03 -2.122754e-02
3.717580e-03 5.532594e-03 -2.266822e-02
-8.891161e-03 4.375522e-03 -2.116491e-02
-3.939932e-03 9.295425e-03 -2.122421e-02
2.348621e-03 -6.234495e-03 -2.267038e-02
-1.442395e-02 1.083606e-02 -1.412918e-02
-1.073455e-05 -3.941618e-04 2.024977e-02
1.575939e-02 -1.475252e-02 2.249826e-03
1.452295e-02 -1.409145e-02 6.741564e-03
-1.112703e-02 1.766593e-02 5.101428e-03
-4.761288e-03 2.133112e-02 -3.154276e-03
1.680631e-02 3.912013e-03 -1.498130e-02
1.683590e-02 -3.923915e-03 -1.496733e-02
-1.983491e-02 4.157420e-03 6.511785e-03
-1.983793e-02 -4.099071e-03 6.575201e-03
1.504590e-02 -1.576815e-02 -2.138142e-03
4.062070e-03 1.318713e-02 -1.850382e-02
2.594017e-04 -9.546760e-05 2.031432e-02
1.505850e-02 1.460776e-02 4.917332e-03
-5.359048e-03 -1.982931e-02 6.350761e-03
-1.257802e-02 -4.530614e-03 -1.944153e-02
-1.246634e-02 5.107469e-03 -1.937757e-02
7.226323e-04 2.080155e-02 5.094610e-03
-3.327402e-03 1.999361e-02 6.798189e-03
-1.501979e-03 2.042371e-02 6.235632e-03
1.976857e-04 7.037681e-04 -2.336956e-02
7.941412e-04 7.324501e-03 -2.229162e-02
1.538396e-02 1.786398e-03 -1.729346e-02
-6.123071e-05 2.487897e-04 2.023309e-02
1.537885e-02 -1.788047e-03 -1.729433e-02
6.569219e-03 -1.937598e-02 6.540441e-03
1.113344e-02 1.729535e-02 6.391491e-03
6.943235e-03 6.256842e-03 -2.160938e-02
1.844971e-02 5.726927e-03 8.796501e-03
1.913705e-02 6.164946e-03 7.108909e-03
1.844794e-02 -5.728335e-03 8.795746e-03
1.912728e-02 -6.173424e-03 7.111551e-03
-4.232990e-03 -2.631863e-03 -2.292366e-02
2.103735e-03 5.562668e-03 -2.273005e-02
5.600818e-05 1.353426e-04 2.019652e-02
4.949361e-04 4.413456e-04 -2.355001e-02
3.533244e-05 -7.879980e-05 -2.358504e-02
-6.760489e-03 -1.835060e-02 8.417171e-03
-1.071962e-02 7.785630e-03 -1.923046e-02
-1.254040e-02 -8.280568e-03 -1.766933e-02
-1.200208e-02 9.131088e-03 -1.758838e-02
-1.469787e-02 -4.498708e-04 -1.780318e-02
-1.442547e-02 -2.823851e-03 -1.779520e-02
-1.867843e-03 1.493793e-02 -1.763533e-02
-3.062515e-03 -1.692686e-03 -2.327486e-02
-3.114969e-05 1.725473e-05 2.025006e-02
3.281630e-03 -4.974943e-03 -2.291782e-02
-1.427599e-02 -1.216674e-02 9.478800e-03
6.125147e-03 -4.685423e-03 -2.246941e-02
-2.716797e-03 1.385143e-03 -2.370435e-02
-3.036604e-03 6.453070e-03 -2.239849e-02
4.804247e-03 -8.846623e-03 -2.121988e-02
2.538639e-03 -1.305588e-03 -2.376849e-02
9.408441e-03 -1.857428e-02 5.663729e-03
3.005123e-03 1.727273e-03 -2.348613e-02
-9.480153e-03 1.742988e-02 8.167223e-03
-4.962880e-05 -9.347569e-06 2.053546e-02
1.608679e-04 3.273125e-04 2.035675e-02
-1.968961e-02 6.033621e-03 6.153031e-03
-1.969189e-02 -6.030031e-03 6.152556e-03
4.059459e-03 1.170485e-03 -2.312314e-02
4.060768e-03 -1.170698e-03 -2.312491e-02
8.480728e-03 1.828552e-02 6.975336e-03
1.443091e-04 3.153930e-04 -2.367454e-02
5.502888e-03 -1.979396e-02 -9.218015e-03
-1.328605e-02 1.561739e-02 -9.372704e-03
-4.121437e-03 -1.518637e-02 -1.685880e-02
-1.195150e-02 1.742809e-02 4.084737e-03
-1.783782e-04 2.650857e-04 2.031006e-02
1.704919e-02 8.022890e-03 9.215598e-03
-6.186618e-03 1.907115e-02 7.387178e-03
-4.861201e-03 -1.047966e-02 -2.023845e-02
9.338357e-03 -1.648122e-02 9.537864e-03
5.815976e-03 1.319250e-02 -1.832315e-02
-6.085644e-03 -1.991720e-02 5.188858e-03
-1.738154e-02 1.141879e-02 5.201204e-03
-4.971945e-03 1.446060e-02 -1.756938e-02
-7.761418e-03 -1.820622e-02 7.457937e-03
1.306304e-02 1.472024e-02 7.554079e-03
-2.072761e-04 -3.792663e-04 2.027736e-02
1.222508e-02 1.338158e-02 1.002264e-02
-1.408392e-02 -1.429348e-02 7.049564e-03
-1.948553e-02 2.053268e-03 7.784440e-03
-1.937365e-02 -1.176844e-03 8.099893e-03
-1.896083e-02 -4.281985e-03 8.090330e-03
-1.299743e-02 1.526361e-02 7.063159e-03
-1.786138e-02 -7.357190e-03 8.438707e-03
-1.821094e-02 6.597590e-03 8.323497e-03
-1.172581e-02 1.624727e-02 7.080283e-03
-1.896478e-02 4.064597e-03 7.862433e-03
-8.215528e-05 -2.170381e-04 2.038133e-02
-1.036055e-02 1.727656e-02 6.944821e-03
-1.474571e-02 1.247596e-02 8.343550e-03
-6.310765e-03 2.000532e-02 5.102748e-03
-1.423885e-02 1.407831e-02 7.210018e-03
-1.790059e-02 -9.002547e-03 7.011594e-03
-1.976265e-02 3.710082e-03 7.018608e-03
-1.523468e-02 -1.316248e-02 7.013615e-03
-1.559061e-02 -1.138516e-02 8.264461e-03
-1.051151e-02 -1.803780e-02 5.344797e-03
-3.198472e-03 1.905985e-02 8.327051e-03
2.531145e-04 -2.901575e-04 2.029713e-02
-1.059641e-04 1.957669e-02 7.857770e-03
4.373111e-04 2.000999e-02 7.322490e-03
3.771597e-03 1.966530e-02 7.195431e-03
3.021847e-03 1.930865e-02 7.908896e-03
1.240644e-03 3.496067e-03 -2.331524e-02
1.005622e-02 1.711087e-02 7.577736e-03
-1.628928e-02 1.274342e-02 5.665255e-03
-1.678725e-03 -5.100879e-03 -2.279222e-02
-5.167593e-03 -1.179315e-02 -1.907906e-02
-7.080405e-03 1.077274e-02 -1.925640e-02
6.871492e-05 -2.107124e-05 2.018720e-02
1.666486e-02 -1.017064e-02 8.126155e-03
1.984877e-02 2.426298e-05 7.659945e-03
1.856949e-02 6.404367e-03 7.932721e-03
8.275949e-03 -1.736598e-02 8.545233e-03
1.960656e-02 3.257107e-03 7.636758e-03
1.792075e-02 -7.275706e-03 8.276108e-03
1.671899e-02 1.076903e-02 7.666098e-03
1.208493e-02 1.501170e-02 8.498257e-03
2.199952e-03 -1.976352e-02 7.672298e-03
-8.918358e-03 -1.843492e-02 6.182418e-03
6.864672e-05 2.502476e-04 2.015268e-02
9.222630e-04 4.699872e-03 -2.307113e-02
1.669933e-02 -1.205335e-02 5.878814e-03
1.638051e-02 -1.228192e-02 6.228171e-03
1.620427e-02 -1.037364e-02 8.126810e-03
-2.344187e-03 -1.752636e-02 -1.476840e-02
-4.254132e-04 -2.328282e-03 -2.352185e-02
1.035939e-02 1.840884e-02 4.716171e-03
-8.833024e-03 -1.716988e-02 8.441617e-03
-8.533953e-03 2.508255e-03 -2.189281e-02
-8.532533e-03 -2.508239e-03 -2.188851e-02
-6.696624e-05 -6.727525e-05 2.024312e-02
-1.873719e-02 -6.439348e-03 8.351890e-03
-1.866142e-02 6.457380e-03 8.423571e-03
1.488508e-03 -1.947709e-02 8.280683e-03
1.876797e-02 7.096893e-03 7.069199e-03
8.983295e-03 -1.741216e-02 8.432222e-03
1.866262e-02 -7.269715e-03 7.102076e-03
1.943808e-02 -5.980376e-04 8.177575e-03
1.678556e-02 1.002544e-02 8.273576e-03
1.932770e-02 2.580631e-03 8.217497e-03
1.274043e-02 1.486549e-02 8.443381e-03
-2.012379e-04 1.079937e-04 2.031872e-02
8.182884e-03 1.690265e-02 9.104193e-03
-1.691585e-02 -9.356538e-03 8.057201e-03
-1.667304e-02 -9.781195e-03 8.260525e-03
-1.689441e-02 9.464006e-03 8.187402e-03
-1.642045e-02 9.521879e-03 8.782376e-03
1.699140e-02 -9.159990e-03 8.771054e-03
6.082031e-03 -1.412777e-02 -1.731155e-02
1.411024e-02 -6.376021e-03 -1.761867e-02
9.183997e-03 1.240071e-02 -1.730201e-02
4.139355e-04 8.505894e-04 -2.373642e-02
-6.752022e-05 -5.569679e-04 2.023140e-02
1.142876e-02 1.645883e-02 7.437433e-03
7.327183e-03 -1.865605e-02 7.444702e-03
1.809632e-02 -9.038632e-03 7.055782e-03
1.604758e-02 -1.287141e-02 6.288655e-03
2.022678e-02 4.219317e-03 6.306612e-03
2.063461e-02 8.986338e-04 6.306373e-03
1.892018e-02 5.790969e-03 7.812199e-03
1.679797e-02 1.183697e-02 6.251605e-03
3.095931e-03 -2.032410e-02 6.309904e-03
-6.969428e-03 -1.805832e-02 8.528792e-03
-1.780241e-04 1.613513e-05 2.036226e-02
4.520564e-04 -6.579385e-05 2.031716e-02
7.897250e-03 1.909422e-02 6.155402e-03
-8.726479e-03 1.748392e-02 8.634331e-03
-1.612138e-02 1.071404e-02 8.659480e-03
7.064844e-05 5.710958e-03 -2.287852e-02
-5.636311e-04 5.619106e-03 -2.296409e-02
8.547137e-03 -5.769882e-03 -2.120821e-02
2.290128e-03 2.684628e-03 -2.340659e-02
1.804635e-02 6.306368e-03 8.820275e-03
1.801724e-02 -6.314641e-03 8.846723e-03
-7.516281e-03 -1.667273e-02 1.023001e-02
5.516625e-05 3.781822e-04 2.021724e-02
2.510440e-03 1.958933e-02 7.753839e-03
2.758818e-03 1.879515e-02 9.300374e-03
-1.009865e-02 1.259683e-02 -1.647837e-02
-1.042663e-02 -1.493981e-02 -1.388693e-02
1.810944e-02 5.048611e-03 9.519121e-03
-1.107640e-02 -1.036529e-03 -2.045016e-02
-1.106727e-02 1.029092e-03 -2.044278e-02
4.453455e-04 5.617826e-03 -2.304162e-02
4.687133e-03 -1.579957e-02 -1.645658e-02
2.122736e-02 -3.414965e-03 -6.008998e-03
-3.182604e-04 1.294511e-04 2.045047e-02
-1.033097e-03 -2.150294e-02 -5.779300e-03
4.959827e-03 4.386569e-03 -2.256099e-02
1.011680e-03 -2.886345e-03 -2.347508e-02
2.676967e-03 -8.107652e-03 -2.190734e-02
1.420384e-02 -1.265943e-02 9.033687e-03
1.165866e-03 1.983633e-03 -2.333901e-02
1.955416e-03 6.240998e-03 -2.265074e-02
4.661614e-03 2.016954e-02 5.871865e-03
1.572875e-02 1.033448e-02 9.269938e-03
-8.791752e-04 2.080208e-02 5.584166e-03
-7.236642e-05 -2.439993e-04 2.027676e-02
-9.763971e-03 -1.827030e-02 5.857687e-03
-1.803554e-02 -1.023059e-02 5.704476e-03
-9.960220e-03 1.820743e-02 5.737691e-03
-1.390867e-02 -1.541363e-02 5.755063e-03
-2.074015e-02 1.270723e-03 5.551453e-03
-2.062395e-02 -2.236326e-03 5.720222e-03
-2.002345e-02 -5.577018e-03 5.843976e-03
-6.042698e-03 -2.052425e-02 3.086969e-03
-2.272061e-03 1.950670e-02 8.042138e-03
-1.938670e-02 -3.368388e-03 8.077859e-03
5.722826e-05 4.826557e-05 2.033637e-02
-1.523218e-02 1.144763e-02 8.796829e-03
-1.645882e-02 -1.072993e-02 8.030793e-03
-1.966271e-02 -1.774728e-04 8.090341e-03