# vtk DataFile Version 2.0
Electric current density generated by TTH
ASCII
DATASET UNSTRUCTURED_GRID
POINTS 2077 double
-2.210077e-05 -5.921884e-06 -4.113336e-22
5.474015e-06 -2.196364e-05 8.732497e-07
-2.073497e-05 -9.123604e-06 8.430690e-07
-1.802128e-05 1.107660e-05 1.678716e-06
-3.620129e-06 2.082100e-05 -1.678034e-06
6.939815e-06 2.152785e-05 -9.001529e-07
1.738761e-05 -1.241822e-05 1.671191e-06
1.738761e-05 1.241822e-05 1.671191e-06
1.214283e-05 -1.580578e-05 1.099602e-06
1.214283e-05 1.580578e-05 1.099602e-06
-2.005898e-05 -7.007444e-06 -1.678746e-06
-2.182143e-05 -6.880270e-06 -4.113336e-22
-1.095075e-05 1.984328e-05 -8.239365e-07
-2.111833e-05 -3.960720e-06 -1.654947e-06
-1.146449e-05 1.587251e-05 -4.384886e-07
1.986414e-05 1.089784e-05 -8.366442e-07
1.986414e-05 -1.089784e-05 -8.366442e-07
-1.345037e-05 -1.671629e-05 -1.659973e-06
1.921473e-05 5.935333e-06 -1.277210e-06
1.921473e-05 -5.935333e-06 -1.277210e-06
1.691216e-06 -2.011488e-05 -1.337850e-06
2.005156e-05 1.041010e-05 9.398086e-07
-2.150054e-05 -7.825558e-06 -4.113336e-22
2.005156e-05 -1.041010e-05 9.398086e-07
-1.668914e-05 1.379124e-05 1.618242e-06
1.289805e-05 -1.855495e-05 9.328714e-07
1.289805e-05 1.855495e-05 9.328714e-07
-2.106012e-05 5.376407e-06 1.592053e-06
1.914448e-05 -3.863771e-06 -1.723997e-07
1.914448e-05 3.863771e-06 -1.723997e-07
-5.446785e-06 -1.921490e-05 -1.144491e-06
3.344406e-06 -2.239024e-05 -8.680893e-07
2.141937e-05 4.119168e-06 -1.564366e-06
-2.113874e-05 -8.755951e-06 -4.113336e-22
2.141937e-05 -4.119168e-06 -1.564366e-06
-5.054253e-06 2.054390e-05 1.678807e-06
2.046196e-05 -5.876737e-06 1.677083e-06
2.046196e-05 5.876737e-06 1.677083e-06
1.173772e-05 1.754257e-05 1.676778e-06
1.173772e-05 -1.754257e-05 1.676778e-06
1.496480e-05 1.451028e-05 -1.641124e-06
-1.706616e-05 1.053523e-05 1.228592e-06
-1.907335e-05 4.636097e-06 -5.901187e-07
2.557114e-06 -2.250230e-05 8.538843e-07
-2.073669e-05 -9.669676e-06 -4.113336e-22
-1.077639e-05 -1.632276e-05 -3.534192e-07
-1.822944e-05 -1.043383e-05 -1.667828e-06
1.503612e-05 -1.434378e-05 -1.625899e-06
-1.955584e-05 -2.080944e-06 6.818179e-07
-5.919064e-06 1.890466e-05 -9.404469e-07
-1.871201e-05 -1.269873e-05 -9.075096e-07
-1.710153e-05 1.490642e-05 -7.839424e-07
1.972389e-05 -4.371917e-06 1.350401e-06
1.972389e-05 4.371917e-06 1.350401e-06
-2.823238e-06 2.246237e-05 8.673288e-07
-2.029516e-05 -1.056499e-05 -4.113336e-22
-1.332530e-05 -1.832242e-05 8.394171e-07
-1.078590e-05 -1.990908e-05 -8.607687e-07
2.228722e-05 -7.774568e-07 1.269204e-06
2.228722e-05 7.774568e-07 1.269204e-06
1.539047e-05 -1.509863e-05 1.640570e-06
1.539047e-05 1.509863e-05 1.640570e-06
-6.345621e-06 -1.919632e-05 1.361610e-06
1.985660e-05 2.353516e-06 1.169340e-06
1.985660e-05 -2.353516e-06 1.169340e-06
1.422125e-05 -1.765842e-05 8.085009e-07
-1.981501e-05 -1.144020e-05 -4.113336e-22
1.422125e-05 1.765842e-05 8.085009e-07
-2.158640e-05 1.900821e-06 1.612602e-06
-8.932582e-06 1.909339e-05 1.675001e-06
1.860617e-05 6.132151e-06 -4.765067e-07
1.860617e-05 -6.132151e-06 -4.765067e-07
-1.417532e-05 -1.363058e-05 6.801721e-07
-1.679766e-05 1.351821e-05 -1.640223e-06
-1.458765e-05 -1.728520e-05 9.012479e-07
4.500441e-06 2.220921e-05 8.306260e-07
-4.165957e-07 -1.976519e-05 8.782842e-07
-1.929714e-05 -1.229363e-05 -4.113336e-22
4.013961e-07 1.966516e-05 -6.885725e-07
9.951581e-06 -1.813739e-05 1.599169e-06
9.951581e-06 1.813739e-05 1.599169e-06
-9.484996e-06 2.052168e-05 -9.175051e-07
2.169095e-06 2.169266e-05 -1.568621e-06
-5.813815e-06 2.036372e-05 1.679231e-06
1.943730e-05 -2.141904e-06 -3.329981e-07
1.943730e-05 2.141904e-06 -3.329981e-07
-1.845401e-05 9.290100e-06 1.590042e-06
-1.928132e-05 1.194599e-05 7.917415e-07
-1.874253e-05 -1.312366e-05 -4.113336e-22
1.502703e-05 -1.699994e-05 -7.778191e-07
1.496969e-05 1.704744e-05 -7.821454e-07
-1.858540e-05 -7.643945e-06 -1.264602e-06
1.939740e-06 2.007928e-05 -1.327812e-06
-1.035290e-05 -1.856708e-05 -1.678416e-06
4.434880e-06 -1.982123e-05 -1.424367e-06
-2.204747e-05 5.298568e-06 -8.043913e-07
-1.803184e-05 9.865054e-06 -1.549757e-06
-2.016147e-05 6.771895e-06 1.678046e-06
-3.492609e-06 -2.242336e-05 -7.695006e-07
-1.815224e-05 -1.392871e-05 -4.113336e-22
-1.954916e-05 -5.142173e-06 -1.358850e-06
2.225896e-05 4.020303e-06 8.996406e-07
2.225896e-05 -4.020303e-06 8.996406e-07
-1.150155e-05 1.799321e-05 -1.672310e-06
-1.165196e-05 -1.802546e-05 1.658743e-06
3.529909e-06 1.938941e-05 -7.691722e-07
-4.990102e-06 -2.050189e-05 1.676384e-06
-2.034955e-05 -8.024515e-06 -1.538402e-06
5.992878e-06 2.073137e-05 -1.636032e-06
-2.108877e-05 -2.252159e-06 -1.679379e-06
-1.752740e-05 -1.470724e-05 -4.113336e-22
-1.699988e-05 -1.124852e-05 -1.467510e-06
1.663715e-06 -2.178125e-05 -1.551139e-06
1.543465e-05 1.197735e-05 -2.250981e-07
1.543066e-05 -1.198347e-05 -2.295369e-07
6.034024e-06 -2.068172e-05 -1.644002e-06
1.814246e-05 -7.420394e-06 -5.112029e-07
1.814246e-05 7.420394e-06 -5.112029e-07
-1.681371e-06 2.028370e-05 1.449731e-06
-1.628952e-05 -1.573365e-05 -8.537319e-07
-1.115608e-05 -1.815786e-05 -1.675779e-06
-1.686920e-05 -1.545778e-05 -4.113336e-22
-2.499128e-06 -2.143858e-05 1.635200e-06
-1.963419e-05 9.279381e-06 -1.598308e-06
1.851698e-06 2.257400e-05 8.492941e-07
-1.837484e-05 -6.959059e-06 6.403661e-07
-4.974096e-06 1.906666e-05 7.627228e-07
2.619865e-06 -2.001383e-05 -1.336877e-06
-3.402144e-06 -2.240738e-05 8.243106e-07
4.090495e-06 -1.927835e-05 -7.680653e-07
8.747883e-07 2.164435e-05 -1.614880e-06
-2.154307e-06 2.253015e-05 -8.775135e-07
-1.617889e-05 -1.617889e-05 -4.113336e-22
2.005153e-05 8.288629e-06 -1.604444e-06
2.005153e-05 -8.288629e-06 -1.604444e-06
-2.324550e-06 -2.140673e-05 -1.646341e-06
-1.548863e-05 -1.480306e-05 1.664399e-06
-4.563799e-06 2.221523e-05 -7.971165e-07
2.842668e-06 -2.149545e-05 -1.608862e-06
-2.002549e-05 3.392235e-06 -1.424032e-06
9.618848e-07 2.016117e-05 -1.336517e-06
8.366927e-06 1.773364e-05 -5.327503e-07
8.366927e-06 -1.773364e-05 -5.327503e-07
-1.545778e-05 -1.686920e-05 -4.113336e-22
2.176468e-05 2.292824e-06 -1.533744e-06
2.176468e-05 -2.292824e-06 -1.533744e-06
3.071003e-06 -1.943133e-05 -6.957485e-07
-1.193227e-05 -1.603062e-05 1.157258e-06
-3.314735e-06 2.101696e-05 1.677688e-06
-1.644915e-05 -1.560357e-05 8.092173e-07
-2.097978e-05 4.470711e-06 -1.660711e-06
4.616086e-07 2.086155e-05 -1.645778e-06
-1.939013e-05 1.182542e-05 -7.337573e-07
2.081650e-05 -8.950684e-06 8.330058e-07
-1.470724e-05 -1.752740e-05 -4.113336e-22
2.081650e-05 8.950684e-06 8.330058e-07
1.607814e-05 1.587883e-05 -9.329335e-07
9.173284e-06 -2.075804e-05 7.678013e-07
9.173284e-06 2.075804e-05 7.678013e-07
1.721026e-05 -1.117781e-05 -1.535838e-06
1.721026e-05 1.117781e-05 -1.535838e-06
1.763318e-05 -1.426261e-05 -7.968651e-07
1.774105e-05 1.412821e-05 -7.968651e-07
-1.936892e-05 2.694247e-06 3.352588e-07
-1.966063e-05 -1.284679e-06 -7.583036e-07
-1.392871e-05 -1.815224e-05 -4.113336e-22
2.093185e-05 -5.815729e-06 -1.595637e-06
2.093185e-05 5.815729e-06 -1.595637e-06
-1.329162e-05 -1.836285e-05 -8.165715e-07
-2.253164e-06 2.125633e-05 1.670316e-06
1.971652e-05 1.115305e-05 8.448724e-07
1.971652e-05 -1.115305e-05 8.448724e-07
-1.266110e-05 -1.753772e-05 1.623568e-06
-2.155015e-05 6.816794e-06 9.251411e-07
-1.637155e-05 1.191991e-05 1.385022e-06
-2.069642e-05 1.788979e-06 -1.624099e-06
-1.312366e-05 -1.874253e-05 -4.113336e-22
-1.759164e-05 -1.431131e-05 -7.997953e-07
1.376882e-05 -1.529698e-05 1.560765e-06
1.376882e-05 1.529698e-05 1.560765e-06
-1.613902e-05 1.128505e-05 -7.394226e-07
-2.267310e-05 -1.299108e-07 -8.076002e-07
-1.571406e-05 1.634282e-05 -8.102917e-07
-6.698941e-06 2.039544e-05 -1.658132e-06
-1.989719e-05 1.093844e-05 -7.458889e-07
-5.209928e-06 2.109418e-05 -1.594555e-06
1.113394e-05 1.786800e-05 -1.672865e-06
-1.229363e-05 -1.929714e-05 -4.113336e-22
1.113394e-05 -1.786800e-05 -1.672865e-06
-2.258201e-05 -2.341019e-06 7.511974e-07
2.094256e-05 3.131050e-06 1.679201e-06
2.094256e-05 -3.131050e-06 1.679201e-06
-2.157035e-05 5.140623e-07 1.636886e-06
1.858822e-05 1.109892e-05 1.618358e-06
1.858822e-05 -1.109892e-05 1.618358e-06
-2.257255e-05 2.488544e-06 -7.385060e-07
5.456320e-06 2.095672e-05 1.616760e-06
5.456320e-06 -2.095672e-05 1.616760e-06
-1.144020e-05 -1.981501e-05 -4.113336e-22
-2.010227e-05 -4.280663e-07 1.274026e-06
7.296974e-06 1.963972e-05 1.660755e-06
7.296974e-06 -1.963972e-05 1.660755e-06
-2.268438e-05 1.300956e-06 7.127506e-07
-1.586033e-05 -1.153287e-05 -5.380266e-07
-1.919694e-05 6.636474e-06 1.424612e-06
1.218992e-05 -1.908795e-05 8.519385e-07
1.218992e-05 1.908795e-05 8.519385e-07
-2.149318e-05 7.264255e-06 -7.813264e-07
7.915379e-06 -1.907821e-05 -1.588181e-06
-1.056499e-05 -2.029516e-05 -4.113336e-22
7.915753e-06 1.907865e-05 -1.588367e-06
-1.048138e-05 -1.697970e-05 -1.125084e-06
1.945913e-05 5.188805e-06 -1.301014e-06
1.945913e-05 -5.188805e-06 -1.301014e-06
-1.709371e-05 9.506666e-06 -3.544472e-07
1.322420e-05 -1.702637e-05 1.640866e-06
1.322420e-05 1.702637e-05 1.640866e-06
-2.201868e-05 -5.525278e-06 -7.545589e-07
1.734482e-05 -1.286006e-05 -1.633195e-06
-9.141531e-06 1.759119e-05 9.623345e-07
-9.669676e-06 -2.073669e-05 -4.113336e-22
2.918324e-06 -2.165521e-05 1.548523e-06
6.499604e-06 1.991195e-05 1.659907e-06
6.499604e-06 -1.991195e-05 1.659907e-06
-1.871514e-05 5.918333e-06 5.899182e-07
-3.134766e-06 -2.094138e-05 -1.679191e-06
1.342078e-05 1.830264e-05 -7.652733e-07
1.342078e-05 -1.830264e-05 -7.652733e-07
-1.643114e-05 -1.079212e-05 6.638554e-07
1.852915e-06 -2.259797e-05 8.069875e-07
2.189664e-05 5.778596e-06 -8.552776e-07
-8.755951e-06 -2.113874e-05 -4.113336e-22
2.189664e-05 -5.778596e-06 -8.552776e-07
-1.296845e-05 -1.503203e-05 -1.001662e-06
-1.065239e-05 1.921199e-05 -1.494238e-06
1.135188e-05 1.674234e-05 1.368792e-06
1.135188e-05 -1.674234e-05 1.368792e-06
1.815877e-05 1.357070e-05 8.148514e-07
1.815877e-05 -1.357070e-05 8.148514e-07
-2.256765e-05 -1.886522e-06 -8.551695e-07
-4.344023e-06 1.978886e-05 1.391034e-06
4.641051e-06 1.897187e-05 -1.800831e-07
-7.825558e-06 -2.150054e-05 -4.113336e-22
[...]
POINT_DATA 2077
VECTORS 10.000GHz_fone_imag double
-6.747078e+09 2.662727e+10 6.258136e+08
-2.190461e+10 -4.708804e+09 -2.995518e+08
-1.036985e+10 2.097475e+10 -5.539607e+07
1.587797e+10 2.466899e+10 3.258840e+09
4.255139e+10 7.669101e+09 -9.552886e+08
2.310396e+10 -1.169382e+10 1.394089e+09
-1.451425e+10 -2.142376e+10 2.116301e+08
1.731860e+10 -2.973740e+10 4.089603e+08
-2.822975e+10 -1.848355e+10 -4.559187e+09
2.633308e+10 -1.977280e+10 1.534108e+09
-1.504086e+10 4.555473e+10 -9.018176e+08
-6.552298e+09 2.187988e+10 -1.489819e+09
2.866765e+10 1.569193e+10 -1.455874e+09
-7.642101e+09 2.824497e+10 -3.593489e+09
3.067548e+10 2.240583e+10 -1.233316e+09
1.183597e+10 -1.628276e+10 -8.896371e+08
-9.916773e+09 -1.753364e+10 5.957722e+08
-1.782092e+10 1.493153e+10 1.571422e+09
1.034640e+10 -3.710238e+10 -1.092507e+08
-1.025396e+10 -3.704611e+10 1.408996e+08
-4.242263e+10 -5.295990e+09 1.043890e+09
1.510915e+10 -2.856252e+10 1.006461e+08
-1.046751e+10 2.855727e+10 -3.098605e+09
-1.647737e+10 -3.158888e+10 -4.841315e+08
2.289984e+10 2.805551e+10 4.078173e+08
-2.183724e+10 -1.629645e+10 -1.366689e+09
2.206343e+10 -1.647333e+10 1.406704e+09
1.005898e+10 3.166969e+10 1.164095e+08
-1.050373e+10 -3.831984e+10 -4.579052e+08
1.400624e+10 -3.727597e+10 3.583222e+09
-3.241909e+10 1.122973e+10 2.663245e+09
-3.203261e+10 -4.194482e+09 -6.565441e+08
6.088361e+09 -2.458787e+10 -3.103116e+09
-1.102726e+10 2.051811e+10 1.017994e+09
-4.101721e+09 -2.033925e+10 2.078803e+09
3.383918e+10 9.703789e+09 3.640984e+08
-8.862677e+09 -3.060746e+10 -8.329967e+08
1.096969e+10 -3.867021e+10 -1.038730e+08
2.536996e+10 -1.209783e+10 3.288019e+09
-2.522859e+10 -1.209927e+10 -3.189688e+09
3.237453e+10 -3.098092e+10 -6.728337e+08
2.106184e+10 2.683715e+10 3.108980e+09
1.167719e+10 5.302102e+10 -8.396625e+08
-2.447277e+10 -3.042821e+09 4.942841e+07
-7.535595e+09 2.052100e+10 -3.220638e+09
-3.083754e+10 2.285717e+10 -2.342786e+09
-1.726040e+10 2.895394e+10 -3.252998e+08
-2.600798e+10 -2.406384e+10 -2.029700e+09
-4.105880e+09 4.080343e+10 -2.033669e+08
3.997825e+10 1.340735e+10 -2.210930e+09
-1.323930e+10 1.997955e+10 -2.146851e+09
2.006480e+10 2.302515e+10 -9.768546e+08
-1.098433e+10 -3.857042e+10 4.351715e+09
9.342603e+09 -3.757938e+10 -5.130411e+09
1.714235e+10 2.809006e+09 -3.007882e+08
-1.040622e+10 1.765888e+10 -3.913070e+08
-2.308005e+10 1.530706e+10 -1.134032e+09
-2.726120e+10 1.508169e+10 6.957839e+08
2.438434e+08 -2.148231e+10 1.398625e+09
1.878274e+09 -2.135339e+10 1.270356e+09
-2.283013e+10 -1.966337e+10 1.591132e+09
2.112315e+10 -1.846955e+10 -1.191072e+09
-3.150238e+10 1.190016e+10 1.368044e+09
2.858331e+09 -3.036781e+10 -1.654273e+09
-2.750829e+09 -3.689610e+10 -1.246988e+09
-1.620825e+10 -1.409709e+10 -3.182250e+09
-9.234789e+09 1.863561e+10 5.131520e+08
1.879155e+10 -1.517148e+10 2.850550e+09
4.017874e+09 3.630269e+10 -1.298959e+08
3.240023e+10 1.197342e+10 -1.366195e+09
1.483185e+10 -4.797972e+10 1.556381e+08
-1.485501e+10 -4.800615e+10 -4.455522e+07
-2.916974e+10 3.080252e+10 3.787155e+08
1.505743e+10 2.108170e+10 -1.357556e+09
-1.881389e+10 1.775435e+10 2.121164e+09
3.529302e+10 -4.648331e+09 -3.149087e+09
-3.996746e+10 2.893514e+08 -3.145492e+09
-1.198825e+10 1.465729e+10 1.471088e+08
3.208521e+10 6.579065e+08 1.883201e+09
-3.089358e+10 -1.319118e+10 -2.018948e+09
3.048143e+10 -1.200905e+10 4.113070e+08
1.944826e+10 1.026840e+10 -5.017770e+08
3.756211e+10 -2.125226e+09 9.693775e+08
3.743887e+10 1.264090e+10 1.432194e+08
-3.686569e+09 -3.503012e+10 1.486426e+09
2.975565e+09 -3.185110e+10 -1.597838e+09
1.069682e+10 2.339593e+10 2.515672e+08
1.061695e+10 1.855518e+10 -2.929786e+08
-1.215305e+10 2.093257e+10 -6.410976e+07
-2.638066e+10 -2.081003e+10 -2.276144e+09
2.390024e+10 -1.890044e+10 1.748688e+09
-1.537078e+10 3.207212e+10 -4.684443e+09
4.667766e+10 -6.171239e+09 1.863545e+09
-3.319593e+10 1.683396e+10 1.544461e+08
-3.444538e+10 -1.007150e+10 -3.837356e+09
5.532705e+09 2.279901e+10 -1.802957e+09
1.400881e+10 2.777462e+10 2.041473e+08
1.001863e+10 3.317622e+10 7.108877e+08
-2.282326e+10 3.741527e+09 1.522833e+09
-1.656985e+10 1.895247e+10 -1.849644e+09
-9.739773e+09 4.184964e+10 1.550310e+08
3.832731e+09 -1.755206e+10 4.012628e+08
-5.511610e+09 -2.319544e+10 -4.712505e+08
2.865403e+10 1.730841e+10 2.011286e+09
-2.568758e+10 1.725928e+10 1.882840e+09
3.008558e+10 -8.527781e+09 -1.635474e+06
-3.632753e+10 1.131523e+10 5.991534e+08
-1.270477e+10 3.763297e+10 -9.963864e+08
2.377995e+10 -7.319257e+09 -1.425288e+09
-2.669265e+09 2.738257e+10 -4.981853e+08
-1.387006e+10 1.648760e+10 1.286234e+09
-1.713355e+10 2.679732e+10 -6.313317e+08
-2.723727e+10 -1.917794e+09 5.409315e+08
2.073473e+10 -2.938931e+10 -1.541281e+09
-2.664218e+10 -2.687133e+10 -3.077439e+09
-2.394191e+10 -6.613807e+09 1.764292e+09
-1.790856e+10 -3.951660e+10 4.817101e+09
1.685543e+10 -3.876116e+10 -3.671429e+09
3.490909e+10 4.909675e+09 -2.193031e+09
-2.214643e+10 2.168094e+10 9.561556e+08
-2.487792e+10 1.776118e+10 -7.782867e+08
-1.366804e+10 1.602034e+10 -2.021475e+08
-3.520303e+10 5.435009e+09 7.482317e+08
9.939630e+09 2.438977e+10 3.862478e+09
1.999755e+10 4.090759e+08 9.302664e+08
-1.841374e+10 4.904029e+10 6.381642e+08
3.882454e+10 1.141720e+10 -4.146903e+08
-4.729896e+10 -4.469128e+09 1.176045e+09
-1.946879e+10 1.589447e+09 -3.640025e+09
-3.270479e+10 -4.696297e+09 -6.597745e+08
2.776655e+10 1.610599e+09 -8.720970e+08
2.901812e+10 3.845448e+09 4.551631e+08
-1.688854e+10 1.693083e+10 -2.246422e+09
1.300440e+10 -3.156144e+10 3.142413e+08
-1.281802e+10 -3.164426e+10 -2.161888e+08
-3.080250e+10 1.610341e+09 1.092670e+08
-2.427243e+10 2.591353e+10 -6.957974e+08
3.232827e+10 4.694521e+09 -1.586108e+09
-3.047610e+10 -4.212181e+09 -5.902581e+08
6.870748e+09 4.421923e+10 -4.281349e+08
3.702419e+10 -4.935704e+09 5.861132e+08
3.217599e+10 -1.601540e+10 1.214547e+09
-3.295383e+10 -1.463091e+10 -2.101839e+09
-1.670630e+10 1.370790e+10 -2.803497e+08
7.889795e+08 -2.303010e+10 2.155781e+09
-1.896692e+09 -2.356100e+10 8.195918e+08
-3.847675e+10 -8.623976e+09 -5.391138e+09
-2.778999e+10 2.292332e+10 -1.726722e+09
3.025079e+10 5.444503e+09 -1.122012e+09
-1.456855e+10 1.782894e+10 6.845321e+08
7.302007e+09 2.667791e+10 -3.610178e+08
3.322586e+10 7.734790e+08 1.583092e+09
1.038900e+10 1.662304e+10 5.332446e+08
-1.168524e+10 -2.936106e+10 -1.936355e+09
-1.683901e+10 1.719454e+10 -1.942534e+07
1.219399e+10 -3.080793e+10 2.073900e+09
2.087972e+10 -2.165007e+10 1.249486e+09
-2.838812e+10 -1.201777e+10 -9.920960e+07
3.049033e+10 -1.355229e+10 7.888341e+08
-1.999837e+10 -3.468949e+10 -1.077816e+09
2.067933e+10 -2.456537e+10 3.393218e+09
-2.017407e+10 -2.662148e+10 1.674968e+09
1.804377e+10 -2.366563e+10 9.019523e+08
4.145455e+09 4.185675e+10 5.114810e+09
-3.027384e+09 5.434908e+10 -1.838796e+08
-2.478595e+10 1.884533e+10 -4.309942e+08
-6.253503e+09 -2.160995e+10 1.525639e+09
6.400903e+09 -2.180270e+10 -1.327469e+09
-2.036012e+10 1.465430e+10 3.387246e+08
3.793196e+10 5.968011e+09 1.839576e+08
1.450224e+10 -1.921890e+10 1.356829e+09
-1.679232e+10 -2.893616e+10 1.048059e+08
-2.033942e+10 1.535314e+10 4.503133e+08
9.696393e+09 2.961793e+10 1.057638e+09
2.499954e+10 3.682891e+10 8.902713e+08
2.657278e+09 2.769605e+10 -1.235959e+09
-2.725709e+10 1.917782e+10 1.901023e+09
-1.462843e+10 1.882810e+10 1.609557e+09
-2.497528e+10 -2.372647e+10 -8.394606e+08
2.360625e+10 -2.528860e+10 -5.501185e+08
3.230545e+10 4.414515e+10 1.783233e+09
-6.942931e+08 3.589492e+10 -9.886342e+08
2.228405e+10 1.976240e+10 1.675676e+09
3.617875e+10 1.034521e+10 2.553490e+08
8.879792e+09 1.695421e+10 -1.185145e+08
2.549884e+10 4.492100e+09 1.075182e+08
2.796292e+10 -1.580155e+10 4.288458e+09
-2.619101e+10 1.512761e+10 1.887676e+09
-2.761177e+10 -1.571009e+10 -4.238326e+09
-2.932149e+09 2.574697e+10 -3.577652e+08
3.182311e+09 -2.857090e+10 4.435999e+08
-4.016783e+08 -2.964724e+10 3.436729e+07
1.660418e+09 3.751467e+10 1.173048e+09
9.823409e+09 -2.003675e+10 9.668898e+08
-1.627121e+10 -2.228715e+10 -1.075406e+09
3.394239e+09 3.191188e+10 -9.192661e+08
2.562563e+10 -6.786686e+09 2.119109e+09
-2.843678e+10 -1.003409e+10 -8.526724e+08
-2.172855e+10 1.237582e+10 -2.560849e+09
8.597242e+08 2.836092e+10 1.193193e+09
2.489778e+10 -1.058849e+10 3.657066e+08
-2.925800e+10 -1.139544e+10 3.511648e+09
-1.190944e+09 2.004202e+10 5.937436e+08
-2.924503e+10 4.023016e+10 -2.566525e+09
1.017308e+10 3.017600e+10 -3.082281e+09
-1.945299e+10 -1.246810e+10 1.023149e+08
1.944034e+10 -1.248138e+10 -9.495192e+07
6.647625e+09 1.588260e+10 1.740663e+09
-3.058837e+10 -1.446883e+10 1.607875e+09
-1.833834e+10 1.017922e+10 3.360553e+08
3.223514e+10 -1.406273e+10 -2.970529e+09
-3.332528e+10 1.931242e+10 -7.133605e+08
8.964675e+09 -4.276453e+10 2.025339e+09
-8.924148e+09 -4.283590e+10 -2.079805e+09
1.299063e+10 2.758666e+10 3.364719e+08
-2.141152e+10 -1.883944e+10 -1.351763e+08
2.279297e+10 -1.933067e+10 1.642011e+09
-7.403171e+09 2.721152e+10 1.824360e+09
-1.575105e+10 -1.886358e+10 8.256664e+08
3.203471e+10 2.011996e+10 -5.347399e+09
-2.962890e+10 1.250666e+10 2.240038e+09
-3.520942e+10 -5.042239e+09 -8.041177e+08
3.242192e+10 -8.447799e+09 -1.856759e+09
-4.373820e+10 -1.544673e+10 -5.560662e+08
7.855721e+09 2.738856e+10 -1.874530e+09
-2.862752e+10 3.842179e+09 1.385447e+09
1.928033e+10 -1.569727e+10 -7.329212e+08
-1.880513e+10 -1.584784e+10 9.414093e+08
-1.888048e+10 3.737419e+10 -3.003867e+09
-3.001687e+10 -1.392771e+09 1.043801e+09
6.930329e+09 -2.974361e+10 -7.768487e+08
-2.242309e+10 1.001753e+10 1.012750e+09
-6.913571e+09 -2.969124e+10 7.573855e+08
-2.772638e+10 2.523286e+10 2.711344e+09
1.912041e+10 1.017261e+10 3.863052e+08
2.249912e+10 -1.619222e+10 1.337068e+09
-2.278749e+10 -1.603434e+10 -1.533468e+09
1.138514e+10 -1.800459e+10 -3.227496e+08
-1.147874e+10 -1.600903e+10 -3.316101e+08
-2.581521e+09 3.296506e+10 1.061840e+09
4.957483e+10 1.170569e+10 1.270622e+09
3.269574e+10 -8.229142e+09 -1.330073e+09
-2.711939e+10 9.540659e+09 1.071929e+09
-2.798906e+10 1.502144e+10 -1.153340e+09
-2.742759e+10 -9.505055e+09 -1.061506e+09
2.216967e+10 -8.331078e+09 2.082848e+09
2.328524e+10 -3.294102e+09 4.436084e+07
3.878614e+10 -1.877892e+09 -8.342453e+08
-3.057780e+10 -1.448562e+09 4.201700e+07
-3.643384e+10 -3.224346e+10 -2.401949e+08
2.309173e+10 -1.985156e+10 3.423420e+09
-2.064211e+10 1.171328e+10 3.081176e+09
5.964850e+09 2.982300e+10 8.579315e+07
-2.000781e+10 3.892714e+09 -6.278004e+08
2.823409e+10 1.904967e+10 -7.081188e+08
2.686009e+10 2.083019e+09 2.113148e+09
1.243400e+10 3.218094e+10 -1.358099e+09
2.857309e+10 -2.087988e+10 -2.122036e+09
-2.872761e+10 -2.107782e+10 2.239694e+09
3.581840e+10 -2.652276e+10 3.943111e+08
-3.640216e+10 -2.666868e+10 2.717459e+09
-2.517667e+10 4.813318e+09 1.495348e+09
-6.676312e+09 2.175914e+10 -1.019324e+09
2.060741e+10 2.004596e+09 1.179489e+09
-1.898810e+10 6.814233e+09 -1.113147e+08
4.277217e+10 3.051458e+10 -1.844619e+09
1.639334e+10 3.396326e+10 -1.624602e+09
-4.623626e+09 2.791080e+10 5.480681e+08
-2.937847e+10 -3.534746e+09 2.017952e+09
-2.577748e+10 1.922105e+10 2.575729e+09
2.974254e+10 1.407283e+10 -2.475040e+07
2.945063e+09 4.288908e+10 5.109664e+07
3.010967e+10 8.478003e+09 3.299245e+09
-3.369374e+10 6.673838e+09 1.662514e+09
-8.889340e+09 2.247000e+10 -1.466300e+09
-2.805829e+10 6.264788e+09 -8.283454e+08
2.850399e+10 2.925669e+10 -1.604584e+09
1.609717e+10 -2.999168e+10 -3.685288e+09
-1.663209e+10 -2.974271e+10 8.296476e+08
-1.022805e+10 3.185465e+10 -9.710967e+08
-4.052629e+10 -9.206171e+09 1.996511e+09
-2.025303e+10 2.259970e+10 -1.030972e+09
2.183483e+10 -3.147537e+09 4.395732e+08
1.198152e+10 2.251651e+10 1.903125e+07
-4.121640e+10 5.605173e+09 3.586834e+09
1.870607e+10 2.877137e+10 2.542507e+09
-2.263323e+10 1.042452e+09 -1.743389e+08
-7.957340e+09 2.826984e+10 -4.814474e+08
2.434143e+09 3.469664e+10 1.248396e+09
-3.149286e+10 2.796673e+10 -1.431483e+09
2.382112e+10 2.729070e+09 3.746389e+08
8.620800e+09 2.167034e+10 7.104180e+08
-4.532046e+10 -3.567382e+09 8.324872e+08
3.259538e+10 4.734842e+08 1.312267e+09
2.969449e+10 -1.292878e+10 -1.795108e+09
-2.841711e+10 -1.347656e+10 9.682673e+07
1.741118e+10 6.280190e+09 1.267812e+09
-1.725220e+10 2.919018e+09 1.014444e+09
1.750656e+10 -1.110732e+10 -3.335480e+08
-1.749939e+10 -1.114470e+10 4.015334e+08
3.343682e+10 8.021041e+09 -1.535008e+09
3.646685e+09 2.164939e+10 2.045203e+08
-1.609257e+10 3.005510e+10 -3.113757e+08
-2.919873e+10 2.659777e+10 -1.258225e+09
-2.561793e+10 1.593469e+10 -1.496331e+09
3.184368e+10 3.381396e+10 3.805559e+08
-4.100333e+10 -3.991386e+09 1.457173e+09
3.324592e+10 2.006509e+09 2.643217e+09
-2.087083e+10 2.876420e+09 -2.530615e+09
-3.247567e+10 1.678321e+10 -5.776632e+08
-1.984143e+10 1.262036e+10 -7.533624e+08
-7.457775e+09 -2.562209e+10 -5.310440e+08
6.897474e+09 -2.659207e+10 2.024020e+08
-2.902492e+10 5.337337e+10 -1.621242e+08
-3.955413e+10 -6.324276e+09 -1.480847e+09
-2.142177e+10 -8.469691e+09 6.975576e+08
2.194596e+10 -1.074598e+10 9.190468e+08
1.316375e+10 2.596397e+10 -3.032205e+08
2.358531e+10 2.714567e+10 -9.995264e+08
-3.121747e+10 1.940171e+09 5.291283e+08
3.124779e+10 -1.414780e+10 5.254031e+08
-2.986345e+10 -1.514760e+10 3.727324e+09
-1.547562e+10 2.798477e+10 5.508246e+07
-3.396718e+10 2.179775e+10 2.464182e+09
1.467302e+10 1.275174e+10 2.467189e+08
1.183023e+10 2.836360e+10 -1.474353e+09
9.911769e+09 -2.267661e+10 -2.888999e+08
-1.290343e+10 -3.136480e+10 5.310451e+08
-3.544169e+10 1.912329e+09 -8.181281e+08
4.754923e+10 -1.209288e+10 -6.677991e+08
-3.209017e+10 -2.638911e+08 9.822121e+08
-3.753337e+10 -5.134819e+09 -2.379225e+09
2.757041e+09 -2.557527e+10 1.904720e+09
-2.875150e+09 -2.608507e+10 -1.970496e+09
-3.515522e+10 8.230260e+09 3.102045e+08
3.030186e+10 -3.018598e+10 -3.160791e+09
-2.693280e+10 -2.438820e+10 2.111486e+08
-1.805427e+10 1.457824e+10 -1.837111e+09
-3.466836e+10 -2.856159e+10 7.795761e+08
3.454551e+10 -2.667926e+10 -1.238669e+09
-3.950089e+10 9.041134e+09 5.788212e+08
-2.508670e+10 -1.621487e+09 -8.591500e+08
1.998593e+10 1.319742e+10 1.149397e+09
3.477340e+10 1.205855e+08 -3.479399e+09
-3.193420e+10 6.774082e+09 -3.065536e+09
2.655607e+10 4.018923e+10 -3.894603e+08
-9.809780e+09 3.025681e+10 1.023132e+09
-1.800086e+10 1.615395e+10 -1.768895e+09
1.675823e+10 1.023372e+10 -1.287774e+09
-2.404264e+10 1.499177e+10 -2.257272e+09
-3.015996e+10 1.168844e+10 -1.981460e+09
-3.024885e+10 -1.286541e+10 -4.949544e+08
-2.743439e+10 -1.760248e+09 2.227875e+09
3.206923e+10 -1.637251e+10 1.777370e+09
3.983790e+10 -7.509868e+09 9.400951e+08
-7.071302e+09 -2.983255e+10 3.590901e+09
1.056295e+10 -2.959771e+10 -3.342431e+09
2.865371e+10 1.091061e+09 4.683717e+08
-1.329095e+10 -4.747169e+10 -3.406165e+08
1.154278e+10 -4.455422e+10 8.174525e+07
1.429413e+10 2.992615e+10 -3.842131e+09
3.721280e+10 2.451596e+10 -2.088131e+09
-2.341202e+09 3.490265e+10 6.329286e+08
-3.023117e+10 -3.979397e+09 -8.536887e+08
-1.837680e+10 9.155814e+09 -2.051922e+09
2.197525e+10 1.776586e+10 8.414625e+08
-3.020876e+10 4.096729e+09 -1.580617e+09
-1.830234e+10 3.143345e+10 -2.899517e+08
3.911903e+09 5.338468e+10 7.750063e+08
-2.473615e+10 6.032578e+09 1.940584e+09
-7.310082e+07 2.860155e+10 3.562465e+08
-2.696222e+10 2.622980e+10 1.236159e+09
-2.506439e+10 8.395503e+09 -9.002742e+08
4.012793e+10 -3.272825e+10 -1.087455e+09
-2.553187e+10 -4.101122e+09 -1.145388e+09
-2.675477e+10 -2.180578e+10 4.461249e+08
4.038519e+10 -5.028950e+09 2.673381e+09
3.484037e+10 -1.712626e+10 -7.655015e+08
-3.242385e+10 -1.600336e+10 7.431936e+08
-4.269452e+10 1.363493e+10 1.308447e+09
-2.203222e+10 5.606197e+09 6.787983e+08
-2.646108e+10 6.867828e+08 1.538560e+08
2.618454e+10 2.738199e+09 -2.102536e+09
2.253163e+09 -5.202618e+10 5.253856e+08
-1.823491e+09 -3.862442e+10 5.264570e+09
-3.052341e+10 -6.576897e+09 1.651939e+09
3.831935e+10 -3.093555e+10 -1.600370e+09
-4.317756e+10 -3.586570e+10 8.394811e+08
-3.004856e+10 1.069466e+10 -2.429592e+08
2.164617e+10 -2.550858e+10 -1.154298e+09
-1.081320e+10 -1.947165e+10 -1.739111e+09
9.997137e+09 -3.475351e+10 -2.233761e+09
-9.913881e+09 -3.458405e+10 2.343208e+09
3.168750e+10 -3.915478e+09 -5.163805e+09
-4.054761e+10 -1.119908e+10 2.870983e+08
-1.555873e+10 -3.597723e+10 6.234277e+08
-2.400853e+10 -6.130131e+09 8.562701e+08
1.764444e+10 -3.410865e+10 -5.254663e+09
-3.229523e+10 2.096384e+10 1.961787e+09
1.749045e+10 -3.621992e+10 2.461106e+09
-2.263468e+10 -4.535093e+10 -2.846009e+08
-3.288182e+09 3.097085e+10 -2.475481e+09
-1.438225e+10 1.820762e+10 -1.372496e+08
1.740209e+10 1.695965e+10 3.892188e+08
-1.440229e+10 1.858511e+10 2.850508e+09
2.609400e+10 1.943541e+10 1.243821e+09
-3.968012e+10 2.668150e+10 7.854713e+08
-2.927119e+10 -8.764648e+09 -5.297254e+08
-1.984366e+10 -7.037079e+09 3.764016e+08
2.006753e+10 -6.721744e+09 -5.406092e+08
-2.831243e+09 4.260636e+10 -2.925649e+09
-2.007965e+10 1.383340e+10 -4.077369e+08
-1.309530e+10 -3.160079e+10 -6.746702e+08
1.302313e+10 -3.327579e+10 1.009549e+09
-2.219709e+10 3.387200e+10 1.922206e+08
2.974881e+10 -2.249044e+09 1.657296e+08
-6.513003e+09 3.113530e+10 2.990193e+09
9.910994e+09 -2.333206e+10 -1.961784e+09
-2.023799e+10 -9.769397e+09 -9.386506e+08
-1.104746e+10 -2.011448e+10 -1.216223e+09
1.937127e+10 -3.991726e+10 1.100794e+08
-1.959280e+10 -3.139728e+10 -1.033085e+09
1.670693e+10 -2.720277e+10 1.007506e+09
-1.563271e+10 -3.053417e+10 -1.207564e+09
2.800748e+10 2.247329e+10 -9.475850e+08
-1.695612e+10 3.075341e+10 2.705008e+08
-3.223824e+10 -2.399189e+08 -1.491942e+09
-2.822594e+10 5.076454e+10 1.730988e+09
-2.300287e+10 -8.020079e+09 -2.713238e+09
-2.289246e+10 -6.890472e+09 -6.727046e+08
-3.553562e+10 1.394755e+10 1.257820e+09
-2.345323e+10 2.199111e+10 -6.157486e+08
3.271986e+10 1.958928e+10 1.272745e+09
-2.958307e+10 3.531618e+10 2.173626e+09
-3.921764e+10 1.895252e+10 -1.522172e+09
2.635554e+10 1.237250e+09 -3.662920e+09
-1.993234e+10 -2.334229e+10 6.542355e+08
2.712557e+10 -3.060350e+10 7.406751e+08
2.419409e+10 -7.879745e+08 2.275776e+08
-6.405772e+09 -4.252416e+10 8.478864e+07
-2.719511e+10 -1.233601e+10 -1.193145e+09
3.802501e+09 -2.951387e+10 -9.381797e+08
-1.172748e+10 -4.814704e+10 -1.185274e+09
1.163624e+10 -4.804505e+10 1.733940e+09
1.119367e+10 2.048154e+10 1.038832e+09
-1.748234e+10 2.424539e+10 7.987738e+08
-4.388432e+10 -4.150895e+09 -8.765131e+07
-1.509606e+10 -9.936180e+09 -6.609705e+08
1.690798e+10 -1.071004e+10 2.402170e+08
-1.303763e+10 -1.635361e+10 -1.893898e+09
2.622523e+10 2.973895e+10 6.220464e+08
-1.916888e+10 -1.078196e+10 -1.010834e+09
-3.485859e+10 -3.741054e+10 1.698885e+09
3.208908e+10 -3.369711e+10 -9.850757e+08
3.274213e+10 1.035416e+10 9.166950e+08
2.991215e+10 2.355398e+10 5.604622e+09
-2.824221e+10 6.966364e+09 2.712940e+08
-7.312873e+09 -1.676550e+10 8.848102e+07
9.120352e+09 -2.119259e+10 -2.343958e+09
-4.796096e+10 1.117872e+10 -2.107240e+09
6.129675e+08 5.423560e+10 -1.665712e+09
2.886049e+10 1.430185e+09 2.872019e+09
-1.825348e+10 -1.297028e+10 1.519616e+09
9.833168e+09 3.343849e+10 -3.869928e+08
2.949646e+10 -6.273710e+09 4.195699e+09
-1.382356e+10 2.033785e+10 1.077160e+09
-1.930513e+10 -1.523031e+10 1.198381e+08
1.962104e+10 -1.503055e+10 -4.797373e+08
2.460700e+10 2.963387e+10 1.161671e+09
3.970442e+09 5.189334e+10 -4.090617e+08
-2.601092e+10 -1.906394e+10 -6.404856e+08
2.613262e+10 -1.934407e+10 6.770313e+08
-2.173548e+10 -9.975725e+08 -2.390155e+08
-1.884745e+10 -9.286864e+09 -1.584156e+09
-2.233540e+10 -2.843073e+10 -1.013332e+09
2.527161e+10 -3.596108e+10 -2.969953e+07
-2.451667e+10 2.107548e+10 7.395658e+08
3.030166e+10 5.625590e+09 9.356318e+08
-2.202474e+10 3.456246e+10 -2.406341e+08
-2.292700e+10 -5.125050e+09 8.225434e+08
3.264837e+10 9.063770e+08 -4.227356e+07
-9.653012e+09 -4.750707e+10 3.214503e+07
5.873410e+09 -2.835866e+10 -5.640769e+09
-1.992740e+10 2.631497e+10 2.124125e+08
-2.192964e+10 -1.486351e+10 4.209188e+08
5.114801e+09 3.259865e+10 3.578259e+08
-3.650564e+10 2.644521e+10 2.771154e+08
-3.874252e+10 1.542894e+10 9.716635e+07
3.983057e+10 -1.908019e+10 -9.488413e+08
-3.896548e+10 -1.874078e+10 9.104722e+08
3.177250e+10 -9.808285e+09 6.254780e+08
-2.849680e+10 -8.173107e+09 3.978974e+08