# vtk DataFile Version 2.0
Electric current density generated by TTH
ASCII
DATASET UNSTRUCTURED_GRID
POINTS 7512 double
2.461129e-05 2.901972e-05 -1.650504e-22
-3.001667e-05 2.219314e-05 6.722431e-07
-2.210517e-05 2.978872e-05 6.118758e-07
-2.109721e-05 3.062058e-05 6.459241e-07
-2.006703e-05 3.131184e-05 6.475183e-07
-1.901142e-05 3.196375e-05 6.475119e-07
-2.305741e-05 2.935702e-05 6.721893e-07
-2.587210e-05 2.658272e-05 6.118758e-07
-2.488003e-05 2.762496e-05 6.436470e-07
-2.675843e-05 2.602816e-05 6.721893e-07
-1.113157e-05 3.538495e-05 6.118758e-07
2.428705e-05 2.929162e-05 -1.650504e-22
-9.776466e-06 3.586886e-05 6.436470e-07
-1.222441e-05 3.527180e-05 6.722431e-07
-1.487127e-05 3.398311e-05 6.118758e-07
-1.621056e-05 3.345702e-05 6.436470e-07
-1.403094e-05 3.458196e-05 6.714603e-07
-5.382074e-06 3.670204e-05 6.118758e-07
-6.812695e-06 3.654780e-05 6.436470e-07
-4.402971e-06 3.706876e-05 6.721893e-07
1.092589e-05 -3.576250e-05 -6.736449e-07
1.090711e-05 3.576779e-05 -6.736558e-07
2.395981e-05 2.955989e-05 -1.650504e-22
3.481475e-05 1.375337e-05 6.715374e-07
1.250441e-05 3.522994e-05 -6.738391e-07
1.251994e-05 -3.522837e-05 -6.737936e-07
-2.610005e-05 -2.588519e-05 -2.699046e-07
2.819582e-05 2.349926e-05 4.452220e-08
2.049299e-05 3.131836e-05 6.719808e-07
1.987660e-05 3.087877e-05 1.628335e-07
2.049299e-05 -3.131836e-05 6.719808e-07
1.987660e-05 -3.087877e-05 1.628335e-07
3.446748e-05 -1.264867e-05 1.268513e-07
2.362961e-05 2.982451e-05 -1.650504e-22
3.121262e-07 -3.742204e-05 6.722660e-07
-7.178771e-07 -3.710863e-05 6.211401e-07
-4.304477e-06 -3.701724e-05 6.647949e-07
2.746223e-05 2.553167e-05 -6.630414e-07
1.404569e-05 -3.467472e-05 -6.729814e-07
1.410702e-05 3.465914e-05 -6.724820e-07
2.879284e-05 -2.276827e-05 7.540955e-08
-2.170249e-05 -3.034423e-05 6.701777e-07
-2.082898e-05 -3.091226e-05 6.660995e-07
2.367888e-05 2.877668e-05 -6.647547e-07
2.329649e-05 3.008543e-05 -1.650504e-22
2.277234e-05 2.918972e-05 -5.727708e-07
2.213280e-05 2.996524e-05 -6.623599e-07
-3.431849e-05 -1.497571e-05 6.705488e-07
2.431617e-06 3.737692e-05 6.692173e-07
-3.524062e-05 -1.265421e-05 6.705488e-07
4.865650e-06 3.713785e-05 6.692988e-07
7.343187e-06 3.671659e-05 6.705488e-07
1.387254e-05 -3.398043e-05 1.041932e-08
-1.394192e-05 -3.475839e-05 6.698615e-07
3.691922e-05 2.380369e-06 -5.558201e-07
2.296049e-05 3.034264e-05 -1.650504e-22
3.691922e-05 -2.380369e-06 -5.558201e-07
2.286606e-05 -2.931805e-05 -6.446810e-07
2.210761e-05 -2.999700e-05 -6.642569e-07
-3.351830e-05 -1.539491e-05 4.602557e-07
-3.447016e-05 -1.312584e-05 4.602557e-07
3.059329e-06 3.675759e-05 4.602557e-07
5.503319e-06 3.647181e-05 4.602557e-07
7.922816e-06 3.602372e-05 4.602553e-07
2.375513e-05 -2.902855e-05 -6.606906e-07
-2.419486e-05 -2.857099e-05 6.709828e-07
2.262164e-05 3.059610e-05 -1.650504e-22
1.882192e-05 3.151885e-05 1.038701e-07
1.879351e-05 -3.153610e-05 1.055332e-07
-3.744493e-05 -1.280259e-06 6.678418e-07
-1.700400e-05 3.339066e-05 6.672718e-07
-2.807717e-05 2.480795e-05 6.678418e-07
-3.327819e-05 -1.721407e-05 6.678418e-07
-2.632472e-06 3.737422e-05 6.678418e-07
-9.134714e-06 3.634047e-05 6.672706e-07
-3.695181e-05 6.190786e-06 6.678418e-07
-7.595749e-06 3.669301e-05 6.672706e-07
2.228000e-05 3.084577e-05 -1.650504e-22
-2.452678e-05 2.832312e-05 6.678418e-07
-3.578086e-05 -1.111365e-05 6.678034e-07
-1.839356e-05 3.264623e-05 6.672201e-07
-3.069394e-05 -2.148640e-05 6.678034e-07
9.748505e-06 3.617666e-05 6.678021e-07
2.604244e-05 2.614154e-05 -4.758217e-07
3.527366e-05 1.294702e-05 -6.441887e-07
3.427930e-05 1.379036e-05 -5.207708e-07
1.077544e-05 -3.508674e-05 3.787743e-08
1.077544e-05 3.508674e-05 3.786948e-08
2.193561e-05 3.109162e-05 -1.650504e-22
4.736848e-06 -3.640498e-05 -1.087636e-07
3.612412e-05 -1.009325e-05 6.610541e-07
3.565545e-05 -1.164955e-05 6.605284e-07
3.380118e-05 -1.430457e-05 2.323733e-08
6.405361e-06 -3.614076e-05 3.626777e-08
3.532089e-05 -9.978380e-06 -2.007315e-08
5.342931e-06 -3.716172e-05 6.528586e-07
3.532506e-05 9.968147e-06 -4.543859e-08
1.386890e-05 3.402606e-05 -2.313309e-07
-8.308703e-06 -3.633129e-05 6.652188e-07
2.158850e-05 3.133364e-05 -1.650504e-22
3.649895e-05 -3.865602e-06 -9.465348e-09
3.649895e-05 3.865602e-06 -9.465348e-09
3.418370e-05 1.553588e-05 -6.516540e-07
-2.642904e-05 -2.665039e-05 6.555005e-07
3.698200e-05 6.433022e-06 6.544860e-07
3.698214e-05 -6.432823e-06 6.544616e-07
2.893195e-05 -2.390456e-05 6.562905e-07
1.892924e-05 -3.236359e-05 6.638070e-07
1.890655e-05 3.241725e-05 6.567535e-07
2.537785e-05 2.766502e-05 -6.533714e-07
2.123872e-05 3.157177e-05 -1.650504e-22
-2.677605e-05 -2.635572e-05 -6.453028e-07
1.527908e-05 -3.337193e-05 2.121799e-08
3.723454e-05 -4.807346e-06 6.529230e-07
3.723454e-05 4.807346e-06 6.529230e-07
3.413525e-05 -1.563381e-05 6.525475e-07
3.339664e-05 -1.650461e-05 6.622630e-07
3.320424e-05 -1.739051e-05 6.655128e-07
3.481468e-05 -1.405354e-05 6.527778e-07
2.588257e-05 2.694502e-05 -6.737115e-07
-1.492229e-05 -3.355458e-05 1.632049e-07
2.088631e-05 3.180600e-05 -1.650504e-22
-1.691940e-05 -3.258052e-05 -1.084710e-07
-1.626862e-05 -3.315506e-05 -5.055847e-07
-6.345382e-06 -3.701136e-05 6.508908e-07
-1.000475e-05 -3.619535e-05 6.505549e-07
3.668570e-05 -8.082507e-06 -6.469327e-07
3.668570e-05 8.082507e-06 -6.469327e-07
3.608226e-05 1.018405e-05 6.639777e-07
-1.435712e-05 -3.412595e-05 5.735047e-07
-2.267915e-05 -2.890007e-05 -2.092690e-07
3.526359e-05 1.199902e-05 -6.616464e-07
2.053132e-05 3.203630e-05 -1.650504e-22
-2.267495e-05 -2.996530e-05 6.432962e-07
3.346046e-05 1.569987e-05 5.299390e-07
3.066891e-05 -2.176533e-05 6.332374e-07
3.090320e-05 -2.080101e-05 6.621403e-07
3.163328e-05 -2.024463e-05 6.494213e-07
3.065116e-05 2.178700e-05 6.339369e-07
3.100314e-05 2.077805e-05 6.716198e-07
3.162926e-05 2.020224e-05 6.561191e-07
3.306109e-05 1.789131e-05 6.387173e-07
1.631950e-05 -3.287569e-05 -2.177779e-08
2.017379e-05 3.226264e-05 -1.650504e-22
-1.862522e-05 -3.232728e-05 -6.704279e-07
7.908890e-06 -3.659604e-05 -6.708224e-07
7.103699e-06 -3.674108e-05 -6.723899e-07
9.579166e-06 -3.621128e-05 -6.691049e-07
3.558909e-05 -1.177443e-05 -6.649324e-07
6.096564e-06 -3.711365e-05 6.318751e-07
3.419562e-05 -1.567509e-05 -6.295864e-07
-8.004740e-06 -3.675335e-05 -6.304166e-07
2.354321e-05 -2.935451e-05 6.247754e-07
2.354699e-05 2.935423e-05 6.239060e-07
1.981377e-05 3.248499e-05 -1.650504e-22
-1.162160e-05 -3.576759e-05 -6.328976e-07
-2.735879e-05 -2.580637e-05 -6.324591e-07
1.336127e-05 3.511854e-05 -6.442733e-07
1.334158e-05 -3.511543e-05 -6.472269e-07
2.989445e-05 -2.275231e-05 -6.462351e-07
-2.153937e-05 -2.974479e-05 -1.692320e-07
-4.612190e-06 -3.718040e-05 -6.680341e-07
1.632458e-05 3.292657e-05 -2.502311e-07
3.321042e-05 -1.576840e-05 2.796157e-07
3.586039e-05 -1.099955e-05 -6.607039e-07
1.945130e-05 3.270332e-05 -1.650504e-22
3.601688e-05 -7.063712e-06 7.349591e-10
3.601705e-05 7.062808e-06 6.057244e-11
3.756836e-05 -1.957633e-06 -6.287465e-07
3.756836e-05 1.957633e-06 -6.287465e-07
3.680178e-05 -6.426205e-06 -6.736221e-07
3.680186e-05 6.426071e-06 -6.736236e-07
3.628941e-05 5.496077e-06 -1.749265e-08
3.628941e-05 -5.496045e-06 -1.749239e-08
1.022123e-05 3.619358e-05 -6.325719e-07
5.371362e-06 -3.668060e-05 -6.008474e-07
1.908642e-05 3.291760e-05 -1.650504e-22
1.514303e-05 3.346614e-05 1.979198e-07
-1.317540e-05 -3.436432e-05 -3.540133e-07
-1.251996e-05 -3.466161e-05 -4.243940e-07
-9.960993e-06 -3.588892e-05 -6.609613e-07
2.123464e-05 -2.994363e-05 -8.757269e-08
2.115452e-05 3.000030e-05 -8.766605e-08
9.234620e-06 -3.552229e-05 7.841281e-11
3.145187e-05 -1.892100e-05 4.551982e-08
3.189821e-05 -1.817216e-05 -1.056476e-07
3.147232e-05 1.888817e-05 5.390632e-08
1.871918e-05 3.312781e-05 -1.650504e-22
1.678381e-05 3.360015e-05 -6.488397e-07
2.753886e-05 -2.560124e-05 -6.356146e-07
3.186279e-05 1.823297e-05 -1.017331e-07
2.528788e-05 -2.662045e-05 1.357105e-07
-1.062034e-06 -3.669113e-05 6.842040e-08
-6.296328e-06 -3.652232e-05 -5.952849e-07
2.683056e-05 2.614899e-05 -6.680433e-07
4.995476e-07 -3.670681e-05 -9.823067e-08
2.894226e-05 2.393970e-05 6.484732e-07
2.261612e-05 -2.905479e-05 3.785971e-07
1.834963e-05 3.333393e-05 -1.650504e-22
2.256528e-05 2.910392e-05 3.895604e-07
2.484140e-05 2.728526e-05 4.757096e-07
-3.546939e-05 -9.486367e-06 1.319370e-07
-1.929278e-05 3.123872e-05 1.319370e-07
-3.269104e-05 1.671420e-05 1.319304e-07
-3.150389e-05 1.885667e-05 1.319304e-07
-3.373271e-05 1.449735e-05 1.319304e-07
-2.921661e-05 -2.223642e-05 1.319304e-07
-3.462425e-05 1.221597e-05 1.319304e-07
-2.766907e-05 -2.413483e-05 1.318648e-07
1.797781e-05 3.353593e-05 -1.650504e-22
-3.536063e-05 9.883454e-06 1.311214e-07
-3.641649e-05 -4.679363e-06 1.311214e-07
-3.661977e-05 2.655061e-06 1.311214e-07
2.943435e-05 2.345399e-05 -6.220496e-07
2.992925e-05 2.277880e-05 -6.316628e-07
2.895158e-05 -2.396734e-05 -6.409488e-07
3.264691e-05 -1.711953e-05 -4.362099e-07
7.142047e-06 3.605459e-05 2.599337e-07
2.275977e-06 3.669709e-05 2.878778e-07
-3.371433e-05 -1.463852e-05 2.599343e-07
1.760376e-05 3.373377e-05 -1.650504e-22
-3.458978e-05 -1.245991e-05 2.833993e-07
4.703715e-06 3.646088e-05 2.780129e-07
-3.600959e-05 -7.132132e-06 9.033935e-08
-1.195921e-06 3.669009e-05 9.382141e-08
-3.595037e-05 7.427243e-06 9.382141e-08
-1.540079e-05 3.332280e-05 9.382141e-08
-2.506091e-05 2.682432e-05 9.382141e-08
-6.066995e-06 3.620476e-05 9.382141e-08
-2.130114e-05 2.989681e-05 9.033935e-08
-1.029847e-05 3.523542e-05 9.382141e-08
1.722754e-05 3.392745e-05 -1.650504e-22
-2.840713e-05 2.325141e-05 9.382141e-08
-3.194609e-05 -1.808426e-05 9.382141e-08
-3.670935e-05 1.306325e-07 9.382141e-08
-4.033434e-06 -3.746320e-05 -6.019972e-07
-2.398082e-05 -2.779302e-05 -8.763787e-08
1.729530e-05 -3.238622e-05 1.267799e-07
-3.669377e-05 9.107173e-07 -5.255355e-08
-3.155063e-05 -1.875686e-05 -5.255355e-08
-2.889135e-05 2.263961e-05 -5.255355e-08
-2.189748e-05 2.945781e-05 -5.255355e-08
1.684918e-05 3.411693e-05 -1.650504e-22
-1.104369e-05 3.500427e-05 -5.255355e-08
-2.562222e-05 2.628238e-05 -5.255355e-08
[...]
POINT_DATA 7512
VECTORS 10.000GHz_fone_imag double
3.788183e+10 -3.188649e+10 -1.839562e+08
3.156567e+10 4.358658e+10 -2.521471e+08
4.435039e+10 3.302857e+10 -7.791754e+08
4.449132e+10 3.136594e+10 1.156092e+08
4.473574e+10 2.740932e+10 -3.756623e+08
4.706219e+10 2.875388e+10 2.738412e+08
4.210655e+10 3.362684e+10 -4.821599e+08
3.941448e+10 3.837856e+10 -8.955146e+08
4.047047e+10 3.619264e+10 -2.985294e+08
3.726344e+10 3.886443e+10 -5.033849e+08
5.188695e+10 1.643772e+10 -5.114821e+08
3.994584e+10 -3.171813e+10 -7.509835e+08
5.239423e+10 1.423641e+10 -2.020162e+08
5.028795e+10 1.811731e+10 -3.821324e+08
5.054990e+10 2.219921e+10 1.067029e+09
4.876785e+10 2.391956e+10 2.647149e+08
4.895721e+10 1.971579e+10 -5.326563e+08
5.469468e+10 8.081507e+09 7.543320e+08
5.340228e+10 9.499655e+09 6.785132e+08
5.308283e+10 6.163520e+09 7.461430e+08
-5.162665e+10 -1.571016e+10 -2.186088e+08
5.214807e+10 -1.545454e+10 -6.834067e+07
3.917025e+10 -3.321658e+10 -4.538119e+08
2.003346e+10 -5.242187e+10 4.166002e+08
5.064145e+10 -1.707792e+10 -4.994440e+08
-5.150611e+10 -1.811361e+10 3.195502e+08
-3.739580e+10 4.099976e+10 -4.871414e+08
3.591718e+10 -4.421486e+10 5.710142e+08
4.576567e+10 -3.015731e+10 -1.022427e+08
4.632216e+10 -3.129623e+10 4.066295e+08
-4.578797e+10 -3.008873e+10 1.273205e+08
-4.633676e+10 -3.130317e+10 -3.336874e+08
-2.004550e+10 -5.300677e+10 -3.487918e+07
4.124526e+10 -3.030551e+10 6.217714e+08
-5.211250e+10 -1.245249e+09 1.184002e+08
-5.558267e+10 1.590467e+09 -6.983925e+08
-5.377193e+10 6.383971e+09 -1.449300e+08
3.582347e+10 -3.827981e+10 1.212843e+09
-5.149542e+10 -2.096661e+10 3.865292e+08
5.004115e+10 -2.155218e+10 9.953084e+08
-3.505712e+10 -4.471765e+10 2.508548e+08
-4.374029e+10 3.243787e+10 6.845522e+08
-4.464650e+10 2.978054e+10 -6.081368e+08
4.234911e+10 -3.227870e+10 -7.166530e+08
3.864399e+10 -3.284929e+10 -4.450033e+08
4.518925e+10 -3.570562e+10 4.706597e+08
4.541509e+10 -3.300379e+10 3.321491e+08
-2.038390e+10 4.925034e+10 -7.888080e+08
5.474954e+10 -3.325199e+09 -3.025819e+08
-1.894504e+10 5.119942e+10 3.697625e+08
5.459201e+10 -4.825542e+09 1.719511e+09
5.340419e+10 -9.549353e+09 7.745652e+08
-5.466795e+10 -2.219950e+10 4.041035e+08
-4.925317e+10 2.079705e+10 -8.557546e+08
4.059319e+09 -5.764647e+10 -1.160325e+09
4.158824e+10 -3.113221e+10 -3.454766e+08
-4.066343e+09 -5.757257e+10 1.160120e+09
-4.405176e+10 -3.440200e+10 -2.887550e+08
-4.369379e+10 -3.283907e+10 -7.425030e+08
-2.295718e+10 5.187760e+10 -1.025291e+09
-2.038683e+10 5.591627e+10 -3.873551e+08
5.807505e+10 -3.018428e+09 1.132544e+09
5.369871e+10 -8.494535e+09 -4.829055e+08
5.513825e+10 -1.204317e+10 6.676320e+08
-4.212840e+10 -3.388887e+10 1.434452e+08
-4.038806e+10 3.356791e+10 -9.064995e+07
4.106672e+10 -2.970519e+10 -2.274546e+08
4.897708e+10 -2.934909e+10 -3.014995e+08
-5.063666e+10 -2.854850e+10 7.776118e+08
-2.377114e+09 5.325493e+10 2.207473e+08
4.679817e+10 2.489072e+10 -2.891502e+08
3.504692e+10 3.980897e+10 3.002616e+08
-2.457409e+10 4.780599e+10 2.507767e+08
5.294153e+10 3.758428e+09 -2.824373e+08
5.175263e+10 1.256433e+10 2.904710e+08
9.226871e+09 5.231037e+10 -6.291915e+07
5.237127e+10 1.133438e+10 -2.237869e+08
4.179829e+10 -3.030188e+10 -4.163509e+08
4.009476e+10 3.472099e+10 3.048543e+08
-1.630332e+10 5.106520e+10 -4.741432e+07
4.870895e+10 2.744088e+10 -1.354597e+08
-3.083853e+10 4.355790e+10 3.691059e+07
5.192474e+10 -1.356760e+10 -1.382757e+08
4.154228e+10 -4.099953e+10 1.850336e+09
1.903280e+10 -5.095352e+10 -3.133904e+08
2.103639e+10 -5.215198e+10 9.649179e+08
-5.530395e+10 -1.570607e+10 -7.920929e+08
5.561107e+10 -1.685552e+10 -3.226994e+08
4.167304e+10 -2.949247e+10 -2.035960e+08
-5.750170e+10 -7.273784e+09 -4.193049e+08
-1.532416e+10 -5.166501e+10 -1.944531e+08
-1.652533e+10 -5.045507e+10 1.001976e+09
-2.124856e+10 -5.137267e+10 -3.391123e+08
-5.561185e+10 -1.072937e+10 3.973509e+08
-1.581386e+10 -5.435186e+10 -3.417897e+08
-5.239386e+10 -8.010481e+09 -4.187228e+08
1.415394e+10 -5.417146e+10 1.829510e+09
5.220264e+10 -2.294820e+10 -6.035981e+08
-5.235263e+10 1.248573e+10 1.594369e+09
4.206049e+10 -2.838740e+10 -1.216205e+08
-4.964217e+09 -5.636851e+10 -4.249701e+08
4.963435e+09 -5.636813e+10 4.204851e+08
2.185380e+10 -4.823720e+10 -9.289187e+08
-3.854108e+10 3.732610e+10 -2.447476e+08
1.041559e+10 -5.226483e+10 -5.507171e+08
-1.040803e+10 -5.230446e+10 5.509249e+08
-3.342438e+10 -4.131541e+10 1.121399e+09
-4.516044e+10 -2.669172e+10 -1.816190e+09
4.598991e+10 -2.766543e+10 6.845102e+08
3.807252e+10 -3.573268e+10 2.233892e+08
4.205477e+10 -2.781752e+10 -1.703061e+08
-3.636153e+10 3.719520e+10 -5.526334e+08
-5.112737e+10 -2.509634e+10 3.608916e+08
-6.932682e+09 -5.250848e+10 -6.982357e+08
6.930605e+09 -5.250243e+10 6.994940e+08
-2.274325e+10 -4.813025e+10 3.798880e+08
-2.325972e+10 -4.666811e+10 3.492149e+08
-2.528656e+10 -4.813012e+10 1.085752e+09
-1.863955e+10 -4.945048e+10 8.368177e+08
3.589064e+10 -3.431787e+10 5.556009e+08
-5.032601e+10 2.415340e+10 7.402565e+08
4.206633e+10 -2.806938e+10 8.453907e+08
-4.956189e+10 2.753179e+10 -1.109333e+08
-5.224569e+10 2.245026e+10 9.208856e+08
-5.294467e+10 9.219614e+09 1.581843e+08
-5.158015e+10 1.542712e+10 1.382504e+08
-1.306985e+10 -5.247717e+10 4.143554e+08
1.165726e+10 -5.147639e+10 -4.341428e+08
1.312577e+10 -5.282326e+10 2.020919e+08
-5.157083e+10 2.112581e+10 -4.310302e+08
-4.456485e+10 3.538334e+10 1.310618e+09
1.801834e+10 -5.131710e+10 5.361581e+08
4.386115e+10 -2.795488e+10 -6.461977e+08
-4.211011e+10 3.436632e+10 1.530543e+09
2.366488e+10 -5.026273e+10 2.091860e+08
-3.051929e+10 -4.379554e+10 -3.896052e+08
-3.116597e+10 -4.501921e+10 8.911354e+08
-2.802730e+10 -4.500764e+10 5.868988e+08
3.014937e+10 -4.219281e+10 3.190508e+08
2.991144e+10 -4.573318e+10 9.814400e+08
2.922805e+10 -4.482278e+10 1.549716e+09
2.471828e+10 -4.817482e+10 -3.676047e+08
-5.156058e+10 -2.654331e+10 5.627385e+08
4.368357e+10 -2.723225e+10 1.537672e+08
-4.687974e+10 2.627617e+10 -2.373719e+08
-5.388545e+10 -1.244443e+10 9.486416e+08
-5.345518e+10 -9.857243e+09 7.873626e+08
-5.230155e+10 -1.480573e+10 -6.300810e+08
-1.752620e+10 -5.059225e+10 1.403713e+09
-5.223209e+10 -8.108835e+09 8.722129e+08
-2.284209e+10 -4.821813e+10 5.568223e+08
-5.195662e+10 1.237023e+10 5.942732e+08
-4.136467e+10 -3.236697e+10 -2.250668e+08
4.231304e+10 -3.407224e+10 4.062385e+08
4.295654e+10 -2.743253e+10 1.879627e+08
-4.853846e+10 1.669099e+10 -4.471418e+07
-3.661531e+10 3.828811e+10 1.246510e+09
4.998226e+10 -1.968709e+10 6.893197e+08
-5.058989e+10 -1.943711e+10 -8.558572e+08
-3.209768e+10 -4.351083e+10 6.180486e+08
-4.666910e+10 3.318500e+10 3.475842e+08
-5.261308e+10 5.687871e+09 2.790281e+08
5.081796e+10 -2.630320e+10 -3.290061e+08
-2.508297e+10 -5.255833e+10 -8.682961e+08
-1.612341e+10 -5.129648e+10 -9.044034e+08
4.355850e+10 -2.495071e+10 -2.694406e+08
-1.100926e+10 -5.709706e+10 -3.253021e+08
1.109379e+10 -5.738521e+10 1.102709e+08
-3.223353e+09 -5.209261e+10 -2.034377e+08
3.035254e+09 -5.223997e+10 9.122284e+07
-9.279894e+09 -5.300332e+10 -8.238764e+08
9.294660e+09 -5.303010e+10 8.255705e+08
8.309342e+09 -5.620885e+10 4.514576e+07
-8.307530e+09 -5.620666e+10 -4.185577e+07
5.093843e+10 -1.354093e+10 -1.019537e+08
-5.534354e+10 -7.965405e+09 -1.336258e+08
4.324157e+10 -2.575041e+10 8.643183e+08
5.147756e+10 -2.325120e+10 -3.575185e+08
-5.151872e+10 2.104134e+10 -1.603850e+09
-5.425433e+10 1.823165e+10 6.062829e+08
-5.480093e+10 1.628565e+10 -1.085681e+08
-4.589408e+10 -3.147667e+10 9.937851e+07
4.578853e+10 -3.285087e+10 2.195774e+07
-5.536500e+10 -1.474480e+10 -1.608761e+08
-3.009374e+10 -4.832399e+10 4.164670e+08
-2.808577e+10 -4.867787e+10 -1.199857e+09
2.999173e+10 -4.837114e+10 2.396876e+08
4.347713e+10 -2.403391e+10 1.319580e+09
4.739876e+10 -2.444624e+10 1.194901e+09
-3.526341e+10 -3.886436e+10 -6.575399e+08
2.718564e+10 -4.882645e+10 6.345450e+08
-4.194299e+10 -3.969137e+10 1.310310e+08
-5.613535e+10 2.756520e+09 -5.349507e+08
-5.376075e+10 1.050345e+10 -1.429888e+09
3.686687e+10 -3.882055e+10 -1.288525e+09
-5.775358e+10 6.404631e+08 2.336458e+08
3.405829e+10 -4.068924e+10 7.318320e+08
-4.525673e+10 -3.472825e+10 -7.144900e+08
4.333381e+10 -2.429934e+10 5.229632e+08
4.525430e+10 -3.534052e+10 -1.560004e+09
4.056858e+10 -3.763531e+10 -3.631799e+08
-1.241832e+10 5.507777e+10 8.898207e+08
4.714505e+10 3.166538e+10 -9.216455e+08
2.687205e+10 5.024104e+10 4.565566e+08
2.936504e+10 4.790344e+10 -2.014814e+08
2.351876e+10 5.235366e+10 8.341461e+08
-3.535654e+10 4.359967e+10 -8.175399e+08
1.957774e+10 5.196563e+10 3.343755e+08
-3.842088e+10 4.208860e+10 1.781453e+08
4.565314e+10 -2.467593e+10 6.812006e+07
1.743582e+10 5.595502e+10 9.079846e+08
-6.194014e+09 5.612960e+10 2.044977e+08
5.092636e+09 5.619169e+10 1.967628e+08
3.251929e+10 -4.131921e+10 -4.719428e+08
3.072050e+10 -4.214169e+10 1.697005e+08
-3.411446e+10 -4.054151e+10 4.877535e+08
-2.672117e+10 -4.819367e+10 -1.881462e+07
5.524805e+10 -1.147971e+10 1.321677e+08
5.577847e+10 -4.233825e+09 6.631841e+08
-2.269832e+10 5.103100e+10 -2.551329e+08
4.424002e+10 -2.408886e+10 4.918511e+08
-2.033563e+10 5.267750e+10 -3.440347e+08
6.166292e+10 -8.477927e+09 8.693614e+08
-1.122243e+10 5.529796e+10 -9.027182e+08
5.619432e+10 1.183931e+09 2.807236e+08
1.242228e+10 5.521705e+10 7.024152e+08
5.194772e+10 2.259884e+10 6.273258e+07
4.041305e+10 3.933455e+10 -6.375350e+08
5.565462e+10 7.304948e+09 5.897025e+08
4.557019e+10 3.287344e+10 6.689533e+08
5.425005e+10 1.730215e+10 5.259057e+07
4.692120e+10 -2.191781e+10 -4.977625e+07
3.503268e+10 4.495123e+10 9.572067e+06
-2.925321e+10 4.769071e+10 -9.222703e+08
1.179126e+09 5.685025e+10 7.197532e+08
-5.303437e+10 5.266727e+09 -2.136883e+06
-4.355107e+10 3.789877e+10 -2.211249e+08
-5.089542e+10 -2.670481e+10 9.261549e+07
8.944754e+08 5.661526e+10 7.172324e+08
-2.893606e+10 5.017179e+10 8.048747e+08
3.634727e+10 4.536712e+10 7.464602e+08
4.592721e+10 3.349772e+10 1.563283e+08
4.493547e+10 -2.393733e+10 -5.500936e+08
5.560981e+10 1.687516e+10 8.187332e+08
4.124338e+10 3.965515e+10 9.983181e+07
1.257526e+10 5.573414e+10 1.631040e+08
5.741937e+10 9.122611e+09 -7.383253e+08
5.264050e+10 2.358633e+10 -3.241978e+08
-9.925762e+09 5.570879e+10 5.480996e+08
5.829812e+10 1.246933e+09 -1.273746e+07
-5.399876e+10 -1.215605e+10 2.389919e+08
-4.721655e+10 -2.547657e+10 -8.483737e+08
-4.736596e+10 -2.209104e+10 4.957155e+08
4.675989e+10 -2.187880e+10 -1.565452e+07
-2.677808e+10 -5.128682e+10 -3.735021e+08
-4.880017e+10 -2.305979e+10 5.251886e+08
-4.887293e+10 3.184649e+10 1.889575e+09
3.777997e+10 -4.367281e+10 -4.232238e+08
-3.459607e+10 -3.925874e+10 -1.056764e+09
5.274463e+10 -1.174319e+10 -2.249613e+08
5.222456e+10 -9.984090e+09 -1.028041e+09
5.235446e+10 -6.310284e+09 -6.346608e+08
5.382484e+10 -7.295824e+09 2.362534e+08
5.404635e+10 -5.533328e+09 9.216691e+07
4.595159e+10 -2.240151e+10 -4.569604e+08
5.325190e+10 -2.892508e+09 -8.174120e+08
-1.929994e+10 4.997980e+10 -1.971312e+08
-1.760510e+10 5.031006e+10 8.264856e+08
4.764385e+10 2.452738e+10 1.010788e+09
4.768100e+10 2.373484e+10 -7.493134e+07
-2.052717e+10 4.973225e+10 -1.907879e+08
-2.320745e+10 4.887000e+10 -9.585217e+08
-1.710941e+10 5.055931e+10 8.258239e+08
-1.496487e+10 5.090947e+10 -1.899952e+08
5.210377e+10 1.071893e+10 8.831929e+08
4.734133e+10 -2.030636e+10 -1.416584e+09
5.274731e+10 9.268001e+09 -6.957339e+08
4.775549e+10 2.700074e+10 -5.031871e+08
4.501215e+10 2.764335e+10 5.064509e+08
3.740906e+10 4.255776e+10 -1.673465e+09
3.499153e+10 4.044805e+10 2.065234e+07
5.284751e+10 1.189205e+10 -1.007256e+09
5.125642e+10 1.379723e+10 1.218034e+08
2.969885e+10 4.483415e+10 -1.194799e+09
2.851564e+10 4.444893e+10 3.291591e+08
5.511800e+10 5.693579e+09 -1.758233e+08
4.619108e+10 -2.103766e+10 2.383003e+08
5.216065e+10 6.953196e+09 -6.331121e+08
5.026557e+10 2.041549e+10 -4.837520e+07
4.909155e+10 2.013441e+10 -1.308617e+09
5.669792e+10 3.863832e+09 1.677586e+09
5.336439e+10 2.668167e+09 1.502252e+08
6.090846e+09 5.229956e+10 -1.219895e+09
5.857157e+09 5.569729e+10 9.181406e+08
4.271102e+10 3.720736e+10 -1.664221e+09
4.008555e+10 3.527299e+10 4.343417e+05
5.020026e+10 1.938404e+10 5.081184e+08
4.800260e+10 -1.934282e+10 2.306366e+08
5.077850e+10 1.695653e+10 1.000078e+09
-2.354477e+10 4.816188e+10 -1.026263e+09
-2.603690e+10 4.676951e+10 9.530358e+08
3.776213e+10 3.903236e+10 1.302337e+08
3.911128e+10 3.777736e+10 1.082559e+08
3.032426e+10 4.410690e+10 -7.927566e+07
3.223546e+10 4.273473e+10 1.003878e+09
4.263251e+10 3.367601e+10 1.310863e+08
4.375670e+10 3.223665e+10 1.219721e+08
-3.162091e+10 4.357267e+10 -1.518091e+09
4.767038e+10 -2.030050e+10 -1.680820e+07
-3.179562e+10 4.336519e+10 2.351453e+08
-4.331848e+09 5.211425e+10 -1.176747e+09
-5.839511e+09 5.574507e+10 8.985544e+08
8.954781e+09 5.506906e+10 1.098625e+09
1.024297e+10 5.175993e+10 7.655155e+08
-2.933051e+10 4.430655e+10 -2.839943e+08
-2.795708e+10 4.582075e+10 8.263931e+08
-3.422535e+09 5.332198e+10 4.317497e+08
-1.878289e+08 5.304323e+10 -1.048934e+08
5.343642e+10 -1.756965e+09 1.501373e+08
4.851305e+10 -1.926391e+10 1.184909e+09
5.456010e+10 3.176134e+08 -6.428321e+08
4.508781e+10 -3.615294e+10 -2.295572e+07
5.135343e+10 1.160656e+10 -1.939243e+08
-5.318340e+10 8.851058e+09 -5.661166e+07
4.741290e+10 2.557648e+10 2.067185e+07
-5.123424e+10 1.512291e+10 1.192553e+08
1.085732e+09 -5.647759e+10 5.896072e+08
-4.312067e+08 -5.561898e+10 -2.629187e+08
4.625708e+10 -2.481710e+10 1.568069e+08
4.679395e+10 -2.466429e+10 -1.862247e+08
4.876283e+10 -1.792219e+10 -2.500250e+08
-5.691298e+10 6.184085e+09 9.405310e+08
1.405143e+10 5.251092e+10 1.008820e+09
1.447504e+10 5.137428e+10 -7.186465e+08
1.569716e+10 5.135784e+10 4.517672e+08
1.753012e+10 5.102419e+10 -9.118685e+08
-9.762720e+09 5.364763e+10 1.857532e+09
-6.927539e+09 5.405527e+10 -1.788530e+08
1.991938e+10 4.987680e+10 -9.146294e+07
1.830341e+10 5.015899e+10 7.962959e+08
1.846156e+09 5.391081e+10 1.503492e+09
4.762212e+10 -1.883885e+10 -1.616434e+08
4.121589e+09 5.430169e+10 -1.963870e+08
-3.335192e+10 4.187275e+10 -4.828567e+08
-3.627921e+10 4.226957e+10 -2.865707e+07
2.722951e+10 4.610460e+10 9.104941e+07
2.575086e+10 4.751674e+10 9.152384e+08
-1.274531e+10 5.207272e+10 1.117443e+09
-1.011897e+10 5.131378e+10 -3.018523e+08
2.502869e+10 4.918663e+10 -5.732242e+08
2.216956e+10 4.899556e+10 9.470899e+08
4.514431e+10 2.911741e+10 -1.119620e+09
4.764251e+10 -1.679665e+10 2.211550e+08
4.335784e+10 3.026151e+10 4.280214e+08
-4.724964e+10 2.500078e+10 -5.724949e+08
-3.777328e+10 -4.432905e+10 -3.940742e+08
-5.425674e+10 1.902133e+10 2.071254e+08
-5.223657e+10 2.029451e+10 -1.877206e+09
1.766729e+10 -5.704483e+10 -6.085217e+08
5.059319e+10 -2.233828e+10 2.621218e+09
-4.032800e+10 4.327264e+10 -1.913964e+08
-3.476873e+10 4.487245e+10 -7.166146e+08
2.612366e+10 5.001557e+10 -1.428213e+08
4.838033e+10 -1.731875e+10 2.571422e+07
3.146471e+10 4.980219e+10 1.633693e+08
2.271314e+10 5.149507e+10 4.564090e+07
1.856554e+10 5.211626e+10 1.565321e+09
4.976042e+10 3.341620e+10 -1.001764e+09
-1.325440e+10 5.841855e+10 1.006025e+09
4.950847e+10 -2.377404e+10 -3.787967e+08
-1.790639e+10 5.657004e+10 2.773638e+07
5.369735e+10 2.791841e+10 -7.828043e+08
3.843269e+10 4.291756e+10 9.340125e+08
-2.540405e+09 6.358075e+10 -5.834766e+08
4.810144e+10 -1.585590e+10 -1.110630e+09
5.624689e+10 1.398941e+10 3.279363e+08
4.992680e+10 2.925947e+10 5.508451e+08
5.725763e+10 4.461730e+09 -9.536851e+08
7.550683e+09 5.748768e+10 -1.715510e+08
5.717987e+10 1.147058e+10 -1.105686e+09
3.318680e+10 4.617257e+10 5.146172e+08
5.449123e+10 1.895132e+10 1.495069e+09
4.443577e+10 3.569690e+10 -1.092881e+09
1.052396e+10 5.667466e+10 9.354765e+07
4.383866e+10 3.744428e+10 8.849990e+08
4.899487e+10 -1.585168e+10 -3.975858e+08
5.596417e+10 5.967830e+09 1.068272e+08
5.243334e+10 2.165320e+10 1.075354e+09
-3.101951e+10 4.852754e+10 1.706733e+08
3.929870e+10 4.129196e+10 -1.095051e+09
3.203498e+10 4.696362e+10 2.234198e+08
-2.661507e+10 5.145227e+10 -1.375597e+08
-4.138268e+09 5.675567e+10 -3.573708e+08
-3.337054e+10 4.637046e+10 1.461732e+08
6.059770e+10 -1.022327e+09 6.333611e+07
5.593540e+10 -1.524373e+10 2.847293e+08
4.818812e+10 -1.467123e+10 5.211368e+08
1.747989e+10 5.479845e+10 9.506917e+08
-6.160050e+09 5.573654e+10 -5.729638e+08
5.171074e+09 5.602393e+10 -7.750522e+08
-2.283069e+10 4.711483e+10 -8.003943e+08
8.382898e+09 5.179300e+10 -3.797750e+08
-3.330049e+09 5.247372e+10 -2.179121e+08
4.093380e+10 3.346946e+10 1.387744e+08
3.618211e+10 3.867814e+10 1.380810e+08
5.271354e+10 5.136665e+09 -1.047504e+08
5.065796e+10 -2.691455e+10 -5.319847e+08
4.735791e+10 -1.556985e+10 -6.097665e+08
5.067373e+10 -1.277653e+10 -2.515176e+08
-1.597285e+10 4.964307e+10 1.323222e+09
-3.057513e+10 4.381806e+10 -3.666027e+08
-4.548368e+10 -3.297829e+10 1.153294e+09
4.463407e+10 -3.058061e+10 -1.913781e+09
-5.251659e+10 2.325071e+10 -3.318781e+08
-3.934362e+10 -4.026310e+10 4.485501e+08
-3.872715e+10 -3.527922e+10 2.998824e+08
-3.864562e+10 -3.601627e+10 1.849570e+08
-1.374091e+10 -5.535958e+10 2.696693e+08
5.022744e+10 -1.352598e+10 3.125444e+07
-5.341025e+10 -3.558865e+09 3.871361e+08
-5.218900e+10 3.909662e+09 -2.272362e+08
-5.361765e+10 2.442938e+09 -5.490464e+08
-3.719600e+10 -4.295957e+10 -6.494628e+08
-4.879565e+10 -2.134392e+10 5.692865e+08
1.371928e+10 -5.843371e+10 6.198581e+08
4.875551e+10 -2.103276e+10 1.121676e+09
4.666418e+10 -4.586310e+10 1.129994e+09
-5.229721e+10 -1.030227e+10 -4.814803e+07
-4.849608e+10 2.735282e+10 2.585479e+08
5.088580e+10 -1.279434e+10 9.455394e+08
3.159375e+10 -4.206765e+10 1.094610e+08
-2.532832e+10 -5.135286e+10 -1.607939e+09
-4.783598e+10 2.358839e+10 -3.393706e+08
-5.620215e+10 -5.620380e+09 -2.155847e+07
-5.654283e+10 3.892495e+09 -5.017678e+08
-4.565379e+10 -3.973372e+10 1.507439e+09
-5.572850e+10 5.465571e+09 6.307913e+08
-5.312481e+10 5.089211e+09 -2.514315e+08
-4.431595e+10 3.337145e+10 3.828502e+08
2.728163e+10 -4.376894e+10 -9.045876e+08
4.996191e+10 -1.318152e+10 4.716097e+08
-5.124375e+10 -1.436584e+10 -1.438526e+08
-1.739268e+10 -4.908711e+10 -2.879680e+08
-4.794914e+10 -2.999987e+10 -3.464234e+08
4.787145e+10 -3.013620e+10 4.441889e+08
-2.825104e+10 -4.483216e+10 5.903487e+08
5.409211e+10 -2.281712e+10 5.237633e+08
-5.615053e+10 -2.648921e+09 -2.299003e+08
-5.825079e+10 4.591290e+09 -1.763234e+09
-4.312276e+10 -3.637702e+10 -1.086643e+09
-5.443438e+10 -1.533060e+10 -4.983534e+07
5.008155e+10 -1.372640e+10 2.205358e+08
-2.200468e+10 -5.166555e+10 -2.725713e+08
-3.067702e+10 -4.358722e+10 -2.762070e+08
-1.069976e+10 5.107820e+10 3.069929e+08
1.096188e+10 5.068848e+10 2.315606e+08
3.830599e+10 3.522048e+10 2.481200e+08
2.688567e+09 5.280008e+10 -1.497419e+09
5.082955e+10 8.978478e+09 6.803868e+08
4.271724e+10 2.957249e+10 2.893953e+08
4.661743e+10 2.172313e+10 -2.348934e+08
4.929809e+10 1.446130e+10 1.287156e+08
4.912409e+10 -1.069867e+10 1.364900e+08
-2.464637e+10 4.519819e+10 -4.581574e+08
3.261357e+10 3.949225e+10 3.068970e+08
5.148698e+10 2.452861e+09 -5.958420e+08
-7.926573e+09 5.171672e+10 -1.831817e+08
1.270266e+10 5.173428e+10 2.590895e+08
3.243031e+08 5.173965e+10 -2.602699e+08
3.243257e+10 -4.356075e+10 3.450576e+08
1.551242e+10 -5.174780e+10 -7.539442e+08
-4.630294e+10 -2.237194e+10 -1.152270e+09
3.944248e+10 -4.112195e+10 7.272642e+08
4.992685e+10 -1.213180e+10 -2.993396e+08
-5.705896e+10 -8.089108e+09 -8.786484e+08
5.543454e+10 -1.833524e+10 7.723098e+08
-5.371279e+10 -1.366032e+10 7.490220e+08
-5.081268e+10 -1.284811e+10 1.586580e+09
4.068573e+10 -3.214626e+10 -8.619004e+08
5.055904e+10 -1.266901e+10 -1.227145e+09
-4.623689e+10 -3.113175e+10 5.881452e+08
4.610181e+10 -3.109778e+10 -3.487029e+08
1.994369e+10 -4.762164e+10 -9.506953e+08
-5.501806e+10 -1.024391e+10 4.741666e+08
5.035246e+10 -1.249770e+10 -3.939459e+08
4.709111e+10 -2.302099e+10 -4.044489e+08
-3.090549e+10 4.720884e+10 1.524472e+08
5.057670e+10 2.606577e+10 8.203575e+06
-1.940667e+10 5.392231e+10 2.742680e+08
5.542048e+10 -1.335691e+10 3.093567e+07
-3.638488e+10 3.906840e+10 1.990681e+08
-3.973676e+10 3.629059e+10 1.851639e+08
2.652254e+10 -4.909149e+10 -2.178586e+08