# vtk DataFile Version 2.0
Electric current density generated by TTH
ASCII
DATASET UNSTRUCTURED_GRID
POINTS 2086 double
-2.112024e-05 -7.333746e-06 -4.198262e-22
1.850348e-05 1.203479e-05 9.454714e-07
-1.947649e-05 -8.233446e-06 -1.638891e-06
1.414236e-05 1.534204e-05 1.699547e-06
-1.675131e-05 -1.287420e-05 1.644372e-06
-1.999934e-05 9.446091e-06 8.736710e-07
-2.096140e-05 2.150318e-06 -1.659727e-06
1.270157e-05 -1.813596e-05 8.327006e-07
1.255447e-05 -1.696333e-05 1.651036e-06
-1.417038e-05 1.524518e-05 -1.705559e-06
-1.422922e-05 -1.518400e-05 -1.706010e-06
-2.077258e-05 -8.267306e-06 -4.198262e-22
-1.572705e-05 -1.160563e-05 1.316548e-06
-2.119717e-05 5.893548e-07 1.619267e-06
-6.526126e-06 -2.109722e-05 9.292330e-07
-6.526126e-06 2.109722e-05 9.292330e-07
-1.593065e-05 1.533878e-05 -8.789282e-07
-1.855625e-05 -6.601786e-06 1.428329e-06
-1.766407e-05 -7.819743e-06 1.086575e-06
1.319425e-05 1.665658e-05 1.603366e-06
8.590083e-06 1.888324e-05 -1.711030e-06
-1.694167e-05 1.418494e-05 -9.096654e-07
-2.038367e-05 -9.184451e-06 -4.198262e-22
8.905668e-06 1.771988e-05 1.509911e-06
2.803975e-06 2.195958e-05 8.390671e-07
2.803912e-06 -2.195983e-05 8.386378e-07
1.113268e-05 -1.910239e-05 -8.874292e-07
-1.737797e-05 8.563740e-06 -1.151426e-06
-2.076891e-05 4.625115e-06 -1.592326e-06
-2.202196e-05 -2.092766e-06 -8.681436e-07
1.072310e-05 1.666166e-05 -1.500161e-06
1.411586e-05 -1.707783e-05 8.050204e-07
-1.848681e-05 1.218270e-05 -8.352385e-07
-1.995430e-05 -1.008336e-05 -4.198262e-22
1.959902e-05 5.831601e-06 -1.702941e-06
1.959902e-05 -5.831601e-06 -1.702941e-06
8.043303e-06 -1.980549e-05 -1.549329e-06
-1.971727e-05 7.740980e-06 1.627061e-06
5.806351e-06 1.806815e-05 -4.070983e-07
1.984217e-05 -4.889677e-06 1.701471e-06
1.984217e-05 4.889677e-06 1.701471e-06
3.951995e-06 -2.073004e-05 1.651147e-06
1.332033e-05 1.569773e-05 1.713168e-06
-4.904457e-06 -2.038419e-05 -1.683424e-06
-1.948531e-05 -1.096225e-05 -4.198262e-22
-4.904457e-06 2.038419e-05 -1.683424e-06
-1.298179e-05 -1.791478e-05 8.635117e-07
-1.298179e-05 1.791478e-05 8.635117e-07
7.304604e-06 1.762324e-05 6.966444e-07
-2.036860e-05 -3.420832e-06 1.714037e-06
3.949010e-06 2.073258e-05 1.650606e-06
1.439621e-05 -1.681791e-05 -8.387679e-07
2.630598e-06 2.197769e-05 -8.449457e-07
1.939585e-05 1.062637e-05 8.768478e-07
1.939585e-05 -1.062637e-05 8.768478e-07
-1.897763e-05 -1.181938e-05 -4.198262e-22
-1.728087e-05 1.142172e-05 -1.712594e-06
-2.038182e-05 -5.127726e-06 -1.672830e-06
1.991565e-05 -7.862506e-07 -1.559173e-06
1.991565e-05 7.862506e-07 -1.559173e-06
-2.017471e-05 6.061552e-06 1.661203e-06
1.800651e-05 -1.282761e-05 8.895105e-07
1.800651e-05 1.282761e-05 8.895105e-07
-1.699252e-05 -1.414112e-05 8.919317e-07
1.823019e-05 7.314069e-06 1.391761e-06
1.823019e-05 -7.314069e-06 1.391761e-06
-1.843228e-05 -1.265304e-05 -4.198262e-22
-2.181122e-05 -3.929475e-06 7.938801e-07
-4.342295e-06 -2.168979e-05 -8.698313e-07
-4.342295e-06 2.168979e-05 -8.698313e-07
4.149824e-06 1.850880e-05 -3.643041e-07
1.895709e-05 -1.135432e-05 -9.075227e-07
1.895709e-05 1.135432e-05 -9.075227e-07
1.428686e-05 1.690168e-05 -8.511973e-07
4.147038e-06 -1.850944e-05 -3.643960e-07
-2.179599e-05 -4.012667e-06 -7.940214e-07
2.547722e-06 -2.200046e-05 -8.217121e-07
-1.785033e-05 -1.346158e-05 -4.198262e-22
-7.130550e-07 1.991939e-05 1.559621e-06
-7.129264e-07 -1.991936e-05 1.559608e-06
1.842947e-05 -5.013190e-06 -7.442437e-07
1.842947e-05 5.013190e-06 -7.442437e-07
-1.163030e-05 1.706049e-05 -1.714065e-06
-1.163030e-05 -1.706049e-05 -1.714065e-06
-1.686708e-05 1.235912e-05 -1.693113e-06
5.228392e-06 -2.150443e-05 -8.513730e-07
-1.886191e-06 2.202960e-05 -8.865556e-07
-1.886191e-06 -2.202960e-05 -8.865556e-07
-1.723293e-05 -1.424339e-05 -4.198262e-22
-1.571652e-05 1.171905e-05 1.363656e-06
-1.904445e-05 1.560088e-06 7.628127e-07
-1.922708e-05 -2.187023e-06 -1.126219e-06
-9.072869e-06 1.733967e-05 -1.336430e-06
-9.072869e-06 -1.733967e-05 -1.336430e-06
-1.352405e-05 1.670922e-05 -1.486608e-06
-1.352339e-05 -1.670969e-05 -1.486638e-06
-2.071296e-05 2.215038e-06 1.703746e-06
-1.839451e-05 -9.619316e-06 -1.710231e-06
1.963179e-05 -2.921184e-06 1.518407e-06
-1.658133e-05 -1.499693e-05 -4.198262e-22
1.963179e-05 2.921184e-06 1.518407e-06
1.039201e-05 1.820643e-05 1.683883e-06
-9.231382e-06 2.010875e-05 8.590875e-07
-9.231382e-06 -2.010875e-05 8.590875e-07
1.109306e-05 -1.763860e-05 1.703093e-06
8.482503e-06 2.047878e-05 7.868028e-07
-1.508467e-05 1.149217e-05 3.418467e-07
8.622275e-06 -1.899202e-05 -1.700608e-06
9.270825e-06 1.712848e-05 -1.255687e-06
-1.824069e-05 -7.761667e-06 -1.505292e-06
-1.589680e-05 -1.572068e-05 -4.198262e-22
5.275421e-06 2.150982e-05 -8.220788e-07
-1.578542e-05 1.111663e-05 -1.073535e-06
1.217963e-05 1.466491e-05 -6.643434e-07
-1.505152e-05 -1.152225e-05 2.993702e-07
-1.407756e-05 1.305250e-05 -9.208981e-07
-2.051273e-05 -2.285609e-06 -1.714067e-06
4.640793e-06 1.908777e-05 -1.392576e-06
1.322303e-05 -1.430392e-05 -1.258482e-06
1.706878e-05 -1.415306e-05 7.727170e-07
1.706878e-05 1.415306e-05 7.727170e-07
-1.518071e-05 -1.641323e-05 -4.198262e-22
1.576750e-05 -1.559281e-05 -7.683402e-07
1.576750e-05 1.559281e-05 -7.683402e-07
-1.498154e-05 1.474441e-05 -1.672124e-06
8.131872e-06 1.974151e-05 -1.561229e-06
1.350398e-05 1.495010e-05 -1.640382e-06
4.717042e-06 -1.905821e-05 -1.384944e-06
-1.930032e-05 8.728754e-06 1.627061e-06
1.095520e-05 1.925535e-05 8.103020e-07
-7.582134e-06 -1.839805e-05 1.544160e-06
-7.582134e-06 1.839805e-05 1.544160e-06
-1.443449e-05 -1.707319e-05 -4.198262e-22
-1.764070e-05 -6.874322e-06 -1.117940e-07
-1.961188e-05 3.398331e-06 1.546540e-06
1.236086e-05 -1.458048e-05 -7.761694e-07
9.716458e-06 -1.986692e-05 -8.774076e-07
-2.140455e-06 2.073161e-05 -1.702526e-06
-2.140455e-06 -2.073161e-05 -1.702526e-06
-1.647049e-05 -9.680779e-06 7.559147e-07
-2.070971e-05 -7.868917e-06 -8.091658e-07
1.021345e-05 -1.616065e-05 7.812895e-07
-2.188626e-05 3.306916e-06 -8.447305e-07
-1.365960e-05 -1.769925e-05 -4.198262e-22
-1.932946e-05 -9.121604e-06 -1.550661e-06
1.639627e-05 -9.651616e-06 -5.682273e-07
1.639627e-05 9.651616e-06 -5.682273e-07
2.036300e-05 -5.827034e-06 1.627744e-06
2.036300e-05 5.827034e-06 1.627744e-06
1.684096e-05 -1.102809e-05 1.635589e-06
1.684096e-05 1.102809e-05 1.635589e-06
-1.937828e-05 -3.546152e-06 -1.431264e-06
-1.471363e-05 -1.229712e-05 -8.857974e-07
1.111344e-05 1.533232e-05 1.578888e-07
-1.285759e-05 -1.829018e-05 -4.198262e-22
8.439307e-06 -2.052044e-05 7.426058e-07
2.276444e-06 -2.071118e-05 -1.703205e-06
2.174579e-06 2.073905e-05 -1.701216e-06
1.966364e-05 -6.522454e-06 1.712474e-06
1.966364e-05 6.522454e-06 1.712474e-06
7.146271e-06 -1.829052e-05 -1.387656e-06
-1.012403e-05 -1.755791e-05 1.672411e-06
-1.012403e-05 1.755791e-05 1.672411e-06
1.274829e-05 1.578918e-05 -1.677968e-06
1.547026e-05 -1.222794e-05 1.443760e-06
-1.203006e-05 -1.884478e-05 -4.198262e-22
1.547026e-05 1.222794e-05 1.443760e-06
1.114162e-05 -1.530296e-05 1.838522e-08
-2.051889e-05 4.874912e-06 1.654808e-06
1.336693e-05 -1.526084e-05 -1.676677e-06
-4.881348e-07 1.920966e-05 9.490553e-07
-4.880578e-07 -1.920967e-05 9.490661e-07
-8.980223e-06 -1.880747e-05 1.702571e-06
-8.980223e-06 1.880747e-05 1.702571e-06
-1.824596e-05 -5.904859e-06 8.889077e-07
1.667843e-05 -1.272249e-05 -1.681271e-06
-1.117864e-05 -1.936198e-05 -4.198262e-22
1.667843e-05 1.272249e-05 -1.681271e-06
1.563973e-05 1.419030e-05 -1.647032e-06
1.563973e-05 -1.419030e-05 -1.647032e-06
8.322055e-06 1.811402e-05 -1.560577e-06
1.981745e-05 -9.967421e-06 -7.532785e-07
1.981745e-05 9.967421e-06 -7.532785e-07
-1.899458e-05 4.803409e-06 1.354283e-06
-1.635141e-05 -1.094988e-05 1.417250e-06
-1.759507e-05 -1.021668e-05 1.688137e-06
1.176895e-06 -2.209202e-05 8.644380e-07
-1.030503e-05 -1.984073e-05 -4.198262e-22
1.175620e-06 2.209232e-05 8.640370e-07
1.790822e-05 6.133446e-06 3.169422e-08
1.790822e-05 -6.133446e-06 3.169422e-08
7.160055e-06 1.997958e-05 1.612747e-06
-1.345473e-05 1.474458e-05 -1.572358e-06
-1.345473e-05 -1.474458e-05 -1.572358e-06
1.987707e-05 -7.646564e-06 1.584435e-06
1.987707e-05 7.646564e-06 1.584435e-06
1.220174e-05 -1.850897e-05 7.810462e-07
-2.115548e-05 3.535366e-07 -1.634805e-06
-9.410959e-06 -2.028009e-05 -4.198262e-22
-1.571105e-05 -1.556745e-05 8.744160e-07
-1.571105e-05 1.556745e-05 8.744160e-07
-1.025862e-06 1.967703e-05 -1.433681e-06
-1.025863e-06 -1.967703e-05 -1.433681e-06
1.804988e-05 -8.880413e-06 1.631028e-06
1.804988e-05 8.880413e-06 1.631028e-06
-7.445644e-06 -2.082112e-05 8.829743e-07
-7.445644e-06 2.082112e-05 8.829743e-07
-6.263895e-06 -2.017432e-05 1.645148e-06
-6.263895e-06 2.017432e-05 1.645148e-06
-8.498203e-06 -2.067919e-05 -4.198262e-22
1.477752e-05 1.192138e-05 -4.404065e-07
1.477810e-05 -1.192112e-05 -4.414860e-07
-2.067827e-05 -4.217590e-06 1.650974e-06
1.955663e-05 -3.071691e-06 -1.490276e-06
1.955663e-05 3.071691e-06 -1.490276e-06
1.751429e-05 9.191625e-06 -1.480666e-06
1.751429e-05 -9.191625e-06 -1.480666e-06
-1.838012e-05 1.068838e-05 -1.598504e-06
1.490347e-05 1.453958e-05 -1.704828e-06
-1.199213e-05 1.480018e-05 -6.291736e-07
-7.568574e-06 -2.103723e-05 -4.198262e-22
-1.199213e-05 -1.480018e-05 -6.291736e-07
-1.919436e-05 -6.388692e-06 -1.663430e-06
-2.011027e-05 -7.151107e-06 1.564324e-06
1.890995e-05 8.540017e-07 1.614733e-08
1.891180e-05 -8.109867e-07 1.153389e-08
8.426849e-06 1.923167e-05 1.677187e-06
6.461196e-06 -1.936801e-05 1.699120e-06
1.276419e-05 1.815730e-05 7.282942e-07
1.200895e-05 -1.723177e-05 -1.675768e-06
-1.260674e-05 1.640594e-05 -1.713426e-06
-6.623918e-06 -2.135350e-05 -4.198262e-22
-1.260672e-05 -1.640595e-05 -1.713426e-06
1.373244e-06 2.121068e-05 1.601139e-06
1.373157e-06 -2.121052e-05 1.601205e-06
1.007666e-05 1.973766e-05 7.962961e-07
6.571891e-06 2.116485e-05 7.951505e-07
-1.853432e-05 4.384468e-06 6.216686e-07
1.460806e-05 1.665026e-05 8.169201e-07
1.188397e-05 1.735413e-05 1.669121e-06
1.880314e-05 5.030754e-06 1.244452e-06
1.880314e-05 -5.030754e-06 1.244452e-06
-5.666111e-06 -2.162738e-05 -4.198262e-22
[...]
POINT_DATA 2086
VECTORS 10.000GHz_fone_imag double
-4.466862e+09 1.897850e+10 1.646668e+08
1.475115e+10 -2.104363e+10 1.962776e+09
-1.351817e+10 2.271655e+10 -2.102230e+09
2.406295e+10 -2.114192e+10 -3.994738e+09
-1.624646e+10 2.082017e+10 2.814376e+09
1.094048e+10 2.735546e+10 -1.192139e+09
3.636567e+09 3.612703e+10 3.584062e+08
-1.844666e+10 -1.726299e+10 5.941224e+08
-2.142615e+10 -1.464967e+10 -2.193751e+09
1.806676e+10 1.789798e+10 1.665673e+09
-1.834719e+10 1.865475e+10 -2.126468e+09
-1.110847e+10 2.686368e+10 -9.119040e+08
-2.574944e+10 3.328894e+10 1.488889e+09
-4.804511e+08 2.973599e+10 -1.130897e+09
-2.764425e+10 9.748366e+09 5.513641e+08
2.760178e+10 9.712697e+09 -5.368500e+08
1.567562e+10 1.885444e+10 -2.044777e+09
-1.190893e+10 3.877652e+10 1.350102e+08
-9.084087e+09 3.184671e+10 -1.134967e+09
2.148508e+10 -1.625167e+10 -2.506329e+06
2.537707e+10 -1.217086e+10 -1.453971e+09
2.131258e+10 2.631350e+10 8.056961e+08
-9.466301e+09 1.719177e+10 7.150390e+07
3.645415e+10 -2.002628e+10 -5.370518e+08
2.215101e+10 -3.825956e+09 -1.125822e+09
-2.886536e+10 -3.048895e+09 -1.782274e+09
-2.011093e+10 -1.119934e+10 -1.933627e+08
2.466516e+10 4.696833e+10 1.828475e+09
4.547868e+09 2.465863e+10 3.875487e+08
-2.910850e+09 2.474712e+10 4.509430e+08
2.887767e+10 -2.141032e+10 5.454429e+08
-2.121061e+10 -1.700243e+10 7.856361e+08
1.527071e+10 2.364594e+10 8.631319e+08
-8.991295e+09 1.760046e+10 1.895508e+09
7.657772e+09 -3.275787e+10 -2.204487e+09
-7.616525e+09 -3.281588e+10 2.218618e+09
-2.495884e+10 -9.667767e+09 3.312428e+09
9.635683e+09 2.525879e+10 5.606554e+08
4.700549e+10 -1.467635e+10 -2.135497e+09
-1.045492e+10 -3.500555e+10 3.086756e+09
1.035257e+10 -3.505410e+10 -3.077001e+09
-3.009050e+10 -8.808779e+09 -2.780417e+08
3.216060e+10 -2.653581e+10 -4.133576e+08
-2.946064e+10 6.638243e+09 -1.339485e+09
-7.988959e+09 1.571549e+10 5.102687e+08
2.948726e+10 6.650065e+09 1.330767e+09
-1.690071e+10 1.322722e+10 -1.107501e+08
1.659220e+10 1.315803e+10 7.925109e+06
3.257580e+10 -1.638280e+10 1.094477e+09
-3.474103e+09 2.538328e+10 1.783514e+08
2.225653e+10 -4.468746e+09 -5.027233e+08
-1.688050e+10 -1.671188e+10 3.166049e+08
3.161687e+10 -4.704862e+09 -2.272559e+08
1.265548e+10 -2.244657e+10 -4.448073e+08
-1.268911e+10 -2.141328e+10 3.576769e+08
-1.030766e+10 2.135900e+10 -1.609091e+09
1.668175e+10 2.506236e+10 -6.720318e+07
-8.227697e+09 2.364282e+10 7.311538e+08
-1.107943e+09 -3.838080e+10 5.453741e+08
2.354071e+09 -4.985506e+10 5.526512e+08
1.010877e+10 3.286881e+10 2.643983e+08
-1.313544e+10 -1.906327e+10 -6.903680e+08
1.278088e+10 -2.003565e+10 -2.680662e+09
-1.438288e+10 2.097973e+10 2.042982e+09
1.255862e+10 -3.297316e+10 3.008904e+09
-1.217277e+10 -3.363356e+10 -2.196400e+09
-1.632371e+10 2.403902e+10 2.613429e+09
-5.312149e+09 2.138150e+10 -2.136209e+09
-2.822726e+10 5.106852e+09 8.794080e+07
2.817313e+10 5.051947e+09 -1.658714e+08
3.580794e+10 -7.175346e+09 2.537525e+09
-8.541668e+09 -1.511733e+10 -1.449061e+08
9.441924e+09 -1.666660e+10 8.856575e+08
2.400981e+10 -1.900531e+10 1.765313e+09
-3.145758e+10 -6.747380e+09 2.762151e+08
-5.040647e+09 2.299045e+10 5.231005e+07
-2.599670e+10 -2.905367e+09 2.620051e+09
-1.720917e+10 2.494341e+10 1.824370e+09
3.567043e+10 1.249333e+09 -3.211067e+08
-4.582819e+10 6.222392e+08 -3.438883e+08
-1.326038e+10 -5.010708e+10 3.989151e+08
1.320458e+10 -4.995726e+10 -3.502009e+08
2.638652e+10 1.690934e+10 3.342586e+08
-2.643063e+10 1.725736e+10 -2.585952e+08
1.451404e+10 2.244943e+10 1.577072e+09
-2.260103e+10 -6.166749e+09 8.764025e+08
2.431293e+10 3.969781e+09 -2.013355e+09
-2.398772e+10 5.317771e+09 1.886346e+09
-2.095307e+10 2.263382e+10 -1.012693e+09
3.059709e+10 3.989930e+10 -1.777326e+09
2.480510e+09 5.100072e+10 -1.103222e+08
-5.891573e+09 3.340736e+10 -2.010888e+08
4.757067e+10 2.258841e+10 7.219699e+08
-4.782367e+10 2.266130e+10 -7.828995e+08
2.849741e+10 2.203889e+10 -3.067620e+08
-2.844600e+10 2.193401e+10 3.443222e+08
4.172070e+09 3.072692e+10 -5.410662e+08
-1.482899e+10 2.421934e+10 4.067016e+09
-1.131164e+10 -3.237454e+10 2.814940e+08
-1.651490e+10 1.840954e+10 1.621967e+08
9.971238e+09 -4.365208e+10 1.688383e+09
2.664708e+10 -1.419456e+10 -7.076411e+08
2.855290e+10 1.118404e+10 1.383646e+09
-2.733023e+10 1.160544e+10 -2.751424e+08
-2.720350e+10 -1.888323e+10 7.989461e+08
2.284650e+10 -8.318683e+09 -1.426178e+09
2.113581e+10 2.839045e+10 1.352854e+09
-3.364294e+10 -1.510455e+10 7.419518e+07
3.494476e+10 -1.782533e+10 3.846105e+08
-9.643662e+09 3.296915e+10 -2.907607e+09
-2.218587e+10 2.294729e+10 9.553004e+08
1.960931e+10 -3.282082e+09 -1.107914e+09
3.087222e+10 4.565181e+10 -8.558576e+07
3.554797e+10 -2.921263e+10 -1.938544e+09
-2.300374e+10 2.966157e+10 -2.087068e+09
2.497893e+10 2.733421e+10 1.209496e+09
-3.606900e+09 3.620185e+10 2.726755e+09
3.515741e+10 -5.166170e+09 -5.169081e+08
-3.617007e+10 -3.038616e+10 2.710828e+09
-1.382078e+10 -2.113721e+10 -2.155215e+09
1.525904e+10 -1.771170e+10 1.100838e+09
-1.802085e+10 1.689450e+10 -7.992684e+08
-2.252076e+10 -2.372507e+10 2.666682e+09
2.223963e+10 -2.239256e+10 -1.080320e+09
1.654507e+10 2.221953e+10 -2.532274e+09
2.745735e+10 -7.740479e+09 7.766707e+07
3.165190e+10 -2.975838e+10 -1.310091e+09
-4.102744e+10 -9.262255e+09 1.717329e+09
1.487286e+10 2.622558e+10 4.361546e+08
2.330504e+10 -1.502869e+10 1.320735e+09
-3.982535e+10 1.798550e+10 -1.944968e+09
3.996731e+10 1.764531e+10 1.676400e+09
-2.455559e+10 2.053868e+10 1.686795e+09
-1.991052e+10 4.918774e+10 -1.626787e+09
3.713627e+09 3.634004e+10 1.145296e+09
-3.622213e+10 -3.260291e+10 -2.215646e+09
-2.501924e+10 -1.251131e+10 -8.638418e+08
3.062949e+10 1.441417e+09 2.430810e+09
-2.924909e+10 1.811008e+09 -2.712997e+09
-1.637007e+10 3.063163e+10 2.115017e+09
-9.363478e+09 2.716437e+10 -1.397213e+09
-3.807538e+10 -2.213866e+10 -1.309324e+09
2.440002e+09 2.390398e+10 -1.339396e+09
-1.865136e+10 1.345155e+10 -4.007387e+08
-8.717198e+09 2.081774e+10 -6.998052e+08
-2.452558e+10 -4.263717e+10 9.934261e+08
2.674981e+10 -3.859517e+10 -4.808706e+09
-7.150528e+09 -2.433784e+10 5.333017e+08
7.130436e+09 -2.433976e+10 -5.241261e+08
-1.945160e+10 -3.124644e+10 -1.575100e+09
1.728062e+10 -2.549126e+10 2.184231e+09
-6.940420e+09 3.759055e+10 -4.763902e+09
-3.295408e+10 3.683405e+10 -1.879617e+09
4.037552e+10 -2.941969e+10 5.289947e+07
-1.944312e+10 1.377832e+10 -1.151372e+09
-2.063443e+10 -9.342063e+09 -1.881758e+09
-3.080618e+10 -1.531264e+09 6.898000e+08
3.774814e+10 -5.422542e+09 -6.252575e+08
-1.155840e+10 -4.094215e+10 -1.207879e+09
1.158111e+10 -4.092838e+10 1.209674e+09
-3.178568e+10 -9.558014e+09 3.537555e+09
-3.749211e+10 2.283862e+10 5.700614e+07
3.771018e+10 2.371266e+10 8.903747e+07
2.730631e+10 -1.924043e+10 4.147982e+07
-2.606141e+10 -2.647093e+10 3.524649e+09
-1.878042e+10 1.074269e+10 5.883970e+08
2.187696e+10 -2.884055e+10 -1.288675e+09
-4.874097e+10 -3.402787e+10 -1.944437e+09
7.429869e+09 2.821317e+10 -6.103834e+08
-2.462835e+10 -1.962508e+10 3.348079e+08
4.798780e+10 2.533613e+09 -7.130978e+08
-3.219454e+10 1.578732e+09 2.238232e+09
-2.932053e+10 1.517144e+10 7.761982e+08
3.563087e+10 1.861804e+10 -8.733782e+08
-1.112210e+10 3.257577e+10 -3.920745e+09
-1.926054e+10 -2.186017e+10 9.319232e+08
-1.958642e+10 1.355540e+10 -5.565407e+08
2.315424e+10 -3.016327e+10 -1.274738e+09
2.565961e+10 -2.732496e+10 5.867604e+08
-1.673743e+10 -1.802932e+10 -3.216858e+08
3.679989e+10 -1.231853e+10 -2.737836e+09
-1.282475e+10 -2.365229e+10 -1.545806e+09
1.259193e+10 -2.315625e+10 1.548937e+09
1.119854e+10 3.520445e+10 -2.876245e+09
-2.856171e+10 4.420800e+10 1.007962e+07
-1.812533e+10 3.536679e+10 -2.072353e+08
-3.219969e+10 -2.690674e+09 -1.187112e+09
-2.455417e+10 1.382662e+10 -9.677930e+08
3.135595e+10 5.575528e+07 -1.405613e+09
1.954148e+10 -3.978392e+10 3.357156e+09
-1.951431e+10 -3.974416e+10 -3.308526e+09
2.653823e+10 -1.017421e+10 3.615323e+09
2.405928e+10 2.457049e+10 -1.995066e+09
-2.608415e+10 2.281603e+10 6.809460e+08
-1.331828e+10 -3.731804e+10 -6.146674e+08
1.295474e+10 -3.749705e+10 6.888991e+08
-2.817556e+10 -1.606305e+10 2.170297e+09
2.941407e+08 2.677047e+10 3.194535e+09
-2.768660e+10 1.266508e+10 1.431595e+09
-1.468916e+10 1.614382e+10 -6.090065e+08
1.273271e+10 1.541242e+10 8.752474e+08
2.869357e+10 2.521598e+08 3.155819e+08
-5.067217e+10 2.957287e+09 -1.206153e+09
-1.084494e+10 -2.253790e+10 -7.367082e+08
1.127540e+10 -2.501640e+10 1.234674e+07
-2.199843e+10 8.712164e+09 -2.045502e+09
2.187598e+10 8.772466e+09 2.030757e+09
-3.362196e+10 1.272494e+10 -9.518320e+08
3.356824e+10 1.269250e+10 9.474749e+08
-2.126625e+10 8.525893e+09 2.182584e+09
3.152202e+10 -3.851378e+10 3.055923e+08
-2.257301e+10 -3.420534e+10 -2.209093e+09
-9.976392e+09 3.842969e+10 4.273215e+08
-1.030428e+10 -3.212631e+10 -1.318983e+09
6.244694e+09 -3.421820e+10 -1.904665e+09
1.371379e+10 -2.809516e+10 2.270110e+08
-1.364931e+10 -2.812468e+10 1.013667e+07
1.743566e+10 3.043653e+10 -4.563588e+08
2.932567e+10 -2.812758e+10 -2.793518e+08
3.794535e+10 3.058061e+10 6.385735e+08
-1.820066e+10 7.303864e+09 -8.128734e+08
-3.719790e+10 2.993360e+10 -7.479794e+08
-1.708275e+10 3.821008e+10 -1.706664e+09
-1.113420e+10 3.269940e+10 -3.914973e+08
3.921293e+08 -4.210319e+10 1.551653e+08
-9.554704e+08 -4.165402e+10 7.981131e+08
3.526195e+10 -1.574482e+10 1.725924e+09
-2.313700e+10 -7.781035e+09 -7.727507e+08
2.211093e+10 -1.534060e+10 -2.325871e+08
-2.325250e+10 -1.577985e+10 4.440822e+09
2.008923e+10 1.779229e+10 6.806015e+08
-2.122861e+10 6.937593e+09 -8.667945e+08
-2.022142e+10 1.786731e+10 -6.714535e+08
2.843103e+10 -3.690302e+09 2.089909e+09
-2.785669e+10 -2.808344e+09 -6.875248e+08
2.540039e+10 -1.288862e+10 2.584967e+08
2.835610e+10 -6.905260e+09 -4.120121e+09
5.432233e+09 3.208962e+10 2.209880e+09
1.460549e+10 -1.546472e+10 1.414295e+09
3.475535e+10 -2.478311e+10 -1.151005e+07
1.068406e+10 -5.416387e+10 -1.419345e+09
-1.067867e+10 -5.411880e+10 1.448525e+09
-2.325761e+10 6.391643e+09 2.490227e+08
3.369897e+10 2.136331e+10 2.504549e+09
-3.854409e+10 2.771423e+10 -6.736941e+08
2.001918e+10 -3.795617e+10 1.535331e+09
-1.944020e+10 -3.594335e+10 -1.186192e+09
3.113231e+10 -3.334917e+10 4.409188e+09
-2.663640e+10 6.561732e+08 -4.438130e+09
3.740267e+10 2.634044e+08 1.607184e+08
-2.744323e+10 -1.314978e+10 -1.541597e+09
2.920225e+10 -1.182503e+10 4.895781e+08
1.926964e+10 -3.139588e+10 -1.089519e+09
-2.964625e+10 6.417199e+09 7.531910e+07
-2.598981e+10 -3.643127e+10 1.372428e+09
1.624126e+10 2.898535e+10 -2.004954e+08
1.961910e+10 2.681338e+10 -9.550385e+08
-1.914081e+10 2.852038e+10 -1.568447e+09
-3.057413e+10 3.146480e+10 -7.248409e+08
-9.972449e+09 5.281491e+10 -1.469744e+09
4.315947e+10 -8.305733e+09 -2.388269e+09
-4.415011e+10 -6.364496e+09 -7.118769e+08
-2.857619e+09 3.481724e+10 3.892185e+08
2.556243e+09 3.709097e+10 8.445421e+08
-2.651768e+10 2.660894e+09 1.516649e+09
1.951423e+10 -1.032538e+10 -3.253777e+07
-3.864966e+10 -3.897946e+10 -8.702786e+08
-2.558156e+10 -1.485126e+10 -3.099241e+09
4.066420e+10 -6.500511e+09 -7.280225e+08
-1.567450e+09 -3.123286e+10 2.087307e+09
-7.067533e+08 -2.525506e+10 -4.278524e+08
-4.822021e+10 -7.866616e+09 -3.596738e+08
1.960557e+10 1.314267e+10 4.666216e+08
-1.972883e+10 1.333006e+10 -5.180377e+08
1.812595e+09 -2.365773e+10 2.708353e+08
-1.650468e+10 5.652341e+08 -1.504102e+09
-1.313108e+09 -2.257404e+10 -1.261318e+09
2.849216e+10 -8.609348e+09 2.384371e+08
-4.401491e+09 4.109821e+10 -1.246853e+09
3.374492e+10 3.868609e+09 -8.213329e+08
-3.245149e+10 3.841272e+09 7.417932e+08
-6.234565e+09 -1.942694e+10 1.354010e+09
6.219665e+09 -1.943818e+10 -1.341327e+09
3.836156e+10 3.483964e+10 -7.642039e+08
-3.886771e+10 3.424512e+10 1.501486e+09
-2.397878e+10 -4.297854e+09 8.328489e+08
-2.339259e+10 5.038953e+09 -1.534427e+08
-1.047912e+10 1.857359e+10 1.560999e+09
-3.052521e+10 -1.978777e+10 -7.380363e+08
1.505564e+10 4.516695e+10 3.079113e+09
2.998476e+10 3.387951e+10 5.492938e+08
-2.862229e+10 3.590914e+10 -1.902782e+09
-1.390112e+09 5.315003e+10 7.206290e+06
-4.466103e+10 -1.671612e+09 -1.492033e+09
3.711478e+10 -1.442466e+09 2.000676e+09
-1.100396e+10 3.054044e+10 -1.338872e+09
4.141873e+10 2.544994e+10 -7.843800e+08
-3.371598e+10 2.701252e+08 -1.160004e+09
-4.116603e+10 2.509301e+10 1.048376e+09
5.662266e+09 2.828431e+10 -3.179339e+08
2.708163e+10 2.102967e+10 3.365778e+09
-2.665833e+10 2.039568e+10 -3.304245e+09
-2.905839e+10 -3.294967e+09 -1.239112e+09
1.128980e+09 -2.428494e+10 2.422252e+09
-8.740367e+08 -2.303224e+10 2.429580e+09
1.825012e+10 3.491757e+10 -2.471709e+09
-2.233252e+10 2.083573e+10 1.471489e+09
4.770886e+10 -8.287114e+09 1.136979e+09
-2.229948e+10 6.635649e+08 -1.098626e+09
3.268672e+10 -1.687532e+10 6.126688e+08
-2.486408e+09 -2.493097e+10 7.294707e+08
2.545787e+09 -2.502959e+10 -6.700529e+08
-1.881245e+10 2.664028e+10 1.692690e+08
1.459279e+10 -3.046032e+10 -4.263965e+08
-1.445755e+10 -3.018358e+10 3.862696e+08
1.290272e+10 3.825627e+10 -1.097317e+09
-8.093112e+09 -3.743068e+10 3.414962e+09
8.096320e+09 -3.737482e+10 -3.408649e+09
9.794455e+08 4.213326e+10 -1.058379e+09
-3.193936e+10 -1.840529e+09 -6.188488e+08
-2.855326e+10 -1.360961e+10 2.774422e+08
-8.174962e+09 2.085560e+10 3.751537e+08
3.478267e+10 -8.550766e+09 1.539778e+09
3.640569e+10 7.979339e+09 6.192086e+08
-3.635660e+10 7.887939e+09 -5.790880e+08
-1.205045e+10 1.917016e+10 -4.059418e+08
-1.952426e+10 1.671354e+10 2.029034e+09
1.966901e+10 1.657535e+10 -1.962758e+09
-1.981263e+10 -1.253162e+10 -2.011690e+09
-3.168210e+10 1.078663e+10 -5.980990e+08
-2.561933e+10 -4.275312e+09 -1.146014e+08
3.168363e+10 1.077767e+10 5.798974e+08
-2.945710e+10 -3.051455e+10 7.966982e+08
2.154247e+09 5.414080e+10 -3.298824e+09
-3.518483e+10 1.079725e+10 6.791469e+08
3.518103e+10 1.080577e+10 -6.942327e+08
-7.752539e+08 -3.794575e+10 6.565746e+08
6.390632e+08 -4.112824e+10 -8.375310e+08
-2.800743e+10 1.975613e+10 -3.393667e+08
2.388430e+10 1.837081e+10 -4.785946e+08
-9.379263e+09 -4.802441e+10 -5.618738e+08
-2.120115e+10 -3.096253e+09 -9.252778e+07
1.038020e+10 -4.915347e+10 1.378047e+09
3.144326e+10 -1.476114e+09 -2.203764e+09
-2.459795e+10 1.005606e+08 -2.367157e+08
-2.775960e+10 6.515471e+08 3.073222e+09
2.774784e+10 7.901229e+08 -2.993526e+08
6.040843e+07 2.496933e+10 2.536445e+09
2.152540e+10 -2.072493e+09 9.661272e+08
3.016107e+10 -1.589889e+10 -1.970077e+09
-4.509018e+09 -2.036213e+10 1.251733e+09
5.639890e+09 -2.587193e+10 2.278264e+09
-2.284734e+10 -5.031914e+09 2.023131e+09
1.954651e+10 1.120484e+10 -8.566179e+08
-1.944917e+10 1.149839e+10 9.420482e+08
-2.778365e+10 -6.109922e+09 -1.560999e+09
2.200374e+10 2.051222e+10 -7.306291e+08
-8.789855e+09 2.835498e+10 4.547170e+09
-7.022187e+09 2.778200e+10 3.546220e+09
2.516506e+10 -5.242639e+09 -7.010179e+08
3.470143e+09 1.728138e+10 8.250511e+08
-9.075335e+09 3.097107e+10 -1.927183e+09
-2.686100e+10 -5.167746e+09 -1.831254e+09
-2.285171e+10 -5.213105e+09 1.441327e+09
-2.891593e+10 -4.423516e+09 1.705808e+09
3.622904e+10 -9.639196e+09 2.183890e+09
-2.986346e+10 -2.784037e+09 1.981824e+09
4.190177e+10 -3.402175e+09 2.326880e+08
-3.596312e+10 -6.938867e+09 1.410016e+09
3.631156e+10 -8.209132e+09 8.037351e+08
-3.272477e+09 -3.614307e+10 -6.774453e+08
4.277112e+09 -3.735983e+10 2.860328e+08
-1.080161e+10 1.873202e+10 -9.415262e+07
-4.143456e+10 1.115017e+10 1.587660e+08
-2.052636e+10 -5.244927e+09 -1.167616e+09
4.136440e+10 1.114100e+10 -1.467432e+08
-9.243769e+09 4.584827e+10 2.279737e+09
-3.945512e+10 -9.999697e+09 -1.277050e+09
-8.280451e+09 3.828310e+10 6.746728e+08
-3.397085e+10 -2.486598e+10 2.064266e+09
3.218057e+10 -7.880429e+09 -5.943350e+08
-1.848709e+10 -1.582236e+10 8.504600e+08
-2.606268e+10 -2.066273e+10 3.582190e+08
7.121713e+09 -1.986090e+10 1.042145e+09
-7.027432e+09 -1.999124e+10 -1.016829e+09
-2.802400e+10 -9.548121e+09 8.434428e+08
-1.467371e+10 -1.962084e+10 1.705171e+09
2.058505e+10 -2.488801e+10 1.340336e+09
-6.707240e+08 3.355666e+10 5.208545e+09
3.341760e+10 3.949368e+10 2.382217e+08
-4.538949e+10 5.499711e+09 9.786218e+08
4.560258e+10 5.481139e+09 -9.749288e+08
-3.315669e+10 1.172227e+10 1.023327e+08
3.315245e+10 1.169598e+10 -1.191008e+08
2.726205e+10 1.003704e+10 1.654018e+09
-2.780710e+10 9.128543e+09 -2.916021e+09
-2.013405e+10 -1.074709e+10 1.682615e+08
-2.040694e+10 1.827027e+10 -5.398110e+07
2.160693e+10 1.913688e+10 -2.770477e+07
1.014499e+10 1.771652e+10 -5.641689e+07
3.084345e+10 1.561012e+10 1.572709e+09
-3.078842e+10 1.585681e+10 -1.659644e+09
-2.361855e+10 4.415812e+09 -1.919971e+08
2.358110e+10 4.304568e+09 3.731569e+08
1.534802e+10 -3.919083e+10 -1.874142e+09
-1.578397e+10 -3.958525e+10 1.520586e+09
-3.565659e+10 -4.737302e+10 1.444323e+09
-1.866987e+10 -6.137555e+09 2.639370e+07
2.974695e+10 -4.430674e+10 1.617923e+09
2.608985e+10 1.423066e+10 1.202990e+09
-2.597854e+10 1.231799e+10 -1.127035e+09
1.342991e+10 -2.024777e+10 1.652717e+09
-1.354429e+10 -1.792757e+10 4.204706e+09
-2.774364e+10 -2.775367e+10 -2.546891e+09
-2.742767e+10 -2.836935e+10 -2.163037e+09
-2.665078e+10 -2.449351e+10 -1.278687e+09
-2.538342e+10 1.619717e+10 -4.044017e+07
2.257658e+10 1.649961e+10 -7.564796e+08
-1.922236e+10 -9.747997e+09 1.154828e+09
-2.075148e+10 -4.822554e+10 2.878300e+08
2.069876e+10 -4.830702e+10 -2.294574e+08
-1.864216e+10 -4.451157e+09 1.467275e+09
7.871835e+09 2.736200e+10 6.054015e+08
4.383097e+10 -4.819872e+09 -3.663303e+09
-4.240787e+10 -3.900048e+09 -1.852458e+09
1.880184e+10 -3.169110e+10 1.711542e+09
-1.897739e+10 -3.246396e+10 -1.623864e+09
-4.044224e+08 4.233077e+10 -5.535520e+08
1.947333e+10 -2.236821e+10 7.399660e+08
-1.962544e+10 -1.102653e+10 -2.490516e+09
-1.717108e+10 -2.290909e+10 -4.501182e+09
-4.257240e+10 1.781245e+10 -2.926871e+08
4.246980e+10 1.992077e+10 3.348514e+08
-2.495065e+10 -1.387922e+10 2.997103e+09
-2.998735e+10 -1.577530e+10 5.432568e+08
-1.988964e+10 -3.380306e+10 9.902350e+08
1.920719e+10 -3.401127e+10 -3.635020e+08
-8.180902e+09 -3.716201e+10 -2.582439e+09
7.940404e+09 -3.714030e+10 2.616873e+09
7.754722e+09 3.300688e+10 9.777490e+08
-2.462667e+10 -1.307563e+10 7.124680e+08
4.213373e+10 -1.717945e+10 1.399453e+09
2.596256e+10 1.187374e+10 2.633305e+08
-2.588119e+10 1.008778e+10 2.484531e+09
1.148700e+10 4.007607e+10 5.937357e+08
9.843433e+09 3.925247e+10 -2.183334e+09
-1.395929e+10 2.338212e+10 -2.844305e+09
2.334789e+10 1.260870e+10 1.190553e+08
-2.429339e+10 1.307172e+10 2.938983e+07
3.512154e+09 -2.934803e+10 2.401178e+09
-3.325821e+09 -2.728510e+10 -2.086991e+09
-2.798157e+10 -1.809580e+10 4.708190e+08
-1.575180e+10 -2.928025e+10 -3.191531e+08
1.363060e+10 -2.547888e+10 -2.477900e+09
-2.201781e+10 4.331640e+10 -1.935276e+09
2.593959e+10 -1.798019e+10 1.048524e+09
-5.426939e+09 1.940101e+10 -2.947139e+09
3.408725e+10 -3.031721e+10 -9.150466e+08
-4.567227e+10 1.173066e+10 -2.889248e+08
4.578490e+10 1.175845e+10 2.863999e+08
2.969506e+10 2.452517e+10 5.601515e+08
-3.065603e+10 2.500633e+10 -6.307913e+08
-1.786160e+10 -1.415326e+10 -1.353640e+09
2.711858e+10 4.179382e+10 -1.316166e+08
3.627377e+10 -3.701161e+10 1.057255e+09
4.007090e+10 3.568617e+10 1.464019e+09
-3.176070e+10 2.754943e+10 -6.450818e+08
-1.091207e+10 2.873748e+10 2.191099e+09
2.687232e+10 1.425108e+10 3.917577e+08
-2.562177e+10 1.310221e+10 -4.587977e+08
1.942184e+10 3.407625e+10 3.080926e+08
4.356908e+10 2.722194e+09 3.626426e+08
-4.161403e+10 5.816420e+09 -1.419297e+09
-2.078025e+10 -1.712402e+10 -1.020159e+09
1.071395e+10 4.783203e+10 1.341933e+09
2.289471e+10 -1.625003e+10 -1.047653e+09
-3.451945e+10 1.073174e+10 -9.393118e+08
3.454320e+10 1.072876e+10 9.370680e+08
1.016628e+10 2.606493e+10 6.082485e+08
-4.635745e+10 -2.348388e+10 7.239452e+08
3.018089e+10 -3.783312e+10 -3.035922e+09
3.544583e+10 -4.044892e+10 2.239143e+08
-2.284905e+10 -1.783655e+10 9.506259e+08
-1.610241e+10 -2.037061e+10 2.676730e+08
-1.885558e+10 -1.503455e+10 1.142324e+08
2.408831e+10 -2.769362e+10 -1.023469e+09
-2.343978e+10 -2.344793e+10 7.937263e+08
3.147479e+10 -2.528211e+10 -3.141839e+09
4.190566e+09 3.704205e+10 -3.310041e+09
-1.674456e+10 -9.105690e+09 1.310140e+08
3.475656e+10 -1.911579e+10 1.919758e+09
-4.425411e+10 -1.439506e+10 -5.776814e+08