# vtk DataFile Version 2.0
Electric current density generated by TTH
ASCII
DATASET UNSTRUCTURED_GRID
POINTS 2454 double
-2.255667e-05 1.463968e-05 -3.462243e-22
2.513346e-05 -8.588577e-06 -9.084467e-07
2.464036e-05 9.029590e-07 1.151074e-06
2.463795e-05 -8.873241e-07 -1.148949e-06
-2.524231e-05 -1.356076e-06 -1.399536e-06
-2.394735e-05 2.365056e-06 9.217113e-09
-3.890860e-07 -2.406490e-05 -1.092199e-07
-2.050233e-05 -1.389457e-05 1.222105e-06
-1.161880e-05 -2.123067e-05 6.095984e-07
-2.488221e-05 3.229968e-06 -1.359728e-06
1.967168e-06 2.419208e-05 7.382674e-07
-2.302597e-05 1.388986e-05 -3.462243e-22
-2.492168e-05 -9.124948e-06 -9.325743e-07
-1.240393e-05 -2.352511e-05 -8.656512e-07
9.946364e-06 -2.461085e-05 -9.267690e-07
-2.348638e-05 8.647395e-06 -1.340144e-06
8.975911e-06 -2.240694e-05 4.516012e-07
1.536414e-07 -2.513566e-05 -1.371756e-06
4.616196e-06 -2.621962e-05 8.282640e-07
-8.444632e-06 2.350297e-05 -1.320907e-06
-1.326061e-05 2.116272e-05 -1.320930e-06
1.260131e-05 2.339577e-05 -8.924966e-07
-2.347035e-05 1.312502e-05 -3.462243e-22
7.425615e-06 2.549740e-05 -9.128592e-07
1.005128e-05 2.459552e-05 -8.968023e-07
-1.365772e-05 2.071715e-05 1.248225e-06
-7.871553e-06 2.354180e-05 1.252938e-06
-2.053675e-05 1.383223e-05 1.218372e-06
2.283251e-05 -1.357839e-05 9.029981e-07
2.283251e-05 1.357839e-05 -9.029981e-07
-2.558241e-05 -1.511325e-06 1.405627e-06
-1.842332e-05 -1.770258e-05 1.411704e-06
-2.215283e-05 -1.471421e-05 -8.664399e-07
-2.388934e-05 1.234597e-05 -3.462243e-22
-2.346252e-05 8.097463e-06 1.251687e-06
-2.000636e-05 -1.545982e-05 1.400221e-06
-2.406010e-05 4.966707e-07 -6.310130e-08
2.055103e-05 1.456978e-05 1.384406e-06
2.055103e-05 -1.456978e-05 -1.384406e-06
2.298119e-06 2.511353e-05 1.389652e-06
1.164475e-05 2.115765e-05 -4.873710e-07
2.538287e-05 -3.538205e-06 -1.405490e-06
2.538287e-05 3.538205e-06 1.405490e-06
8.758907e-06 2.246473e-05 -3.654422e-07
-2.428248e-05 1.155356e-05 -3.462243e-22
1.246917e-05 2.250568e-05 1.390978e-06
1.246917e-05 -2.250568e-05 -1.390978e-06
-1.042169e-05 2.171470e-05 -2.499676e-07
2.180594e-05 1.531108e-05 -7.975451e-07
2.180594e-05 -1.531108e-05 7.975451e-07
1.164566e-05 -2.115820e-05 4.898792e-07
3.847340e-06 2.406063e-05 -8.738629e-07
2.047840e-06 -2.476535e-05 1.266649e-06
-2.170635e-05 -1.085188e-05 7.315804e-07
4.847620e-06 2.607583e-05 9.516892e-07
-2.464934e-05 1.074865e-05 -3.462243e-22
1.153658e-05 -2.391751e-05 -9.154578e-07
1.628982e-05 2.079427e-05 1.057728e-06
-1.604335e-05 -2.123774e-05 8.372001e-07
2.380907e-05 -5.484541e-06 -9.521534e-07
2.380907e-05 5.484541e-06 9.521534e-07
2.653812e-05 2.130444e-06 8.274078e-07
2.653812e-05 -2.130444e-06 -8.274078e-07
-1.741473e-05 -2.012663e-05 -8.391539e-07
-1.858727e-06 -2.399508e-05 -9.418801e-08
-2.459725e-05 -1.017285e-05 8.351309e-07
-2.498953e-05 9.932112e-06 -3.462243e-22
-2.471121e-05 5.057767e-06 -1.390581e-06
-6.462157e-06 -2.378071e-05 1.141100e-06
-4.812141e-06 2.379179e-05 7.409414e-07
-1.666861e-05 1.735861e-05 -7.528720e-08
1.643078e-05 -2.096943e-05 -8.041076e-07
1.033324e-06 2.428090e-05 -7.865792e-07
-2.661469e-05 -9.338965e-07 -8.168176e-07
-1.871788e-05 1.681252e-05 1.377450e-06
-5.426254e-06 2.600261e-05 -9.056259e-07
2.959814e-06 -2.650292e-05 -7.624817e-07
-2.530268e-05 9.104824e-06 -3.462243e-22
-1.578021e-05 1.839578e-05 6.774726e-07
-1.164673e-05 -2.396821e-05 7.922164e-07
-1.930383e-05 -1.438059e-05 1.475718e-07
-1.572483e-05 -2.004916e-05 -1.413565e-06
6.240282e-06 -2.360732e-05 9.360701e-07
-2.304168e-05 -1.338748e-05 7.915959e-07
-2.179343e-05 -1.327837e-05 1.412926e-06
5.802127e-06 2.592428e-05 -9.021594e-07
9.317503e-06 -2.263005e-05 -9.948262e-07
-1.802571e-05 1.665622e-05 -1.060655e-06
-2.558845e-05 8.267685e-06 -3.462243e-22
-2.403134e-05 -1.291666e-06 -7.892745e-08
4.523939e-06 2.625431e-05 -8.022872e-07
1.608749e-05 -2.116591e-05 8.773013e-07
1.608749e-05 2.116591e-05 -8.773013e-07
7.275623e-06 -2.298467e-05 -3.534023e-07
5.189675e-07 2.574824e-05 -1.386344e-06
-1.294043e-05 -2.041018e-05 -5.294455e-07
-1.070398e-05 2.440919e-05 7.848867e-07
-2.155125e-05 1.077159e-05 -2.868152e-07
-1.678917e-05 -1.878615e-05 -1.385105e-06
-2.584653e-05 7.421599e-06 -3.462243e-22
-1.950136e-05 1.808902e-05 8.601020e-07
-8.898909e-07 2.409544e-05 -3.654231e-07
1.523115e-05 1.864631e-05 1.881193e-07
1.523115e-05 -1.864631e-05 -1.881193e-07
1.139362e-06 -2.435015e-05 8.870499e-07
-2.397570e-05 -3.052405e-06 5.356225e-07
1.275723e-05 -2.336633e-05 8.294358e-07
-2.162537e-05 -1.134881e-05 -9.408039e-07
-1.143626e-07 -2.656535e-05 -9.022112e-07
-2.629026e-05 -4.010311e-06 8.663309e-07
-2.607665e-05 6.567483e-06 -3.462243e-22
-8.136299e-06 -2.321672e-05 -1.109208e-06
-2.341584e-05 1.273630e-05 7.811870e-07
-4.833563e-06 2.497273e-05 -1.412968e-06
6.608599e-06 2.415879e-05 1.346252e-06
-2.320761e-05 1.294497e-05 -8.922489e-07
-1.088853e-05 -2.295770e-05 -1.411912e-06
-2.422001e-05 1.229269e-06 -7.032750e-07
1.181745e-05 2.165684e-05 1.161176e-06
-1.663300e-05 -1.761821e-05 -6.636325e-07
2.357309e-05 8.680680e-06 -1.367801e-06
-2.627855e-05 5.706261e-06 -3.462243e-22
2.357309e-05 -8.680680e-06 1.367801e-06
1.181098e-05 -2.165966e-05 -1.160741e-06
-1.959916e-05 -1.609848e-05 -1.408942e-06
-2.705386e-06 -2.423028e-05 8.920550e-07
1.194225e-05 -2.256878e-05 1.412448e-06
7.604293e-06 -2.546376e-05 8.907958e-07
-2.203649e-05 1.494411e-05 -8.242128e-07
1.203349e-05 2.260115e-05 -1.407795e-06
1.357699e-05 -2.294419e-05 7.739177e-07
-2.596183e-05 5.637799e-06 -9.006000e-07
-2.645201e-05 4.838863e-06 -3.462243e-22
1.935694e-05 -1.472853e-05 -8.161905e-07
1.935694e-05 1.472853e-05 8.161905e-07
-1.079542e-05 -2.284649e-05 1.398067e-06
-2.483825e-05 4.961231e-06 1.405745e-06
-4.242561e-06 -2.628379e-05 8.267202e-07
-4.496496e-06 -2.492863e-05 -1.405959e-06
-1.710009e-05 2.034191e-05 -8.913002e-07
1.720810e-05 1.694276e-05 4.833757e-07
1.720810e-05 -1.694276e-05 -4.833757e-07
-2.493799e-05 -3.326318e-06 -1.377210e-06
-2.659685e-05 3.966230e-06 -3.462243e-22
-2.617091e-05 -6.239570e-07 1.227528e-06
1.056354e-05 2.173286e-05 5.230256e-07
-4.092041e-06 -2.485894e-05 1.384766e-06
9.341623e-06 2.222513e-05 3.527847e-07
-4.734112e-06 2.511682e-05 1.411206e-06
-1.925251e-05 1.444768e-05 1.384636e-07
1.358386e-05 2.294321e-05 -7.698309e-07
-1.672421e-05 1.927462e-05 -1.412960e-06
-2.441633e-05 1.052826e-05 8.725749e-07
-1.287929e-05 2.326180e-05 8.729101e-07
-2.671291e-05 3.089305e-06 -3.462243e-22
2.224498e-05 1.222488e-05 -1.410400e-06
2.224498e-05 -1.222488e-05 1.410400e-06
-2.368464e-05 -4.689419e-06 4.704977e-07
-4.145656e-06 2.631469e-05 8.051446e-07
-2.360497e-05 -1.029526e-05 -1.386553e-06
-2.477407e-06 2.651668e-05 -8.152815e-07
-2.341012e-05 -7.939830e-06 -1.193495e-06
1.310114e-05 -2.156486e-05 1.392208e-06
1.310408e-05 2.156289e-05 -1.392181e-06
-2.538341e-05 3.380241e-07 1.410588e-06
-2.680007e-05 2.209037e-06 -3.462243e-22
-1.131443e-05 -2.133719e-05 -4.899329e-07
-2.488374e-05 -4.286456e-06 -1.395198e-06
-2.208947e-05 1.273944e-05 1.413391e-06
-9.721491e-06 2.357704e-05 1.413342e-06
-2.362992e-05 -1.217404e-05 -8.825707e-07
1.840620e-07 2.665147e-05 7.862655e-07
1.088573e-05 -2.277354e-05 -1.393748e-06
-1.861708e-05 1.553496e-05 -6.964352e-07
-1.541857e-05 -1.922041e-05 1.139244e-06
2.536814e-05 2.430245e-06 1.413551e-06
-2.685822e-05 1.326379e-06 -3.462243e-22
2.536814e-05 -2.430245e-06 -1.413551e-06
-2.341063e-05 5.574261e-06 -6.067571e-08
2.056051e-05 -1.289225e-05 7.321235e-07
2.056051e-05 1.289225e-05 -7.321235e-07
-1.824338e-05 1.942034e-05 -7.963794e-07
-1.542784e-05 2.175705e-05 -7.559391e-07
-2.551140e-05 7.781776e-06 -7.559386e-07
-7.571708e-06 2.557453e-05 -7.559383e-07
2.409968e-05 8.675831e-07 -3.779680e-07
2.410961e-05 -8.226843e-07 4.068879e-07
-2.688732e-05 4.422860e-07 -3.462243e-22
1.929822e-05 -1.499036e-05 9.561856e-07
1.929822e-05 1.499036e-05 -9.561856e-07
-2.304208e-05 -1.336012e-05 -8.110531e-07
-1.399950e-05 -2.099373e-05 -1.392346e-06
-1.826941e-05 -1.934985e-05 8.433723e-07
7.758374e-06 2.316655e-05 9.505712e-07
-2.456565e-05 -6.047952e-06 -1.402291e-06
-2.088489e-05 1.573606e-05 1.243496e-06
-1.424333e-05 2.136592e-05 -1.399217e-06
-2.448826e-05 1.438627e-06 1.049541e-06
-2.688732e-05 -4.422860e-07 -3.462243e-22
-7.996384e-06 2.440050e-05 -1.399352e-06
-2.032484e-05 -1.365210e-05 -1.005916e-06
-1.729670e-05 1.672998e-05 -7.181050e-09
-1.551298e-05 2.106938e-05 1.235436e-06
-7.077123e-06 2.516114e-05 1.249973e-06
-1.707582e-05 -1.851614e-05 1.383610e-06
-1.813191e-05 1.956239e-05 7.539811e-07
-2.379473e-05 3.966205e-06 4.047863e-07
-2.434091e-05 8.180943e-06 -1.399126e-06
2.320499e-05 -6.539671e-06 3.541216e-07
-2.685822e-05 -1.326379e-06 -3.462243e-22
2.320499e-05 6.539671e-06 -3.541216e-07
-2.509126e-05 7.316925e-06 1.250579e-06
2.417210e-05 -2.363610e-06 7.629407e-07
2.417210e-05 2.363610e-06 -7.629407e-07
1.949056e-05 1.619720e-05 1.407096e-06
1.949056e-05 -1.619720e-05 -1.407096e-06
2.546549e-05 7.783633e-07 1.413568e-06
2.546549e-05 -7.783633e-07 -1.413568e-06
2.047227e-05 1.532585e-05 -1.410308e-06
2.047227e-05 -1.532585e-05 1.410308e-06
-2.680007e-05 -2.209037e-06 -3.462243e-22
-1.879417e-05 -1.682543e-05 1.390909e-06
-1.673617e-05 1.934424e-05 1.409891e-06
3.111081e-06 -2.432571e-05 -1.043518e-06
1.591682e-05 -1.807664e-05 -2.464942e-07
1.591682e-05 1.807664e-05 2.464942e-07
-2.373477e-05 -5.825718e-06 9.594238e-07
9.568103e-06 -2.210749e-05 -2.667041e-07
-1.363844e-05 -2.284391e-05 8.518237e-07
-2.403676e-05 5.007831e-06 1.069335e-06
-1.557197e-05 -2.158004e-05 -8.434611e-07
-2.671291e-05 -3.089305e-06 -3.462243e-22
-1.480210e-05 -2.213647e-05 8.191520e-07
6.765498e-06 2.457390e-05 -1.413526e-06
-2.616331e-06 -2.516143e-05 -1.402022e-06
-2.425319e-05 -7.394672e-06 1.408298e-06
2.443791e-05 7.296136e-06 1.413321e-06
2.443791e-05 -7.296136e-06 -1.413321e-06
9.860526e-06 2.471700e-05 8.440814e-07
2.377153e-05 1.196214e-05 -8.436104e-07
2.377153e-05 -1.196214e-05 8.436104e-07
-2.359688e-05 9.791181e-06 1.411823e-06
-2.659685e-05 -3.966230e-06 -3.462243e-22
[...]
POINT_DATA 2454
VECTORS 10.000GHz_fone_imag double
1.066530e+10 1.717025e+10 -6.827326e+07
-6.108378e+09 -2.129376e+10 -1.047793e+09
4.171611e+08 -2.778304e+10 2.268869e+08
-2.424655e+07 -2.708861e+10 -9.549671e+08
-1.834276e+09 2.505721e+10 -8.288668e+07
3.042141e+09 3.076766e+10 -8.605878e+08
-3.035606e+10 -1.102349e+09 4.647056e+08
-1.812446e+10 2.551401e+10 1.769698e+09
-2.642180e+10 1.282694e+10 8.074697e+08
3.919039e+09 2.630181e+10 -5.992339e+08
2.970317e+10 -2.276585e+09 7.430606e+08
9.874634e+09 1.744862e+10 -1.215752e+08
-7.485870e+09 2.020586e+10 1.159825e+09
-1.903415e+10 9.689542e+09 7.232490e+08
-2.027398e+10 -7.945345e+09 -1.606376e+08
9.393625e+09 2.379091e+10 -6.875705e+08
-2.959044e+10 -1.285790e+10 1.095735e+09
-2.664614e+10 5.303249e+08 5.474487e+07
-2.069128e+10 -3.114301e+09 8.751365e+08
2.475697e+10 1.000324e+10 7.463554e+08
2.138198e+10 1.718779e+10 1.344245e+09
1.971810e+10 -9.856002e+09 1.011376e+09
1.016652e+10 1.798794e+10 1.225845e+09
2.108069e+10 -5.418198e+09 -1.166458e+09
2.018043e+10 -8.387742e+09 -6.679362e+08
2.309346e+10 1.608483e+10 -1.412226e+08
2.694359e+10 7.822245e+09 4.752294e+08
1.530044e+10 2.270404e+10 3.032283e+08
-1.166991e+10 -1.787708e+10 1.171456e+09
1.153537e+10 -1.782045e+10 1.104618e+09
-1.324247e+09 2.433180e+10 7.296760e+08
-1.901018e+10 2.024986e+10 -1.437305e+08
-1.764932e+10 2.677757e+10 7.667271e+08
8.471671e+09 1.785392e+10 -5.302103e+08
8.980682e+09 2.783160e+10 -3.657902e+08
-1.634963e+10 2.110731e+10 -1.476959e+09
5.906350e+08 3.163844e+10 -7.291928e+08
1.495578e+10 -2.179256e+10 3.134683e+08
-1.556032e+10 -2.135982e+10 1.245834e+08
2.549635e+10 -1.121462e+09 -9.800653e+08
2.774114e+10 -1.599981e+10 9.250826e+08
-3.445946e+09 -2.591148e+10 1.392239e+09
3.437328e+09 -2.599721e+10 1.437244e+09
2.783708e+10 -1.049250e+10 1.241023e+09
9.367430e+09 1.773323e+10 1.153174e+09
2.190037e+10 -1.257497e+10 -1.297912e+08
-2.141628e+10 -1.232354e+10 2.400648e+08
3.094142e+10 1.529977e+10 -5.939728e+08
1.210652e+10 -1.769926e+10 1.091315e+09
-1.182347e+10 -1.737491e+10 5.762774e+08
-2.718389e+10 -1.524679e+10 2.712099e+09
2.884603e+10 -6.733547e+09 -3.641623e+08
-2.740308e+10 -1.315174e+09 -1.197857e+09
-1.419616e+10 2.695134e+10 -2.587715e+08
2.059331e+10 -3.904072e+09 9.242895e+07
8.104561e+09 1.858606e+10 -1.434802e+09
-1.878851e+10 -1.039390e+10 4.016407e+08
1.919472e+10 -1.452325e+10 -6.255076e+08
-1.775512e+10 1.131056e+10 -1.999519e+08
-5.616867e+09 -2.845911e+10 5.511836e+08
5.766976e+09 -2.789230e+10 9.332399e+08
1.728898e+09 -2.113420e+10 1.797346e+08
-2.140534e+09 -2.082080e+10 -5.515011e+08
-1.662978e+10 1.544068e+10 3.720147e+08
-3.418483e+10 2.695303e+09 -1.219903e+09
-8.857518e+09 2.189886e+10 1.802287e+08
8.268996e+09 2.019698e+10 9.664606e+08
5.146603e+09 2.638215e+10 5.963939e+08
-2.904090e+10 7.170270e+09 4.258388e+08
3.159771e+10 3.091852e+09 -4.689898e+08
2.207811e+10 2.137633e+10 3.485028e+07
-1.837260e+10 -1.554435e+10 1.798698e+09
3.236876e+10 -9.671352e+08 -3.899649e+08
1.836675e+08 2.097601e+10 7.433057e+08
1.861767e+10 1.858940e+10 -2.630817e+08
2.130422e+10 3.988495e+09 -1.662289e+09
-2.471886e+10 -2.353525e+09 -9.460433e+07
5.100739e+09 1.982132e+10 -6.023066e+08
2.287853e+10 1.963570e+10 7.499303e+08
-2.082348e+10 1.127271e+10 5.132094e+08
-1.714930e+10 2.520872e+10 1.606361e+09
-1.957599e+10 1.520082e+10 -9.371212e+08
-2.915191e+10 -6.494660e+09 -2.052645e+07
-1.016078e+10 1.868542e+10 4.765556e+08
-1.413958e+10 2.341511e+10 -1.871177e+09
2.034570e+10 -5.196354e+09 -8.899747e+08
-2.699961e+10 -1.119727e+10 -2.523630e+08
2.202750e+10 2.103305e+10 1.271867e+09
6.384255e+09 1.898114e+10 2.739522e+08
-1.057439e+09 3.067083e+10 6.091508e+08
2.309902e+10 -4.109814e+09 -6.077137e+08
-1.805918e+10 -1.324821e+10 4.343908e+06
1.882154e+10 -1.308848e+10 2.115024e+09
-2.884113e+10 -8.148443e+09 6.601343e+08
2.428106e+10 -1.060035e+09 -4.415089e+08
-3.096729e+10 1.894737e+10 -1.909713e+09
1.859325e+10 8.565242e+09 -9.891486e+08
1.469678e+10 2.991259e+10 -3.259430e+08
-1.940629e+10 1.674180e+10 -1.957678e+09
5.478877e+09 1.908621e+10 -1.438930e+09
1.524749e+10 1.449598e+10 -4.317736e+08
3.078807e+10 1.335012e+09 5.772301e+06
2.523555e+10 -1.692745e+10 1.215266e+09
-3.071411e+10 -2.409920e+10 -1.269788e+09
-2.930010e+10 -1.403539e+09 -6.486311e+08
-5.061099e+09 2.992091e+10 1.105135e+09
-1.919748e+10 -1.024193e+10 7.558508e+08
-1.160440e+10 2.567881e+10 -5.799705e+08
-2.195990e+10 3.878613e+08 1.028050e+09
-4.350470e+09 2.062942e+10 1.215849e+09
6.937486e+09 1.956660e+10 1.723810e+09
-2.627810e+10 1.020125e+10 -1.891543e+08
1.001191e+10 1.779893e+10 -2.474835e+08
2.759535e+10 3.564342e+09 -1.427609e+09
2.617389e+10 -8.609673e+09 -6.089219e+08
1.133629e+10 1.966131e+10 5.589020e+08
-2.287530e+10 1.099712e+10 9.565399e+08
1.311438e+09 2.974981e+10 6.013737e+08
2.559697e+10 -1.338251e+10 -3.740564e+08
-2.367875e+10 1.898070e+10 9.729459e+08
8.463379e+09 -2.511059e+10 -5.763650e+08
4.993943e+09 2.304623e+10 1.351211e+09
-7.887907e+09 -2.522404e+10 -8.845378e+08
-2.425665e+10 -1.422766e+10 -9.959952e+08
-1.602160e+10 2.139299e+10 -1.739326e+09
-2.952369e+10 2.342790e+09 6.856901e+08
-2.157651e+10 -1.176420e+10 -4.608796e+07
-2.257911e+10 -5.962533e+09 7.627817e+08
1.172441e+10 1.778505e+10 5.912675e+07
2.144039e+10 -1.070414e+10 3.143029e+08
-1.854247e+10 -1.076475e+10 4.216776e+08
4.569396e+09 2.327978e+10 1.751056e+09
2.145222e+09 2.018565e+10 -4.751710e+08
-1.988470e+10 -2.311655e+10 4.953251e+08
1.882005e+10 -2.117123e+10 2.403290e+08
-2.315178e+10 1.070243e+10 -8.008422e+08
4.739358e+09 2.488135e+10 5.842464e+08
-2.037092e+10 3.754145e+09 -3.945539e+08
-2.945583e+10 4.594872e+09 1.001248e+08
1.671524e+10 1.298317e+10 1.736304e+09
1.940940e+10 -2.169301e+10 9.567016e+08
-2.243303e+10 -2.281822e+10 -3.998484e+08
-4.737654e+09 2.592206e+10 4.635557e+08
2.820816e+09 1.974186e+10 4.435153e+07
-2.217952e+09 2.313662e+10 -1.653879e+08
2.583930e+10 -1.394722e+10 -1.996050e+07
-2.477380e+10 4.163543e+09 1.248626e+09
2.821722e+10 -1.228283e+10 -7.366064e+08
2.829166e+10 6.457220e+09 2.394522e+09
1.849745e+10 2.339601e+10 -2.165451e+08
1.834925e+10 -1.071390e+10 5.599463e+07
1.900157e+10 1.654217e+10 -3.250069e+08
8.620697e+09 1.883040e+10 -1.027507e+09
1.955491e+10 1.067438e+10 -3.930203e+08
2.822598e+09 1.974132e+10 -1.021085e+09
1.198415e+10 -2.158085e+10 6.022989e+08
-1.207309e+10 -2.155113e+10 5.741891e+08
-5.395297e+09 2.947902e+10 7.687546e+08
3.072400e+10 5.173533e+09 -4.399557e+08
-1.083185e+10 2.292798e+10 -6.692853e+08
2.141656e+10 1.410774e+09 -6.907433e+08
-1.051937e+10 2.563698e+10 8.235964e+08
-2.351584e+10 -1.555208e+10 1.006185e+08
2.368971e+10 -1.531664e+10 1.145628e+07
-7.692961e+08 2.632262e+10 -2.443514e+07
1.843083e+09 2.051637e+10 5.366790e+08
-2.480309e+10 1.286963e+10 3.607958e+08
-5.184033e+09 2.698743e+10 2.555848e+08
1.327507e+10 2.360921e+10 3.665498e+07
2.475196e+10 9.850144e+09 -2.521954e+08
-9.598804e+09 1.895730e+10 3.775575e+08
2.280306e+10 -6.701716e+07 -1.253782e+08
-2.383781e+10 -1.214524e+10 5.304842e+08
1.790183e+10 2.154508e+10 5.694490e+08
-2.110525e+10 1.846260e+10 2.921494e+08
2.343473e+09 -3.097738e+10 4.467080e+08
1.038842e+09 2.036188e+10 4.478366e+08
-2.299777e+09 -3.075570e+10 4.342463e+08
5.752024e+09 2.944665e+10 1.482872e+09
-1.656003e+10 -2.428592e+10 3.733903e+08
1.669695e+10 -2.437700e+10 4.208972e+08
1.509078e+10 1.490146e+10 -1.919433e+08
1.694965e+10 1.158271e+10 -1.119350e+09
6.304605e+09 2.064589e+10 -3.008880e+08
1.879687e+10 7.421324e+09 -7.574799e+08
1.060346e+09 -2.877125e+10 -6.382761e+07
-1.427382e+09 -3.066101e+10 -1.828840e+08
-6.620917e+07 2.042233e+10 -6.952721e+08
-1.950998e+10 -2.252486e+10 6.218201e+08
1.827269e+10 -2.247464e+10 -1.302252e+09
-1.068344e+10 1.796953e+10 -8.930744e+08
-2.319105e+10 1.385054e+10 8.510014e+08
-1.756530e+10 1.615910e+10 -7.335422e+08
2.763480e+10 -8.277632e+09 -1.866523e+09
-6.539077e+09 2.475954e+10 -7.265806e+08
1.390545e+10 1.737244e+10 6.920639e+08
2.060165e+10 1.535092e+10 1.345272e+09
1.395811e+09 3.194321e+10 -8.901586e+08
1.882954e+08 2.028970e+10 -2.075007e+08
2.295168e+10 5.777600e+09 -8.927821e+08
-1.878853e+10 2.625159e+10 -3.355014e+09
2.420285e+10 2.579754e+10 1.255869e+09
1.883057e+10 1.443903e+10 -3.599400e+08
2.107517e+10 6.622468e+09 3.752578e+08
-1.994801e+10 1.673401e+10 -4.501366e+08
1.499567e+10 1.428753e+10 -5.981464e+08
4.640014e+09 3.057015e+10 -1.995224e+07
7.452074e+09 2.318136e+10 1.230740e+09
-8.509060e+09 -3.004060e+10 -1.235702e+09
-4.844447e+08 2.034995e+10 5.808845e+08
7.838428e+09 -2.867747e+10 -1.681175e+09
6.402909e+09 2.209370e+10 -1.220688e+09
-3.513318e+09 -3.396999e+10 -1.368508e+08
3.450631e+09 -3.414811e+10 -4.394844e+07
1.618570e+10 -1.922899e+10 -7.989835e+08
-1.706799e+10 -2.100534e+10 -1.146879e+09
5.703191e+08 -2.495396e+10 7.896429e+08
-3.597517e+08 -2.470622e+10 -9.109452e+07
1.605874e+10 -1.956241e+10 1.326858e+09
-1.597295e+10 -2.119229e+10 -4.077565e+07
-1.114337e+09 2.086879e+10 2.481438e+08
-1.754712e+10 1.899926e+10 -4.035663e+08
1.854899e+10 1.587059e+10 -7.478175e+07
-3.316699e+10 -2.793349e+09 9.462444e+08
-2.590131e+10 -2.048927e+10 8.654380e+07
2.379523e+10 -2.139772e+10 -4.344919e+08
-7.818748e+09 2.709357e+10 -9.500740e+08
-2.868185e+10 -1.169960e+10 5.532232e+08
-1.925301e+10 1.189371e+10 8.452569e+06
6.224177e+09 2.697666e+10 7.376353e+08
-1.643186e+10 1.265972e+10 -6.801034e+08
-2.771034e+09 2.152820e+10 -3.895143e+07
-1.884388e+10 1.209297e+10 -7.151219e+08
2.356156e+10 -7.168926e+09 7.566292e+08
-2.610861e+10 2.097053e+09 -6.674474e+08
-5.725231e+09 2.425929e+10 6.059032e+08
8.582918e+09 -2.633355e+10 -3.869201e+08
-8.899239e+09 -2.588964e+10 -4.451826e+08
2.072580e+10 -8.849697e+09 -1.206481e+07
9.568487e+09 -1.852714e+10 9.931775e+07
-9.587578e+09 -1.846357e+10 1.490253e+08
1.074460e+10 2.648268e+10 5.682129e+08
-3.609296e+09 1.981709e+10 5.846198e+08
2.104300e+10 -1.140213e+09 4.652275e+07
-2.404600e+10 -7.793680e+09 -9.554420e+08
-2.150770e+10 2.235875e+10 -1.729016e+09
-1.872745e+10 -1.177531e+10 -7.807838e+07
1.785243e+10 -1.081294e+10 6.689019e+08
-2.650175e+10 -1.527708e+10 8.604848e+08
2.155070e+10 1.139350e+10 -2.962127e+08
1.881090e+10 -1.278168e+10 -1.608593e+08
-1.693638e+10 -1.280259e+10 6.603619e+07
2.245435e+10 -1.668528e+09 1.332225e+08
-2.540625e+09 1.991458e+10 -4.053938e+08
2.971052e+10 5.701658e+09 4.394472e+08
4.740815e+09 2.276185e+10 1.882052e+09
-2.886247e+10 1.564444e+09 -1.047406e+09
6.614792e+09 -2.766226e+10 -4.911682e+08
-6.175597e+09 -2.520762e+10 -9.962957e+08
2.137628e+10 1.047812e+10 1.212108e+09
2.202629e+10 1.678806e+09 3.282453e+08
2.561779e+10 2.058687e+10 -3.245803e+08
-1.624610e+10 2.543081e+10 1.740604e+09
2.067080e+10 -5.357116e+09 8.310419e+07
-4.664796e+09 2.080248e+10 -1.642480e+09
-8.565265e+09 3.192735e+10 3.902326e+08
-1.154108e+10 2.354874e+10 3.654282e+08
-1.937408e+10 7.897541e+09 -3.508776e+08
-3.022203e+09 -3.700284e+10 7.536618e+08
3.052585e+09 -3.713352e+10 7.945361e+08
-2.126011e+10 -2.223375e+10 4.602897e+07
2.192568e+10 -1.998429e+10 -4.924833e+08
-1.029780e+10 -2.064933e+10 6.204840e+08
1.030987e+10 -2.068962e+10 6.668351e+08
2.859356e+10 7.400283e+09 -4.940191e+08
-5.529515e+09 1.963201e+10 -4.012859e+08
-1.575108e+10 -2.410032e+10 -1.173124e+08
1.590105e+10 -2.412456e+10 -9.523490e+07
2.186709e+10 8.473390e+08 1.472321e+08
-8.882605e+09 2.245416e+10 -1.155287e+09
-2.909628e+10 6.432036e+08 3.549614e+08
1.926055e+10 -1.024518e+10 -3.860410e+08
-2.197942e+10 1.245580e+10 -3.628396e+08
-6.097453e+09 2.170742e+10 4.521803e+07
-2.804586e+10 1.325870e+10 1.085608e+09
1.535701e+10 -1.469808e+10 8.309967e+07
-3.742984e+09 1.975174e+10 -5.368878e+08
8.789706e+09 2.970908e+10 1.621976e+09
2.392866e+10 -5.539168e+09 -2.982586e+08
2.136185e+10 2.007100e+10 -3.587680e+08
8.376311e+09 2.357043e+10 6.102685e+08
-5.995519e+09 -2.722249e+10 9.032815e+08
6.238135e+09 -2.745088e+10 9.517555e+08
-2.421230e+10 -4.883640e+09 -5.025013e+08
9.288251e+09 1.844218e+10 1.102754e+09
-1.392724e+10 -1.660283e+10 9.019344e+08
1.491187e+10 -1.387708e+10 -5.685960e+08
-7.357046e+09 2.137741e+10 1.581870e+09
-8.964626e+09 2.150261e+10 -6.366245e+08
2.972652e+10 -1.133475e+09 1.100050e+08
-2.085783e+10 3.975819e+09 3.445517e+08
2.317367e+10 1.165309e+10 5.017655e+08
-2.107821e+10 -1.293846e+09 -1.291030e+09
1.292852e+09 2.445125e+10 3.193098e+08
1.641171e+10 -1.448094e+10 -1.686887e+08
-1.586742e+10 -1.546189e+10 -1.108800e+09
3.418861e+09 2.254358e+10 -4.468054e+08
2.551707e+10 1.891260e+10 2.017444e+09
-7.206718e+09 1.942572e+10 3.703370e+08
-1.963582e+10 1.622024e+10 1.208523e+09
-2.575245e+10 5.000247e+09 1.723307e+09
2.940550e+10 8.745450e+09 -1.394764e+09
-3.078775e+10 4.961786e+09 -5.663250e+08
-1.988223e+10 1.004958e+10 3.862213e+08
1.298084e+10 1.721321e+10 -1.585348e+08
-2.078528e+10 1.303026e+09 -2.163607e+08
2.367969e+10 -7.315364e+09 1.278239e+09
3.029238e+10 -8.638516e+09 -2.550549e+08
-2.072895e+10 2.828881e+09 -3.737995e+07
-8.368402e+09 1.835295e+10 1.151250e+09
1.707401e+10 -1.518692e+10 -8.887239e+07
-2.772855e+10 4.197324e+09 -2.462984e+08
1.686546e+10 -1.205228e+10 1.919109e+09
-1.668278e+10 -1.160456e+10 9.882685e+08
-2.019908e+10 1.047452e+09 9.749955e+08
-2.822898e+09 2.721840e+10 -5.059761e+08
-3.177425e+09 2.044668e+10 8.570292e+08
2.487628e+10 5.021522e+09 1.778304e+09
-3.735126e+09 2.415684e+10 6.975364e+08
1.900940e+10 7.116856e+09 7.691640e+08
-8.497286e+09 1.893994e+10 -1.101801e+09
1.865115e+10 1.029430e+10 -1.593257e+09
2.431601e+10 -5.075614e+07 -1.588120e+09
3.245156e+07 -2.078218e+10 -1.542178e+08
7.795681e+08 -2.182146e+10 -1.397007e+09
-1.813957e+10 1.585378e+10 -9.690075e+08
2.596655e+10 2.173940e+09 3.680301e+08
1.101351e+10 1.844376e+10 -1.373712e+08
-1.035264e+10 1.877540e+10 2.331574e+08
7.926280e+09 -2.602353e+10 1.583683e+09
-8.268129e+09 -2.724124e+10 1.330718e+09
-8.710322e+09 1.869704e+10 3.043566e+08
2.737461e+10 -2.046851e+09 4.147250e+08
1.422499e+10 1.957094e+10 -6.680516e+07
-3.376911e+09 -2.745735e+10 6.177567e+08
2.833431e+09 -2.737801e+10 8.685518e+08
-2.071138e+10 -1.435317e+10 1.171797e+09
2.104820e+10 -1.463713e+10 3.351708e+08
-5.471214e+09 -2.040215e+10 2.152121e+08
5.982114e+09 -2.083222e+10 6.106069e+08
1.997329e+10 -1.866079e+10 1.497713e+09
-1.853376e+10 -1.931751e+10 -9.740771e+08
-9.738770e+09 1.744003e+10 1.197989e+08
2.885838e+10 -7.365714e+09 9.280283e+08
9.941401e+09 -2.279100e+10 -1.034012e+09
-9.988194e+09 -2.278896e+10 -1.031248e+09
-1.408406e+10 1.793188e+10 -4.853498e+08
-3.980318e+09 3.073749e+10 9.570903e+08
2.493104e+10 8.322303e+09 -3.330454e+08
-1.154769e+09 2.903083e+10 -6.876995e+08
3.720857e+10 6.634228e+09 3.785710e+07
-1.756833e+10 2.448370e+10 -4.048901e+08
-3.272053e+10 -4.320834e+09 -9.796058e+08
-9.538740e+09 1.764098e+10 4.745068e+08
6.498894e+09 2.652591e+10 1.721409e+09
-5.700015e+09 -2.678423e+10 -5.780909e+08
5.636575e+09 -2.683994e+10 -6.018063e+08
-1.905165e+10 -1.828236e+10 2.055372e+09
1.757194e+10 -1.775585e+10 1.512118e+08
2.269094e+10 -1.626794e+10 -2.982559e+08
-2.426656e+10 -1.488742e+10 -2.234883e+08
6.748661e+09 1.924351e+10 -9.596884e+07
-1.446786e+10 1.433602e+10 2.355049e+08
-2.086304e+10 7.307949e+09 3.973767e+07
-1.071769e+10 1.893212e+10 3.829276e+08
-1.807416e+09 3.026961e+10 -5.388597e+08
-2.189352e+10 -5.206093e+09 -8.499044e+06
1.424224e+10 2.769451e+10 1.685720e+09
2.273759e+10 9.980687e+09 -3.459501e+08
2.157644e+10 1.189536e+10 8.464130e+08
2.951974e+10 1.254321e+10 -1.833977e+08
2.868551e+10 1.323701e+10 1.204335e+09
1.875725e+10 -1.546051e+10 -8.611873e+08
-1.812558e+10 -1.634515e+10 2.332202e+08
-2.004239e+10 -1.592316e+10 2.121955e+08
-1.080101e+10 1.724906e+10 4.993250e+08
-3.131936e+09 2.494098e+10 -6.283324e+08
1.686236e+10 1.685906e+10 -8.303278e+08
3.136672e+09 -3.344587e+10 -3.565661e+08
-3.158944e+09 -3.306276e+10 -4.500401e+08
-1.847505e+10 -7.870475e+09 5.485267e+08
-6.490986e+09 2.392991e+10 -1.033264e+09
2.042758e+10 -1.805359e+10 -3.790682e+08
2.689158e+10 1.158816e+10 5.662060e+08
-1.442443e+10 -2.596914e+10 6.674472e+08
1.442659e+10 -2.593874e+10 6.718822e+08
-1.244952e+10 1.567634e+10 -3.140462e+08
2.673448e+10 1.606273e+10 -1.905975e+08
1.782373e+10 2.235418e+10 -9.101816e+08
1.072894e+10 -2.779946e+10 1.666214e+08
-1.045180e+10 -2.794279e+10 1.046939e+08
1.893346e+09 2.979051e+10 5.138551e+08
-1.692057e+10 2.957287e+10 -1.508000e+08
-2.224628e+10 1.269330e+10 2.782394e+08
1.071828e+10 2.871426e+10 -3.331116e+08
-1.392112e+10 2.478756e+10 1.151193e+09
-2.099038e+10 -3.143496e+09 -7.693819e+08
-1.180854e+10 1.639066e+10 8.081100e+08
1.142757e+10 2.147106e+10 1.124460e+09
-1.377059e+10 -2.037468e+10 -1.332004e+08
1.412205e+10 -2.055895e+10 -1.931112e+08
-2.733988e+10 -2.856580e+09 -1.572430e+09
1.518890e+10 2.766611e+10 -1.138986e+09
-5.547100e+09 2.732680e+10 1.231804e+08
-1.944647e+10 1.568731e+10 3.592391e+08
-2.651151e+10 -1.526691e+10 2.416144e+08
-2.756058e+07 2.342519e+10 -5.685302e+08
2.724177e+10 -1.547411e+10 -3.504666e+07
-1.249345e+10 1.604154e+10 -1.445823e+09
1.341354e+10 1.672819e+10 7.650816e+08
5.895773e+09 -2.259786e+10 -1.838781e+09
-5.998276e+09 -2.257435e+10 -1.685881e+09
2.023227e+10 4.644704e+09 -2.342767e+08
2.989889e+10 -1.353922e+09 1.592112e+08
-8.659496e+09 -2.166228e+10 7.878369e+08
8.010083e+09 -2.161206e+10 -1.504099e+08
-2.194390e+10 -1.069021e+10 -4.642771e+08
-1.539108e+10 -2.610311e+10 1.522670e+09
1.540037e+10 -2.607543e+10 1.549932e+09
-1.339185e+10 1.659273e+10 1.862115e+09
-1.689639e+10 2.085964e+10 -2.445693e+08
-1.008009e+10 -2.147140e+10 2.299981e+08
9.976618e+09 -2.151626e+10 2.190846e+08
1.321122e+09 2.014057e+10 -9.338015e+08
-1.545207e+10 1.483605e+10 6.477730e+08
-8.074390e+09 1.892677e+10 4.361644e+08
9.945892e+09 2.392604e+10 -1.464664e+09
-8.518079e+08 2.722105e+10 -8.472563e+08
-1.929548e+10 1.735484e+10 2.484122e+08
2.348574e+10 -8.772953e+09 1.398404e+09
-1.604235e+10 1.781417e+10 5.054083e+08
2.188772e+10 2.172856e+10 5.533087e+08
-1.225663e+10 3.231405e+10 4.155910e+08
2.277959e+10 -2.497951e+09 7.455628e+06
-9.624502e+09 -2.014469e+10 -2.813969e+08
9.606564e+09 -2.013771e+10 -2.888905e+08
-6.946862e+09 -2.405528e+10 -8.110834e+07
6.644302e+09 -2.446280e+10 -1.657592e+09
1.901641e+10 2.436427e+10 1.006527e+08
1.850643e+10 7.782444e+09 -2.139954e+08
1.866544e+10 8.651247e+09 -1.731342e+09
-1.464016e+10 1.363451e+10 -1.368862e+08
-1.250906e+10 1.898262e+10 -9.676545e+07
-1.943051e+10 9.498650e+09 4.679374e+08
6.277287e+09 2.017705e+10 9.871538e+08
2.685149e+10 -2.286536e+10 -6.709263e+08
-2.019260e+10 -1.346723e+10 -5.023546e+08
-1.331814e+10 1.728350e+10 2.499888e+09
-2.963667e+10 -7.930067e+09 -2.164078e+08
7.827613e+09 2.951691e+10 -2.575402e+09
-3.229927e+09 -2.087103e+10 1.079365e+07
3.052502e+09 -2.089924e+10 2.083056e+08
-1.587161e+10 1.492702e+10 -5.733633e+08
-2.087913e+10 1.804491e+09 -4.711577e+07
1.798828e+08 -2.801532e+10 -5.608667e+08
-2.472956e+08 -2.479846e+10 -1.077930e+09
2.443284e+10 -2.149631e+09 1.918619e+08
2.447923e+10 -9.841148e+08 -5.028608e+08
2.826772e+10 -8.717893e+09 -1.725374e+08
-2.045757e+10 -3.907078e+09 -1.636715e+08
-1.234465e+10 2.103082e+10 -1.557018e+09
-6.350005e+09 2.239227e+10 7.675688e+08
-2.028771e+10 -6.062860e+09 -1.060448e+08
-1.551638e+10 1.322457e+10 -9.306634e+08
1.489034e+10 1.932485e+10 1.378666e+09
-8.970387e+09 2.456610e+10 3.093917e+08
1.609294e+10 -1.864218e+10 -5.100218e+08
-1.413250e+10 -1.921573e+10 9.029316e+07
2.246706e+10 -9.168258e+09 -3.625194e+08
-2.082348e+09 2.128621e+10 -3.971844e+08
-1.681612e+10 1.639416e+10 -4.768128e+08
-7.031722e+09 -2.023459e+10 2.723577e+08
6.947622e+09 -2.057471e+10 2.478182e+08
1.915959e+09 2.049064e+10 4.888203e+08
-1.576136e+10 1.387671e+10 -1.526366e+08
1.731370e+10 -1.586961e+10 -1.060102e+09
-1.988955e+10 1.620997e+10 6.454185e+08
-2.033109e+10 5.343150e+09 -7.403479e+08
1.605352e+10 2.708279e+10 -2.475926e+08
2.474656e+10 -2.092074e+10 -2.149223e+09
-2.737817e+10 -2.027794e+10 -1.618583e+09
-2.534471e+10 8.252297e+08 -3.443412e+08
-1.758330e+08 2.665763e+10 6.672958e+07