# vtk DataFile Version 2.0
Electric current density generated by TTH
ASCII
DATASET UNSTRUCTURED_GRID
POINTS 2312 double
2.689095e-05 -6.586384e-21 -3.462243e-22
2.572097e-05 7.845703e-06 -3.462243e-22
-2.671291e-05 -3.089305e-06 -3.462243e-22
1.005128e-05 2.459552e-05 -8.968023e-07
-1.365772e-05 2.071715e-05 1.248225e-06
-7.871553e-06 2.354180e-05 1.252938e-06
-2.053675e-05 1.383223e-05 1.218372e-06
2.283251e-05 -1.357839e-05 9.029981e-07
2.283251e-05 1.357839e-05 -9.029981e-07
-2.558241e-05 -1.511325e-06 1.405627e-06
-1.842332e-05 -1.770258e-05 1.411704e-06
-2.215283e-05 -1.471421e-05 -8.664399e-07
-2.346252e-05 8.097463e-06 1.251687e-06
-2.659685e-05 -3.966230e-06 -3.462243e-22
-2.000636e-05 -1.545982e-05 1.400221e-06
-2.406010e-05 4.966707e-07 -6.310130e-08
2.055103e-05 1.456978e-05 1.384406e-06
2.055103e-05 -1.456978e-05 -1.384406e-06
2.298119e-06 2.511353e-05 1.389652e-06
1.164475e-05 2.115765e-05 -4.873710e-07
2.538287e-05 -3.538205e-06 -1.405490e-06
2.538287e-05 3.538205e-06 1.405490e-06
8.758907e-06 2.246473e-05 -3.654422e-07
1.246917e-05 2.250568e-05 1.390978e-06
-2.645201e-05 -4.838863e-06 -3.462243e-22
1.246917e-05 -2.250568e-05 -1.390978e-06
-1.042169e-05 2.171470e-05 -2.499676e-07
2.180594e-05 1.531108e-05 -7.975451e-07
2.180594e-05 -1.531108e-05 7.975451e-07
1.164566e-05 -2.115820e-05 4.898792e-07
3.847340e-06 2.406063e-05 -8.738629e-07
2.047840e-06 -2.476535e-05 1.266649e-06
-2.170635e-05 -1.085188e-05 7.315804e-07
4.847620e-06 2.607583e-05 9.516892e-07
1.153658e-05 -2.391751e-05 -9.154578e-07
-2.627855e-05 -5.706261e-06 -3.462243e-22
1.628982e-05 2.079427e-05 1.057728e-06
-1.604335e-05 -2.123774e-05 8.372001e-07
2.380907e-05 -5.484541e-06 -9.521534e-07
2.380907e-05 5.484541e-06 9.521534e-07
2.653812e-05 2.130444e-06 8.274078e-07
2.653812e-05 -2.130444e-06 -8.274078e-07
-1.741473e-05 -2.012663e-05 -8.391539e-07
-1.858727e-06 -2.399508e-05 -9.418801e-08
-2.459725e-05 -1.017285e-05 8.351309e-07
-2.471121e-05 5.057767e-06 -1.390581e-06
-2.607665e-05 -6.567483e-06 -3.462243e-22
-6.462157e-06 -2.378071e-05 1.141100e-06
-4.812141e-06 2.379179e-05 7.409414e-07
-1.666861e-05 1.735861e-05 -7.528720e-08
1.643078e-05 -2.096943e-05 -8.041076e-07
1.033324e-06 2.428090e-05 -7.865792e-07
-2.661469e-05 -9.338965e-07 -8.168176e-07
-1.871788e-05 1.681252e-05 1.377450e-06
-5.426254e-06 2.600261e-05 -9.056259e-07
2.959814e-06 -2.650292e-05 -7.624817e-07
-1.578021e-05 1.839578e-05 6.774726e-07
-2.584653e-05 -7.421599e-06 -3.462243e-22
-1.164673e-05 -2.396821e-05 7.922164e-07
-1.930383e-05 -1.438059e-05 1.475718e-07
-1.572483e-05 -2.004916e-05 -1.413565e-06
6.240282e-06 -2.360732e-05 9.360701e-07
-2.304168e-05 -1.338748e-05 7.915959e-07
-2.179343e-05 -1.327837e-05 1.412926e-06
5.802127e-06 2.592428e-05 -9.021594e-07
9.317503e-06 -2.263005e-05 -9.948262e-07
-1.802571e-05 1.665622e-05 -1.060655e-06
-2.403134e-05 -1.291666e-06 -7.892745e-08
-2.558845e-05 -8.267685e-06 -3.462243e-22
4.523939e-06 2.625431e-05 -8.022872e-07
1.608749e-05 -2.116591e-05 8.773013e-07
1.608749e-05 2.116591e-05 -8.773013e-07
7.275623e-06 -2.298467e-05 -3.534023e-07
5.189675e-07 2.574824e-05 -1.386344e-06
-1.294043e-05 -2.041018e-05 -5.294455e-07
-1.070398e-05 2.440919e-05 7.848867e-07
-2.155125e-05 1.077159e-05 -2.868152e-07
-1.678917e-05 -1.878615e-05 -1.385105e-06
-1.950136e-05 1.808902e-05 8.601020e-07
-2.530268e-05 -9.104824e-06 -3.462243e-22
-8.898909e-07 2.409544e-05 -3.654231e-07
1.523115e-05 1.864631e-05 1.881193e-07
1.523115e-05 -1.864631e-05 -1.881193e-07
1.139362e-06 -2.435015e-05 8.870499e-07
-2.397570e-05 -3.052405e-06 5.356225e-07
1.275723e-05 -2.336633e-05 8.294358e-07
-2.162537e-05 -1.134881e-05 -9.408039e-07
-1.143626e-07 -2.656535e-05 -9.022112e-07
-2.629026e-05 -4.010311e-06 8.663309e-07
-8.136299e-06 -2.321672e-05 -1.109208e-06
-2.498953e-05 -9.932112e-06 -3.462243e-22
-2.341584e-05 1.273630e-05 7.811870e-07
-4.833563e-06 2.497273e-05 -1.412968e-06
6.608599e-06 2.415879e-05 1.346252e-06
-2.320761e-05 1.294497e-05 -8.922489e-07
-1.088853e-05 -2.295770e-05 -1.411912e-06
-2.422001e-05 1.229269e-06 -7.032750e-07
1.181745e-05 2.165684e-05 1.161176e-06
-1.663300e-05 -1.761821e-05 -6.636325e-07
2.357309e-05 8.680680e-06 -1.367801e-06
2.357309e-05 -8.680680e-06 1.367801e-06
-2.464934e-05 -1.074865e-05 -3.462243e-22
1.181098e-05 -2.165966e-05 -1.160741e-06
-1.959916e-05 -1.609848e-05 -1.408942e-06
-2.705386e-06 -2.423028e-05 8.920550e-07
1.194225e-05 -2.256878e-05 1.412448e-06
7.604293e-06 -2.546376e-05 8.907958e-07
-2.203649e-05 1.494411e-05 -8.242128e-07
1.203349e-05 2.260115e-05 -1.407795e-06
1.357699e-05 -2.294419e-05 7.739177e-07
-2.596183e-05 5.637799e-06 -9.006000e-07
1.935694e-05 -1.472853e-05 -8.161905e-07
2.544901e-05 8.687430e-06 -3.462243e-22
-2.428248e-05 -1.155356e-05 -3.462243e-22
1.935694e-05 1.472853e-05 8.161905e-07
-1.079542e-05 -2.284649e-05 1.398067e-06
-2.483825e-05 4.961231e-06 1.405745e-06
-4.242561e-06 -2.628379e-05 8.267202e-07
-4.496496e-06 -2.492863e-05 -1.405959e-06
-1.710009e-05 2.034191e-05 -8.913002e-07
1.720810e-05 1.694276e-05 4.833757e-07
1.720810e-05 -1.694276e-05 -4.833757e-07
-2.493799e-05 -3.326318e-06 -1.377210e-06
-2.617091e-05 -6.239570e-07 1.227528e-06
-2.388934e-05 -1.234597e-05 -3.462243e-22
1.056354e-05 2.173286e-05 5.230256e-07
-4.092041e-06 -2.485894e-05 1.384766e-06
9.341623e-06 2.222513e-05 3.527847e-07
-4.734112e-06 2.511682e-05 1.411206e-06
-1.925251e-05 1.444768e-05 1.384636e-07
1.358386e-05 2.294321e-05 -7.698309e-07
-1.672421e-05 1.927462e-05 -1.412960e-06
-2.441633e-05 1.052826e-05 8.725749e-07
-1.287929e-05 2.326180e-05 8.729101e-07
2.224498e-05 1.222488e-05 -1.410400e-06
-2.347035e-05 -1.312502e-05 -3.462243e-22
2.224498e-05 -1.222488e-05 1.410400e-06
-2.368464e-05 -4.689419e-06 4.704977e-07
-4.145656e-06 2.631469e-05 8.051446e-07
-2.360497e-05 -1.029526e-05 -1.386553e-06
-2.477407e-06 2.651668e-05 -8.152815e-07
-2.341012e-05 -7.939830e-06 -1.193495e-06
1.310114e-05 -2.156486e-05 1.392208e-06
1.310408e-05 2.156289e-05 -1.392181e-06
-2.538341e-05 3.380241e-07 1.410588e-06
-1.131443e-05 -2.133719e-05 -4.899329e-07
-2.302597e-05 -1.388986e-05 -3.462243e-22
-2.488374e-05 -4.286456e-06 -1.395198e-06
-2.208947e-05 1.273944e-05 1.413391e-06
-9.721491e-06 2.357704e-05 1.413342e-06
-2.362992e-05 -1.217404e-05 -8.825707e-07
1.840620e-07 2.665147e-05 7.862655e-07
1.088573e-05 -2.277354e-05 -1.393748e-06
-1.861708e-05 1.553496e-05 -6.964352e-07
-1.541857e-05 -1.922041e-05 1.139244e-06
2.536814e-05 2.430245e-06 1.413551e-06
2.536814e-05 -2.430245e-06 -1.413551e-06
-2.255667e-05 -1.463968e-05 -3.462243e-22
-2.341063e-05 5.574261e-06 -6.067571e-08
2.056051e-05 -1.289225e-05 7.321235e-07
2.056051e-05 1.289225e-05 -7.321235e-07
-1.824338e-05 1.942034e-05 -7.963794e-07
-1.542784e-05 2.175705e-05 -7.559391e-07
-2.551140e-05 7.781776e-06 -7.559386e-07
-7.571708e-06 2.557453e-05 -7.559383e-07
2.409968e-05 8.675831e-07 -3.779680e-07
2.410961e-05 -8.226843e-07 4.068879e-07
1.929822e-05 -1.499036e-05 9.561856e-07
-2.206296e-05 -1.537366e-05 -3.462243e-22
1.929822e-05 1.499036e-05 -9.561856e-07
-2.304208e-05 -1.336012e-05 -8.110531e-07
-1.399950e-05 -2.099373e-05 -1.392346e-06
-1.826941e-05 -1.934985e-05 8.433723e-07
7.758374e-06 2.316655e-05 9.505712e-07
-2.456565e-05 -6.047952e-06 -1.402291e-06
-2.088489e-05 1.573606e-05 1.243496e-06
-1.424333e-05 2.136592e-05 -1.399217e-06
-2.448826e-05 1.438627e-06 1.049541e-06
-7.996384e-06 2.440050e-05 -1.399352e-06
-2.154538e-05 -1.609100e-05 -3.462243e-22
-2.032484e-05 -1.365210e-05 -1.005916e-06
-1.729670e-05 1.672998e-05 -7.181050e-09
-1.551298e-05 2.106938e-05 1.235436e-06
-7.077123e-06 2.516114e-05 1.249973e-06
-1.707582e-05 -1.851614e-05 1.383610e-06
-1.813191e-05 1.956239e-05 7.539811e-07
-2.379473e-05 3.966205e-06 4.047863e-07
-2.434091e-05 8.180943e-06 -1.399126e-06
2.320499e-05 -6.539671e-06 3.541216e-07
2.320499e-05 6.539671e-06 -3.541216e-07
-2.100448e-05 -1.679093e-05 -3.462243e-22
-2.509126e-05 7.316925e-06 1.250579e-06
2.417210e-05 -2.363610e-06 7.629407e-07
2.417210e-05 2.363610e-06 -7.629407e-07
1.949056e-05 1.619720e-05 1.407096e-06
1.949056e-05 -1.619720e-05 -1.407096e-06
2.546549e-05 7.783633e-07 1.413568e-06
2.546549e-05 -7.783633e-07 -1.413568e-06
2.047227e-05 1.532585e-05 -1.410308e-06
2.047227e-05 -1.532585e-05 1.410308e-06
-1.879417e-05 -1.682543e-05 1.390909e-06
-2.044086e-05 -1.747268e-05 -3.462243e-22
-1.673617e-05 1.934424e-05 1.409891e-06
3.111081e-06 -2.432571e-05 -1.043518e-06
1.591682e-05 -1.807664e-05 -2.464942e-07
1.591682e-05 1.807664e-05 2.464942e-07
-2.373477e-05 -5.825718e-06 9.594238e-07
9.568103e-06 -2.210749e-05 -2.667041e-07
-1.363844e-05 -2.284391e-05 8.518237e-07
-2.403676e-05 5.007831e-06 1.069335e-06
-1.557197e-05 -2.158004e-05 -8.434611e-07
-1.480210e-05 -2.213647e-05 8.191520e-07
-1.985512e-05 -1.813554e-05 -3.462243e-22
6.765498e-06 2.457390e-05 -1.413526e-06
-2.616331e-06 -2.516143e-05 -1.402022e-06
-2.425319e-05 -7.394672e-06 1.408298e-06
2.443791e-05 7.296136e-06 1.413321e-06
2.443791e-05 -7.296136e-06 -1.413321e-06
9.860526e-06 2.471700e-05 8.440814e-07
2.377153e-05 1.196214e-05 -8.436104e-07
2.377153e-05 -1.196214e-05 8.436104e-07
-2.359688e-05 9.791181e-06 1.411823e-06
1.902765e-06 2.657821e-05 -7.949605e-07
2.514951e-05 9.519756e-06 -3.462243e-22
-1.924789e-05 -1.877877e-05 -3.462243e-22
8.511124e-06 -2.390550e-05 1.409886e-06
-1.766779e-05 -1.644572e-05 4.500208e-07
1.426470e-05 -2.250694e-05 -7.943561e-07
1.426470e-05 2.250694e-05 7.943561e-07
1.071122e-05 -2.169975e-05 6.040266e-07
-1.267576e-05 2.216566e-05 1.412429e-06
1.511017e-05 2.194855e-05 7.940206e-07
1.511017e-05 -2.194855e-05 -7.940206e-07
2.911145e-06 2.648758e-05 -7.937243e-07
-2.319987e-06 2.395285e-05 5.623217e-08
-1.861984e-05 -1.940168e-05 -3.462243e-22
-2.621895e-05 4.552092e-06 8.442086e-07
-5.839660e-07 -2.470384e-05 1.187615e-06
2.453247e-05 6.254763e-06 -1.404471e-06
2.453247e-05 -6.254763e-06 1.404471e-06
-1.119716e-05 2.317445e-05 -1.389384e-06
-2.128064e-06 2.653888e-05 8.266264e-07
-1.524543e-05 1.868278e-05 -3.721209e-07
[...]
POINT_DATA 2312
VECTORS 10.000GHz_fone_imag double
1.777543e-05 3.204188e-04 1.758466e-02
8.857548e-05 4.607772e-06 1.756373e-02
-1.786366e-04 7.881391e-05 1.770829e-02
4.419255e-03 1.115076e-02 1.424495e-02
1.167743e-02 -1.693377e-02 -1.174559e-02
5.970537e-03 -1.969598e-02 -1.198989e-02
1.664462e-02 -1.119007e-02 -1.294610e-02
-1.062358e-02 6.417822e-03 1.371090e-02
1.066931e-02 6.436203e-03 1.364869e-02
2.098729e-02 6.174781e-04 1.664532e-03
1.552113e-02 1.495402e-02 6.406211e-04
-9.391168e-03 -6.680174e-03 1.513526e-02
1.988056e-02 -6.868820e-03 -1.152019e-02
2.796600e-04 -5.149912e-04 1.757168e-02
1.750980e-02 1.353411e-02 -3.632846e-03
-1.133474e-03 6.919411e-06 -2.647164e-02
-1.815873e-02 -1.221593e-02 -5.362123e-03
1.813616e-02 -1.237025e-02 -5.260788e-03
-1.611318e-03 -2.182089e-02 -4.597060e-03
4.576717e-03 8.197027e-03 -2.449689e-02
2.123642e-02 -2.675714e-03 1.349355e-03
-2.124514e-02 -2.680493e-03 1.374494e-03
2.168855e-03 5.672804e-03 -2.531112e-02
-1.006975e-02 -1.829994e-02 3.002651e-03
3.424497e-04 -6.809285e-05 1.769087e-02
1.001969e-02 -1.838270e-02 2.767124e-03
-1.712751e-03 4.297023e-03 -2.620522e-02
8.995337e-03 6.097676e-03 1.470170e-02
-8.454867e-03 6.379970e-03 1.477845e-02
-4.519663e-03 8.135420e-03 -2.453566e-02
3.192458e-03 1.500080e-02 -1.938668e-02
-1.326837e-03 2.068879e-02 -1.107403e-02
1.113309e-02 5.527649e-03 -2.285343e-02
-2.578126e-03 -1.215406e-02 1.295333e-02
5.138531e-03 -1.105117e-02 1.377726e-02
2.593545e-04 1.427975e-04 1.755113e-02
-9.101423e-03 -1.188837e-02 1.192450e-02
6.382796e-03 8.826572e-03 1.474694e-02
1.632032e-02 -3.902846e-03 -1.877676e-02
-1.630305e-02 -3.908840e-03 -1.864225e-02
-1.049496e-02 -1.377661e-03 1.465284e-02
1.053221e-02 -1.474172e-03 1.457342e-02
-7.391236e-03 -8.639486e-03 1.476486e-02
5.846329e-05 -1.652379e-03 -2.673812e-02
1.062173e-02 4.414388e-03 1.450026e-02
-2.121814e-02 4.423615e-03 -5.723368e-03
6.248950e-04 -2.681786e-04 1.747102e-02
5.034319e-03 1.923044e-02 -1.439071e-02
1.873892e-03 -1.220816e-02 -2.266706e-02
-1.142373e-03 9.826610e-04 -2.650634e-02
6.864100e-03 -8.631715e-03 1.495614e-02
5.119374e-04 1.385616e-02 -2.192836e-02
-1.081866e-02 -4.930696e-04 1.458774e-02
1.576246e-02 -1.480101e-02 -6.306602e-03
-2.232363e-03 1.169957e-02 1.370952e-02
1.218103e-03 -1.036704e-02 1.540716e-02
7.456861e-03 -8.636697e-03 -2.318774e-02
3.864203e-04 2.822961e-04 1.757027e-02
4.868352e-03 9.743520e-03 1.517423e-02
2.347042e-03 2.311867e-03 -2.582586e-02
-1.288575e-02 -1.723000e-02 -8.650834e-04
-4.475614e-03 1.530984e-02 -1.957799e-02
9.020696e-03 5.216287e-03 1.505267e-02
1.880493e-02 1.149908e-02 -3.376072e-04
2.881612e-03 1.192883e-02 1.376263e-02
6.677990e-03 -1.566957e-02 -1.810765e-02
-1.297612e-02 1.278996e-02 -1.659147e-02
-2.343056e-03 5.806067e-04 -2.607562e-02
4.149251e-04 1.718408e-04 1.773128e-02
1.902568e-03 1.099653e-02 1.474504e-02
-7.241347e-03 9.309480e-03 1.405385e-02
6.523517e-03 9.099504e-03 1.429495e-02
1.584742e-03 -5.977607e-03 -2.532442e-02
8.263322e-04 2.068247e-02 2.586359e-03
-4.875350e-03 -8.019262e-03 -2.462090e-02
3.973053e-03 -9.358482e-03 1.483129e-02
-4.313761e-03 2.671293e-03 -2.588107e-02
-1.426744e-02 -1.640837e-02 -5.341074e-03
8.087987e-03 -8.060130e-03 1.431917e-02
-2.923126e-04 3.698892e-04 1.756779e-02
-1.642049e-04 6.255262e-03 -2.541965e-02
-1.642172e-03 -3.196674e-03 -2.595579e-02
2.907989e-03 -3.247731e-03 -2.659468e-02
-7.143433e-04 1.524909e-02 -2.007792e-02
9.643214e-03 1.429946e-03 -2.409217e-02
-5.213385e-03 9.689129e-03 1.475199e-02
-1.415908e-02 -7.795647e-03 -1.855624e-02
3.122239e-04 -1.198907e-02 1.397452e-02
1.141797e-02 1.845013e-03 1.427328e-02
-5.558639e-03 -1.778845e-02 -1.583438e-02
4.506404e-04 5.287873e-05 1.740267e-02
9.368159e-03 -4.681873e-03 1.464073e-02
-3.545730e-03 2.147345e-02 -2.136693e-03
-5.968786e-03 -2.110486e-02 -7.563753e-03
-1.048595e-02 5.659516e-03 1.411755e-02
-8.796685e-03 -1.993635e-02 -1.990617e-03
-1.210170e-02 3.760959e-04 -2.253712e-02
-9.528716e-03 -1.712695e-02 -1.433229e-02
-7.316797e-03 -8.168874e-03 -2.331960e-02
2.047292e-02 7.642426e-03 -6.594747e-03
-2.052983e-02 7.503622e-03 -6.597326e-03
-2.778020e-04 3.034898e-04 1.759562e-02
9.514566e-03 -1.704617e-02 -1.428789e-02
-1.718983e-02 -1.370160e-02 -3.557752e-03
1.734943e-03 1.539143e-02 -1.968493e-02
-1.004290e-02 1.888633e-02 -3.419065e-04
-3.139555e-03 1.177829e-02 1.421467e-02
-9.238041e-03 6.289529e-03 1.469616e-02
9.867466e-03 1.843927e-02 1.273563e-03
-5.327070e-03 9.021680e-03 1.501063e-02
-1.187245e-02 2.284835e-03 1.399373e-02
1.129363e-02 -8.824041e-03 -2.100461e-02
-4.229081e-05 -1.623162e-04 1.777068e-02
-2.164243e-04 3.782827e-06 1.759467e-02
-1.122778e-02 -8.571949e-03 -2.089845e-02
9.199556e-03 1.970736e-02 -4.776552e-03
2.135111e-02 -4.589733e-03 -4.149410e-03
1.761596e-03 1.115153e-02 1.433297e-02
-3.886324e-03 -2.192929e-02 -3.108945e-03
-7.534210e-03 8.909013e-03 1.400394e-02
-6.478807e-03 -5.876488e-03 -2.413000e-02
6.182854e-03 -6.262738e-03 -2.430468e-02
-2.156923e-02 -3.101050e-03 -6.394501e-03
1.745659e-02 1.581456e-04 9.127741e-03
-5.527150e-04 -1.269760e-04 1.749372e-02
-4.199032e-03 -8.123736e-03 -2.423592e-02
3.484706e-03 2.154021e-02 -5.553760e-03
-2.345328e-03 -5.454964e-03 -2.533763e-02
5.047768e-03 -2.101000e-02 -1.406441e-04
1.876316e-03 -1.664174e-03 -2.625297e-02
5.335131e-03 8.946780e-03 1.498977e-02
-1.423820e-02 1.617609e-02 -6.122841e-04
1.079791e-02 -4.370089e-03 1.389183e-02
5.783177e-03 -1.068271e-02 1.394575e-02
1.893639e-02 1.069250e-02 -3.027214e-03
-1.050939e-04 -7.618990e-05 1.754346e-02
-1.893001e-02 1.070772e-02 -3.042662e-03
8.769560e-03 1.942821e-03 -2.431011e-02
1.645686e-03 -1.028600e-02 1.574908e-02
-1.888213e-02 -8.140361e-03 3.263636e-03
-8.486126e-04 1.136002e-02 1.451450e-02
-1.821841e-02 -6.843410e-03 -1.362619e-02
-1.147206e-02 1.878091e-02 -4.912596e-03
1.134146e-02 1.881070e-02 -4.855036e-03
2.204032e-02 -4.604865e-04 -2.479605e-03
-3.779116e-03 -8.243140e-03 -2.426471e-02
-1.852313e-04 -1.699464e-04 1.763007e-02
-2.171658e-02 -3.800452e-03 -4.398675e-03
1.901246e-02 -1.073596e-02 -6.482820e-04
8.584765e-03 -2.004853e-02 -2.833928e-04
-1.022241e-02 -5.698355e-03 1.398355e-02
-1.120260e-04 -1.076207e-02 1.504081e-02
9.549364e-03 -1.979220e-02 -5.031233e-03
-9.369313e-03 7.343249e-03 -2.256017e-02
1.164207e-02 1.516529e-02 -1.476034e-02
-2.186987e-02 -2.159569e-03 4.998775e-05
2.185140e-02 -2.132044e-03 4.732298e-05
1.144770e-04 -3.321376e-04 1.631785e-02
-1.502949e-03 1.146159e-03 -2.595672e-02
-1.080171e-02 6.416717e-03 -2.230244e-02
1.081078e-02 6.407680e-03 -2.229764e-02
-7.106273e-03 8.056981e-03 1.472123e-02
-5.394350e-03 8.241027e-03 1.478494e-02
-9.417535e-03 2.863242e-03 1.503245e-02
-2.539908e-03 9.620276e-03 1.481238e-02
6.198383e-03 5.026484e-04 -2.509634e-02
-6.855198e-03 6.621446e-04 -2.525591e-02
-1.229219e-02 1.036076e-02 -1.941792e-02
5.704242e-04 3.909770e-04 1.659776e-02
1.249621e-02 9.686206e-03 -1.952513e-02
-9.955362e-03 -5.310472e-03 1.441396e-02
-1.151051e-02 -1.859145e-02 -4.681900e-03
7.946109e-03 8.544518e-03 1.461038e-02
-4.514389e-03 -1.492871e-02 -1.963115e-02
-2.127100e-02 -5.382571e-03 -3.458833e-03
1.413742e-02 -1.082007e-02 8.198025e-03
-1.199210e-02 1.681761e-02 2.881506e-03
1.837840e-02 -1.287768e-03 -1.745072e-02
-6.350047e-03 1.984563e-02 1.887015e-03
4.877374e-04 -8.057644e-05 1.723184e-02
-1.306551e-02 -9.245059e-03 -1.884537e-02
-6.022090e-05 2.014625e-04 -2.688420e-02
1.038423e-02 -1.414483e-02 8.901104e-03
4.842078e-03 -1.697891e-02 8.516029e-03
1.469501e-02 1.604173e-02 -5.854154e-03
6.835079e-03 -7.376468e-03 1.492779e-02
6.891549e-03 -7.930679e-04 -2.532940e-02
-1.982549e-02 6.813338e-03 2.036214e-03
-6.573129e-03 2.203774e-03 -2.519708e-02
6.640619e-03 2.571047e-03 -2.492089e-02
-6.431525e-04 3.158820e-04 1.730713e-02
1.724425e-02 -4.898822e-03 8.506677e-03
-1.396323e-02 1.462910e-03 -2.144931e-02
1.398695e-02 1.441512e-03 -2.140508e-02
-1.664551e-02 -1.405384e-02 -3.222186e-03
1.702537e-02 -1.409343e-02 -2.987766e-03
-2.165753e-02 -2.707578e-04 -1.554727e-03
2.160324e-02 -5.125193e-04 -1.307354e-03
1.712344e-02 1.306285e-02 4.272429e-04
-1.713875e-02 1.298238e-02 7.375763e-04
1.590197e-02 1.512498e-02 -4.808316e-03
4.798223e-04 -2.152929e-04 1.762627e-02
1.385138e-02 -1.625999e-02 4.289326e-04
2.542586e-03 -1.785861e-02 -1.761293e-02
2.750245e-03 -4.133790e-03 -2.550584e-02
-3.147298e-03 -3.343271e-03 -2.591638e-02
1.622389e-02 4.001596e-03 -1.842708e-02
1.807815e-03 -4.364654e-03 -2.585717e-02
5.835113e-03 9.809174e-03 1.452262e-02
1.761504e-02 -3.638527e-03 -1.671148e-02
-6.579286e-03 -9.037832e-03 1.443015e-02
6.101831e-03 9.220779e-03 1.472076e-02
7.877089e-05 2.791735e-04 1.782674e-02
5.635898e-03 2.064689e-02 -7.572800e-04
-2.368901e-03 -2.186490e-02 -3.704222e-03
2.081574e-02 6.167572e-03 -2.720925e-03
-2.097382e-02 -6.071587e-03 -2.577680e-04
2.086903e-02 -6.176312e-03 -1.207378e-04
-4.461186e-03 -1.093736e-02 1.442643e-02
1.009183e-02 4.626249e-03 1.437595e-02
-1.008704e-02 4.630171e-03 1.436801e-02
2.023211e-02 -8.555217e-03 6.368159e-04
1.312181e-03 1.093557e-02 1.463051e-02
2.688256e-04 3.373520e-04 1.765369e-02
-6.647782e-04 -6.602550e-05 1.752721e-02
-7.394269e-03 2.053951e-02 -2.404899e-03
5.592853e-03 4.398427e-03 -2.500301e-02
5.825411e-03 -8.934970e-03 1.494776e-02
-5.781299e-03 -8.973972e-03 1.480559e-02
-4.991818e-03 9.932778e-03 -2.336571e-02
1.067391e-02 -1.869151e-02 1.190999e-04
-5.920942e-03 -8.648805e-03 1.510894e-02
5.948340e-03 -8.515120e-03 1.505506e-02
1.026360e-03 1.085127e-02 1.490370e-02
-2.931484e-04 -1.313704e-03 -2.622627e-02
2.231264e-04 -7.732835e-05 1.771348e-02
1.115289e-02 -1.836009e-03 1.459819e-02
8.092179e-04 1.989224e-02 -1.340077e-02
2.147933e-02 5.236339e-03 -3.605949e-03
-2.115511e-02 5.348992e-03 -3.743049e-03
-8.927006e-03 1.836299e-02 3.301159e-03
1.053836e-03 -1.094483e-02 1.485483e-02
-4.104937e-03 5.363968e-03 -2.581164e-02
9.540947e-03 6.158282e-03 1.506076e-02
-3.274240e-03 -1.147149e-02 1.405172e-02
-3.061360e-03 -1.013881e-03 -2.641074e-02
2.267986e-04 -3.600944e-05 1.743297e-02
-1.942227e-02 -9.422148e-03 -4.707167e-03
-4.495550e-03 -9.677384e-03 1.463473e-02
1.393674e-02 -1.146717e-03 -2.231407e-02
-1.391213e-02 -1.203356e-03 -2.233681e-02
-9.502612e-03 8.983140e-03 -2.226720e-02
8.784424e-03 9.650361e-03 -2.208371e-02
8.552680e-03 -4.377641e-03 1.571904e-02
-9.152158e-03 -4.660630e-03 1.540424e-02
-1.007656e-03 5.656566e-03 -2.558104e-02
1.591154e-02 -9.865562e-03 -1.623734e-02
3.950070e-04 -3.809038e-05 1.761324e-02
-1.593413e-02 -9.901047e-03 -1.617083e-02
-1.481134e-04 1.088873e-02 1.498621e-02
1.888003e-02 6.759259e-03 4.223951e-03
-6.772799e-04 -2.083651e-02 -1.162318e-02
-5.586114e-03 -1.041896e-02 1.427522e-02
1.061912e-02 1.896745e-02 -1.000247e-03
-9.239663e-03 -2.476857e-03 1.570546e-02
1.024527e-03 3.560146e-03 -2.604018e-02
-7.332916e-03 -8.202815e-03 1.456390e-02
-1.153308e-02 4.388375e-03 -2.295047e-02
1.551264e-04 3.742002e-04 1.747476e-02
4.703468e-03 2.035835e-02 2.324679e-03
-9.849356e-03 1.094564e-02 -2.079314e-02
1.935976e-02 -7.182456e-03 3.356997e-03
-1.927796e-02 3.528727e-03 -1.425744e-02
1.932758e-02 3.541470e-03 -1.425890e-02
4.279492e-03 -2.104105e-02 -3.827053e-04
-9.659366e-03 4.240255e-03 1.474974e-02
-6.873504e-03 7.089775e-03 1.524616e-02
7.291083e-03 6.590690e-03 1.515539e-02
1.868033e-02 7.282147e-03 3.178786e-03
-2.172236e-04 -1.247689e-04 1.752325e-02
-2.394398e-04 -3.203268e-03 -2.606470e-02
2.110810e-03 9.965802e-03 1.501385e-02
1.095337e-02 -1.755444e-02 3.258017e-03
3.980184e-04 -1.079214e-02 1.483996e-02
-2.056268e-02 1.575226e-03 2.755685e-03
7.500603e-03 8.172086e-03 1.479993e-02
-7.729364e-03 8.428022e-03 1.452577e-02
-1.988950e-02 2.658876e-03 3.649539e-03
-5.960561e-03 1.014278e-02 -2.323380e-02
-1.304036e-02 -1.734075e-02 -1.788871e-03
-9.758715e-05 -1.080750e-04 1.765349e-02
-4.480826e-03 -2.154433e-02 -3.376101e-03
-3.533785e-03 1.157017e-02 -2.294420e-02
3.400113e-05 2.870489e-04 -2.651573e-02
4.737757e-03 8.441281e-03 1.557390e-02
-7.954493e-03 5.799550e-03 1.510347e-02
3.830156e-04 1.073507e-02 1.457400e-02
-6.162566e-03 -2.081004e-02 -5.451187e-04
-7.770538e-04 -4.120458e-03 -2.616318e-02
-1.061479e-03 -9.693343e-03 1.487160e-02
-1.119882e-02 -1.246038e-02 9.860488e-03
-2.832134e-04 -2.634108e-04 1.765033e-02
4.381929e-03 2.147030e-02 -2.311223e-03
5.978015e-03 8.903424e-03 1.472449e-02
-5.902621e-03 8.755505e-03 1.481656e-02
9.417436e-04 1.113719e-02 1.442179e-02
1.647558e-02 1.416910e-03 -1.865811e-02
-1.090650e-02 -1.838715e-03 1.468035e-02
-3.559144e-03 1.977482e-02 3.374488e-03
2.100491e-02 3.557052e-03 5.477139e-04
-4.158504e-03 1.001851e-02 1.427414e-02
-5.400104e-03 9.055597e-03 1.471901e-02
-2.887595e-05 -1.267510e-04 1.777211e-02
5.838544e-04 -2.147099e-02 -4.529860e-04
1.067552e-02 -5.628191e-04 1.472064e-02
-1.117419e-02 -9.167157e-04 1.398145e-02
-6.050595e-03 -7.210707e-03 1.571943e-02
-1.769335e-03 2.094910e-02 -9.820397e-03
-9.699027e-03 5.538423e-03 1.458661e-02
8.192727e-03 4.458813e-03 1.556813e-02
1.613181e-02 4.598623e-03 -1.805405e-02
-1.629868e-02 4.610648e-03 -1.812903e-02
3.287071e-03 2.053587e-02 3.350651e-03
-2.074861e-04 -3.096011e-04 1.767953e-02
1.734538e-02 -1.116227e-02 2.727502e-03
-2.071546e-02 2.453213e-03 -9.599380e-03
2.073387e-02 2.400331e-03 -9.523719e-03
1.193981e-02 -1.832014e-02 -3.533425e-03
-1.185533e-02 -1.843280e-02 -3.369331e-03
-9.597946e-03 2.687921e-03 1.523496e-02
9.707968e-03 2.623278e-03 1.525321e-02
1.526250e-02 1.382106e-02 -1.156420e-02
-1.495730e-02 1.380447e-02 -1.212574e-02
2.989245e-03 1.299313e-02 -2.146543e-02
-2.416771e-04 -2.283487e-04 1.764780e-02
5.309965e-05 -2.795372e-04 1.784581e-02
1.938744e-02 9.330299e-03 -1.600713e-03
-1.938681e-02 9.339518e-03 -1.614251e-03
-7.775244e-03 -5.731810e-03 1.541417e-02
-5.888529e-03 -1.275140e-03 -2.556637e-02
6.937872e-03 -1.978520e-02 2.532644e-03
1.745791e-02 3.180329e-04 -1.808850e-02
-2.347147e-03 1.419132e-02 -2.148100e-02
-1.780024e-02 -1.344159e-02 -1.222555e-03
-8.640321e-04 7.611637e-03 -2.511220e-02
-2.036303e-02 4.969744e-03 -1.045135e-02
1.822356e-04 -3.005315e-04 1.753853e-02
-1.794189e-02 2.711257e-03 -1.610466e-02
1.796337e-02 2.699947e-03 -1.608918e-02
1.537949e-02 -1.549268e-02 -1.501406e-03
-1.573705e-02 -1.483952e-02 -1.798099e-03
-1.225021e-02 -1.822915e-02 -3.432804e-03
1.232145e-02 -1.827050e-02 -3.254981e-03
-9.335744e-03 3.339078e-03 1.489910e-02
-7.326149e-03 -7.411355e-03 1.491814e-02
3.543820e-03 1.045657e-02 1.495156e-02
-1.184156e-02 -8.837057e-04 -2.273506e-02
-3.061507e-04 -1.646024e-04 1.753579e-02
-2.401037e-03 1.000426e-02 1.526051e-02
2.989140e-03 -1.168443e-03 -2.606431e-02
-7.719636e-03 1.858212e-02 3.863491e-03
-9.597128e-03 1.787765e-02 4.039173e-03
1.169437e-03 -2.707910e-03 -2.628058e-02
1.845619e-03 -2.974300e-03 -2.625468e-02
1.436466e-02 1.511543e-02 2.772459e-03
-1.401843e-02 1.529874e-02 3.062839e-03
1.315086e-02 -1.556365e-02 -9.430834e-03
2.135603e-02 2.851834e-03 -3.247019e-04
1.635300e-05 5.736192e-05 1.779444e-02
-1.367469e-02 1.417557e-02 5.214461e-03
2.594478e-03 5.721322e-04 -2.626406e-02
-2.597334e-03 6.493202e-04 -2.625925e-02
-3.634576e-03 9.721251e-03 1.470965e-02
2.097180e-02 5.222701e-03 -3.915631e-03
-1.305945e-02 -1.651121e-02 -9.731763e-03
4.815332e-03 -1.302682e-02 -2.156140e-02
1.931243e-02 -9.909789e-03 -8.679160e-03
-1.930656e-02 -9.905857e-03 -8.684044e-03
7.358878e-03 -1.182946e-02 -2.167894e-02
-5.813741e-05 -1.203969e-04 1.778631e-02
1.283665e-02 -1.035300e-02 -1.869658e-02
2.380739e-03 1.064268e-03 -2.604896e-02
-2.287129e-03 1.030075e-03 -2.612365e-02
-1.497536e-02 1.360500e-03 -2.023613e-02
-1.701978e-02 -1.135209e-02 5.355813e-03
-1.084107e-02 -1.856753e-02 1.571822e-04
1.302605e-02 -4.683738e-03 -2.161928e-02
1.668512e-02 9.956895e-03 -1.449491e-02
-1.186282e-03 9.463398e-03 1.518561e-02
-1.857134e-02 8.652290e-03 3.759527e-03
3.486355e-05 -1.539626e-04 1.750455e-02
1.772241e-02 -1.181176e-02 4.990703e-04
-1.773313e-02 -1.173588e-02 5.162772e-04
-2.727705e-03 2.032956e-02 -1.181187e-02
1.946236e-03 -1.187392e-03 -2.628462e-02
2.122602e-02 3.821990e-03 -7.988958e-03
1.189342e-02 1.593379e-02 4.927807e-03
-7.467772e-04 1.564426e-03 -2.644141e-02
9.611009e-03 -2.547773e-04 1.573264e-02
7.461322e-04 1.709733e-03 -2.649274e-02
7.998477e-03 -6.047465e-03 1.505594e-02
-1.687413e-04 -1.561694e-04 1.745813e-02
-1.923261e-02 -4.675052e-03 4.794218e-03
1.921751e-02 -4.703598e-03 4.791442e-03
2.550823e-03 -9.604473e-03 1.521559e-02
1.423898e-03 1.153438e-02 -2.283132e-02
-9.935769e-03 3.950578e-03 1.510191e-02
9.863260e-03 3.904520e-03 1.508509e-02
-9.132627e-03 1.920901e-02 2.303363e-04
7.425063e-03 -3.785032e-03 -2.469281e-02
-7.415090e-03 -3.787299e-03 -2.468487e-02
1.580686e-02 1.286499e-02 3.782646e-03
-3.120040e-04 -7.607400e-04 1.756897e-02
-1.835835e-02 8.529726e-03 3.663451e-03
1.836127e-02 8.495591e-03 3.682726e-03
1.040852e-02 -8.317235e-04 1.488866e-02
7.429726e-03 8.871123e-03 1.427095e-02
1.011633e-02 4.809658e-03 1.441117e-02
-1.830424e-02 8.036933e-03 4.733084e-03
-1.987148e-02 -2.769614e-04 -1.301948e-02
-1.422333e-02 -1.495343e-02 3.937318e-03
7.923961e-03 2.011704e-02 -8.988146e-04
1.513428e-02 -1.444400e-02 -1.189195e-02
3.099659e-04 -2.890816e-04 1.756518e-02
1.508028e-02 5.348350e-03 -2.012468e-02
-1.128281e-03 -1.075841e-02 1.500726e-02
-9.757030e-03 4.612218e-03 1.480485e-02
9.752347e-03 4.608154e-03 1.479756e-02
-2.086402e-02 5.962645e-03 -3.083825e-03
2.099095e-02 5.888416e-03 -3.361486e-03
-1.244637e-02 8.782711e-03 -2.038662e-02
-3.781355e-03 8.959527e-03 1.485270e-02
-3.958815e-03 7.941196e-03 1.533405e-02
1.622154e-02 1.216492e-02 3.064329e-03
2.595204e-04 1.919769e-04 1.765937e-02
-4.063777e-03 -8.687916e-03 1.543292e-02
8.995630e-03 -2.718877e-03 1.529823e-02
1.312157e-02 1.754374e-02 2.627319e-04
-1.248175e-02 1.713432e-02 -7.377563e-04
8.061900e-03 6.061221e-03 1.470512e-02
-3.886695e-04 2.971283e-03 -2.615904e-02
3.544592e-03 -1.532152e-03 -2.605646e-02
-1.024971e-02 1.667016e-03 1.495287e-02
1.007606e-02 1.634567e-03 1.503577e-02
-9.333583e-04 -9.733802e-03 1.508168e-02
-1.574707e-04 1.080304e-04 1.741296e-02
-2.974000e-04 4.376270e-04 1.729891e-02
2.116536e-02 8.150307e-04 1.967784e-03
-2.079070e-02 5.355933e-04 2.503531e-03
2.342787e-03 2.035382e-02 3.458942e-03
9.806321e-04 2.068389e-02 3.227103e-03
3.620366e-03 1.335278e-02 -2.097247e-02
1.034933e-03 -8.987649e-03 1.552759e-02
-1.801470e-02 -1.077245e-02 2.464230e-03
1.890697e-02 5.547842e-03 4.776232e-03
3.502751e-03 -8.613467e-03 1.529147e-02
-1.595104e-02 1.370581e-02 1.751660e-03
2.930847e-04 2.101838e-05 1.740298e-02
1.864652e-02 8.730920e-03 3.910894e-03
-1.612637e-02 -1.225147e-02 3.861159e-03
1.610097e-02 -1.212180e-02 3.934102e-03
-7.585523e-03 -1.963368e-02 1.575625e-03
9.552299e-03 8.127981e-04 1.548341e-02
1.315700e-02 1.515205e-02 4.449402e-03
-9.865918e-03 3.044689e-03 1.497147e-02
9.849120e-03 3.593674e-03 1.500127e-02
-1.050294e-02 1.077692e-03 1.477984e-02
-1.364576e-02 -1.415224e-02 5.363925e-03
-4.023999e-04 6.662603e-05 1.737808e-02
1.282454e-02 1.750832e-02 -1.467873e-03
3.128381e-03 1.003984e-02 1.494643e-02
-9.268234e-04 8.580203e-04 -2.635275e-02
3.599427e-03 6.470037e-03 -2.515937e-02
-4.351398e-03 6.389745e-03 -2.546484e-02
1.518408e-03 2.103507e-02 3.179005e-04
2.166828e-02 -1.743053e-03 6.362566e-05
7.493200e-03 6.032397e-03 1.560165e-02
-7.919236e-03 6.038857e-03 1.505186e-02
-9.979881e-03 1.938350e-02 -2.689249e-03
1.208258e-04 2.387990e-04 1.767307e-02
-3.084716e-03 -9.282800e-03 1.520913e-02
5.702624e-03 -7.121811e-03 1.564261e-02
7.356092e-03 -6.100344e-03 1.522436e-02
-7.359055e-03 -6.477908e-03 1.498557e-02
1.015367e-03 -2.015139e-02 4.203754e-03
8.969887e-03 2.465781e-03 1.526961e-02
9.062426e-03 1.898077e-02 6.223604e-04
-1.042217e-02 1.881788e-02 -9.020935e-03
-1.962294e-02 -8.660751e-03 7.594566e-04
1.947807e-02 -8.685805e-03 7.191548e-04
-1.117097e-04 -3.116464e-05 1.760718e-02
-9.057280e-06 -1.344108e-03 -2.647114e-02
5.568467e-03 -2.009659e-02 1.996567e-03