# vtk DataFile Version 2.0
Electric current density generated by TTH
ASCII
DATASET UNSTRUCTURED_GRID
POINTS 19960 double
2.862327e-05 9.630586e-06 -4.898587e-23
-1.810504e-05 -2.417121e-05 -4.898587e-23
2.755283e-05 -1.136644e-05 4.563131e-08
1.686366e-05 -2.457583e-05 4.563152e-08
1.686366e-05 2.457583e-05 4.563152e-08
2.454575e-05 -1.752379e-05 -1.210623e-07
1.483887e-05 -2.625673e-05 -1.203857e-07
1.483887e-05 2.625673e-05 -1.203857e-07
-2.480254e-05 -1.656422e-05 9.709747e-08
-2.205277e-05 -2.008021e-05 9.709747e-08
-2.559838e-05 -1.530564e-05 9.709747e-08
-2.914277e-05 -6.343380e-06 9.709747e-08
-1.800431e-05 -2.424634e-05 -4.898587e-23
-2.059096e-05 2.157822e-05 9.911241e-08
-1.362396e-05 -2.653163e-05 9.709747e-08
-2.393793e-05 -1.779310e-05 9.946077e-08
-1.908604e-05 2.292008e-05 9.911241e-08
-2.615349e-05 1.433649e-05 9.709747e-08
3.328527e-06 2.963998e-05 9.911241e-08
-2.278913e-05 1.924046e-05 9.709747e-08
5.551263e-06 2.930398e-05 9.709747e-08
-1.057761e-05 2.788766e-05 9.911241e-08
-1.195536e-05 2.732560e-05 9.946077e-08
-1.790326e-05 -2.432104e-05 -4.898587e-23
7.490138e-06 2.886932e-05 9.709747e-08
-4.833156e-06 2.943229e-05 9.946077e-08
-7.247976e-06 2.893106e-05 9.709747e-08
-3.359250e-06 2.963651e-05 9.911241e-08
-2.302001e-05 -1.896571e-05 9.946077e-08
1.249551e-07 2.982489e-05 9.709747e-08
-2.921968e-05 5.979102e-06 9.709747e-08
-2.715294e-05 1.233926e-05 9.709747e-08
-2.976327e-05 -1.937778e-06 9.911241e-08
-2.804323e-05 -1.015464e-05 9.709747e-08
-1.780191e-05 -2.439533e-05 -4.898587e-23
-1.639610e-05 -2.491536e-05 9.911241e-08
-1.316750e-05 -2.676259e-05 9.946077e-08
-2.699680e-05 -1.267724e-05 9.709747e-08
2.242673e-05 2.016484e-05 -1.210249e-07
2.357251e-05 -1.861710e-05 1.964271e-07
1.437655e-05 2.612273e-05 8.177574e-08
1.437655e-05 -2.612273e-05 8.177574e-08
2.525192e-05 1.591669e-05 1.318693e-07
2.968390e-06 -2.966393e-05 6.846439e-08
2.965353e-05 5.536523e-06 -1.116132e-07
-1.770024e-05 -2.446919e-05 -4.898587e-23
2.806359e-05 1.019868e-05 1.421457e-07
2.982521e-05 -3.116360e-06 -1.996140e-07
2.982521e-05 3.116360e-06 -1.996140e-07
2.402648e-05 -1.763349e-05 -3.382397e-08
1.902962e-05 2.319995e-05 1.999078e-07
1.902962e-05 -2.319995e-05 1.999078e-07
9.794020e-06 -2.836268e-05 -1.999078e-07
2.761480e-05 1.173827e-05 1.999078e-07
2.761480e-05 -1.173827e-05 1.999078e-07
1.724024e-05 -2.455888e-05 1.999078e-07
-1.759827e-05 -2.454263e-05 -4.898587e-23
1.724024e-05 2.455888e-05 1.999078e-07
1.792939e-05 2.406037e-05 1.999078e-07
1.792939e-05 -2.406037e-05 1.999078e-07
2.727071e-05 -1.251672e-05 1.999100e-07
2.727071e-05 1.251672e-05 1.999100e-07
4.279456e-06 -2.968024e-05 1.995879e-07
2.615679e-05 -1.452661e-05 1.832595e-07
8.985017e-06 -2.862907e-05 -1.999130e-07
1.968031e-05 -2.265037e-05 1.999130e-07
1.968031e-05 2.265037e-05 1.999130e-07
-1.749600e-05 -2.461565e-05 -4.898587e-23
-2.479131e-06 -2.972282e-05 9.866885e-08
-2.886827e-05 7.464026e-06 8.200930e-08
-1.179013e-05 -2.738761e-05 8.200930e-08
-1.994202e-05 -2.217900e-05 9.866885e-08
-1.732976e-05 2.427492e-05 9.866885e-08
-7.369492e-06 -2.890126e-05 9.866885e-08
-1.339517e-05 -2.684903e-05 1.999371e-07
-1.470850e-05 -2.615028e-05 1.999782e-07
-2.935060e-05 -6.232436e-06 1.999371e-07
1.106829e-06 -2.998253e-05 1.999782e-07
-1.739342e-05 -2.468823e-05 -4.898587e-23
-7.284741e-06 -2.910550e-05 1.999729e-07
-2.429985e-05 -1.759813e-05 1.999782e-07
-2.648002e-05 1.410623e-05 1.999782e-07
-2.982255e-05 -3.285246e-06 1.999782e-07
-2.315485e-05 1.907957e-05 1.999782e-07
-2.151176e-05 2.091462e-05 1.999782e-07
-2.942064e-05 5.884175e-06 1.999729e-07
-2.242426e-05 -1.993313e-05 1.999782e-07
-4.698079e-06 2.963493e-05 1.999371e-07
-1.187454e-05 2.755533e-05 1.999371e-07
-1.729054e-05 -2.476040e-05 -4.898587e-23
-1.754049e-05 2.434191e-05 1.999729e-07
4.470138e-06 2.966843e-05 1.999729e-07
-7.420485e-06 2.907119e-05 1.999729e-07
7.405787e-06 2.907494e-05 1.999729e-07
-2.494170e-05 1.667599e-05 1.999782e-07
-1.203839e-05 -2.748414e-05 1.999371e-07
-5.968924e-06 2.940322e-05 1.999782e-07
-1.304873e-05 2.701681e-05 1.999782e-07
-2.514792e-05 -1.636335e-05 1.999782e-07
-2.339121e-05 -1.878905e-05 1.999782e-07
-1.718736e-05 -2.483213e-05 -4.898587e-23
-2.905569e-05 -7.480953e-06 1.999729e-07
-2.909667e-05 7.326973e-06 1.999371e-07
-9.219358e-06 -2.855173e-05 1.999729e-07
2.761969e-06 -2.984293e-05 -1.978081e-07
5.429025e-06 -2.966630e-05 1.213557e-07
2.705919e-05 -1.294875e-05 1.999882e-07
2.705919e-05 1.294875e-05 1.999882e-07
2.960856e-05 -5.792549e-06 1.055861e-07
1.568371e-05 2.576208e-05 1.191567e-07
1.568371e-05 -2.576208e-05 1.191567e-07
2.858295e-05 9.749605e-06 -4.898587e-23
-1.708389e-05 -2.490343e-05 -4.898587e-23
1.127996e-05 -2.770802e-05 -1.815410e-07
-2.933451e-05 5.270204e-06 4.060449e-08
-9.713249e-06 -2.817696e-05 4.060449e-08
-2.956099e-05 3.799496e-06 4.060449e-08
-1.683138e-05 -2.459660e-05 4.060449e-08
-6.129423e-06 -2.916708e-05 4.060449e-08
-2.945693e-05 4.536264e-06 4.060449e-08
-2.871138e-05 -7.996543e-06 4.060449e-08
-2.727497e-05 -1.201517e-05 4.060449e-08
-2.045468e-05 -2.167705e-05 4.060449e-08
-1.698011e-05 -2.497430e-05 -4.898587e-23
-7.750287e-06 2.877883e-05 4.060449e-08
-2.821948e-05 9.589014e-06 4.060449e-08
-2.797131e-05 1.029049e-05 4.060449e-08
-5.209162e-06 -2.934541e-05 4.060449e-08
6.976263e-06 2.897620e-05 4.060449e-08
-1.336378e-06 2.977419e-05 4.060449e-08
-1.789546e-05 2.383361e-05 4.060449e-08
-2.770570e-05 1.098555e-05 4.060449e-08
6.250736e-06 2.914132e-05 4.060449e-08
-9.360765e-06 2.829601e-05 4.060449e-08
-1.687605e-05 -2.504474e-05 -4.898587e-23
-8.466298e-06 2.857639e-05 4.060449e-08
-2.777108e-05 -1.081921e-05 4.060449e-08
-2.018249e-05 2.193069e-05 4.060449e-08
-1.948285e-05 2.255453e-05 4.060449e-08
1.638746e-06 2.975908e-05 4.060449e-08
-5.926872e-07 2.979827e-05 4.060449e-08
3.860990e-06 2.955302e-05 4.060449e-08
-2.962615e-05 3.252592e-06 4.060449e-08
-2.969812e-05 2.512000e-06 4.060449e-08
-2.820797e-06 2.967038e-05 4.060449e-08
-1.677169e-05 -2.511474e-05 -4.898587e-23
-2.978648e-05 1.026581e-06 4.060449e-08
9.124961e-06 2.837293e-05 4.060449e-08
-2.742283e-05 1.167376e-05 4.060449e-08
-1.006422e-05 2.805352e-05 4.060449e-08
9.830411e-06 2.813630e-05 4.060449e-08
-2.098944e-05 -2.115967e-05 4.060449e-08
-2.979697e-05 -6.546819e-07 4.060449e-08
-2.756641e-05 -1.133054e-05 4.060449e-08
-2.079235e-06 2.973155e-05 4.060449e-08
-2.629942e-05 -1.402244e-05 4.060449e-08
-1.666704e-05 -2.518432e-05 -4.898587e-23
-2.594117e-05 -1.467460e-05 4.060449e-08
-3.929699e-06 -2.954396e-05 4.060449e-08
-2.980403e-05 8.936503e-08 4.060449e-08
-2.975157e-05 1.769842e-06 4.060449e-08
-4.474968e-06 -2.946630e-05 4.060449e-08
-3.190947e-06 -2.963286e-05 4.060449e-08
-2.977134e-05 -1.398321e-06 4.060449e-08
-6.667353e-06 -2.904883e-05 4.060449e-08
1.052973e-05 2.788213e-05 4.060449e-08
-2.849569e-05 -9.288761e-06 -1.979463e-07
-1.656210e-05 -2.525345e-05 -4.898587e-23
-7.766715e-07 -2.996135e-05 -1.979463e-07
-1.567101e-05 -2.554809e-05 -1.979463e-07
-1.404693e-05 2.647583e-05 -1.979463e-07
-2.687130e-05 1.327474e-05 -1.979463e-07
-2.226434e-05 2.006451e-05 -1.979463e-07
-2.580263e-05 1.524827e-05 -1.979463e-07
-1.873000e-05 -2.339813e-05 -1.979463e-07
2.119793e-06 -2.989678e-05 -1.980077e-07
-1.821796e-05 -2.379952e-05 -1.980077e-07
-2.546593e-05 1.580499e-05 -1.980077e-07
-1.645688e-05 -2.532215e-05 -4.898587e-23
-1.261350e-07 -2.997157e-05 -1.980077e-07
-1.814064e-05 -2.385813e-05 -1.979649e-07
-2.541438e-05 1.588718e-05 -1.979649e-07
-2.911597e-08 -2.997153e-05 -1.979649e-07
2.022986e-06 -2.990319e-05 -1.979649e-07
2.912616e-05 -7.853047e-06 1.111527e-07
-1.575439e-05 -2.549658e-05 -1.979240e-07
-2.846502e-05 -9.381848e-06 -1.979240e-07
-8.746409e-07 -2.995849e-05 -1.979240e-07
-1.413336e-05 2.642961e-05 -1.979240e-07
-1.635137e-05 -2.539040e-05 -4.898587e-23
-2.691443e-05 1.318673e-05 -1.979240e-07
-2.585222e-05 1.516374e-05 -1.979240e-07
-2.232972e-05 1.999150e-05 -1.979240e-07
-1.880632e-05 -2.333664e-05 -1.979240e-07
2.867150e-06 -2.983119e-05 -1.975290e-07
2.976451e-05 -4.881668e-06 1.170406e-07
1.175320e-05 2.778167e-05 1.122585e-07
1.882688e-05 -2.311758e-05 -7.347775e-08
1.882688e-05 2.311758e-05 -7.347775e-08
2.747874e-05 1.156688e-05 -7.347714e-08
-1.624558e-05 -2.545822e-05 -4.898587e-23
2.747874e-05 -1.156688e-05 -7.347714e-08
1.704423e-05 -2.446156e-05 -7.347620e-08
1.704423e-05 2.446156e-05 -7.347620e-08
-2.921307e-05 -5.992425e-06 -8.989246e-08
-1.374609e-05 -2.685082e-05 -1.131672e-07
2.691119e-05 1.330554e-05 -1.989138e-07
2.691119e-05 -1.330554e-05 -1.989138e-07
3.142318e-06 -2.968417e-05 1.323225e-07
1.383070e-05 -2.658784e-05 1.977392e-07
1.383070e-05 2.658784e-05 1.977392e-07
-1.613951e-05 -2.552560e-05 -4.898587e-23
2.873241e-05 -8.593134e-06 1.997442e-07
2.003849e-05 -2.232646e-05 1.999999e-07
2.003849e-05 2.232646e-05 1.999999e-07
8.521480e-06 -2.876450e-05 -1.999999e-07
2.521517e-05 -1.655782e-05 1.120770e-07
2.888929e-05 -7.817636e-06 1.867262e-07
5.607145e-06 -2.964363e-05 -1.065185e-07
1.182155e-05 2.735509e-05 -8.295025e-09
1.266986e-05 -2.723436e-05 1.965023e-07
2.935332e-05 5.305091e-06 1.035141e-07
2.854214e-05 9.868456e-06 -4.898587e-23
-1.603315e-05 -2.559254e-05 -4.898587e-23
1.152695e-05 -2.762361e-05 1.881441e-07
1.194339e-05 2.769908e-05 -1.140754e-07
-1.587703e-05 2.552148e-05 -1.916921e-07
2.823512e-05 -9.586236e-06 8.308915e-08
1.946716e-05 -2.256601e-05 -3.214668e-08
1.946716e-05 2.256601e-05 -3.214668e-08
9.024814e-06 -2.840330e-05 3.214667e-08
2.705313e-05 -1.253073e-05 -7.422087e-08
2.705313e-05 1.253073e-05 -7.422087e-08
1.588562e-05 -2.564208e-05 -1.144204e-07
-1.592652e-05 -2.565903e-05 -4.898587e-23
1.683454e-05 -2.502933e-05 -1.144204e-07
1.683454e-05 2.502933e-05 -1.144204e-07
2.845834e-05 -9.999599e-06 -1.144204e-07
1.759829e-05 2.449835e-05 -1.144204e-07
1.759829e-05 -2.449835e-05 -1.144204e-07
2.799028e-05 -1.124336e-05 -1.144207e-07
2.799028e-05 1.124336e-05 -1.144207e-07
1.041298e-05 -2.830970e-05 1.144209e-07
[...]
POINT_DATA 19960
VECTORS 10.000GHz_fone_imag double
1.189360e+11 -3.979523e+11 -2.678472e+08
-3.353006e+11 2.420231e+11 -1.417162e+09
-1.584425e+11 -3.891295e+11 4.963419e+08
-3.473790e+11 -2.360029e+11 -5.011130e+08
3.473820e+11 -2.359981e+11 3.038693e+08
-2.383879e+11 -3.433240e+11 -8.484109e+09
-3.596213e+11 -2.064713e+11 2.164260e+09
3.596328e+11 -2.064748e+11 -2.167577e+09
-2.361112e+11 3.473587e+11 -7.290834e+09
-2.851609e+11 3.081125e+11 -7.288509e+09
-2.179590e+11 3.580399e+11 -1.264003e+10
-9.127942e+10 4.079285e+11 -1.375311e+10
-3.331939e+11 2.504013e+11 1.835566e+09
3.019846e+11 2.932621e+11 -1.024050e+10
-3.722776e+11 1.961007e+11 1.095560e+10
-2.489087e+11 3.387560e+11 -1.024668e+10
3.249878e+11 2.659433e+11 9.414262e+09
2.057097e+11 3.670377e+11 7.364090e+09
4.177617e+11 -4.332532e+10 -9.511571e+09
2.742807e+11 3.189078e+11 7.391944e+09
4.123337e+11 -7.479060e+10 -1.263384e+10
3.924036e+11 1.524990e+11 -1.039206e+10
3.854343e+11 1.683015e+11 -5.879613e+09
-3.364352e+11 2.502867e+11 2.623993e+09
4.049961e+11 -1.080143e+11 1.034914e+10
4.151826e+11 6.785953e+10 -5.887341e+09
4.084420e+11 9.924800e+10 1.011586e+10
4.179342e+11 5.081970e+10 -1.039428e+10
-2.655749e+11 3.260092e+11 -1.027120e+10
4.189093e+11 -4.744693e+09 1.173329e+10
8.628900e+10 4.110685e+11 1.279908e+10
1.766795e+11 3.808756e+11 1.055397e+10
-2.978225e+10 4.190974e+11 -1.026077e+10
-1.391596e+11 3.954042e+11 1.128961e+10
-3.279689e+11 2.453944e+11 -1.527002e+09
-3.523155e+11 2.288472e+11 -1.023865e+10
-3.777164e+11 1.878351e+11 -8.161837e+09
-1.814136e+11 3.786315e+11 -1.054533e+10
2.873010e+11 -3.099181e+11 -9.139820e+09
-2.598793e+11 -3.292369e+11 1.623890e+09
3.680843e+11 -2.011415e+11 -2.042357e+09
-3.680797e+11 -2.011475e+11 2.054798e+09
2.232423e+11 -3.518193e+11 6.219747e+08
-4.144393e+11 -4.101341e+10 -1.347064e+09
7.959299e+10 -4.180213e+11 3.142215e+09
-3.469419e+11 2.335704e+11 -2.783406e+09
1.374647e+11 -3.986033e+11 6.241127e+09
-4.060108e+10 -4.170511e+11 1.989117e+09
4.061713e+10 -4.170325e+11 -1.989893e+09
-2.500828e+11 -3.373387e+11 -1.279309e+09
3.230665e+11 -2.680342e+11 4.890534e+09
-3.230701e+11 -2.680343e+11 -4.890130e+09
-3.965381e+11 -1.354903e+11 -3.539609e+09
1.664924e+11 -3.853058e+11 -4.885275e+09
-1.663001e+11 -3.853476e+11 4.893681e+09
-3.421723e+11 -2.431468e+11 -4.898231e+09
-3.412522e+11 2.486158e+11 -7.673220e+08
3.421700e+11 -2.431624e+11 4.897351e+09
3.354980e+11 -2.503144e+11 5.028339e+09
-3.355032e+11 -2.503193e+11 -5.028669e+09
-1.794693e+11 -3.824574e+11 5.572497e+09
1.795026e+11 -3.824484e+11 -5.577153e+09
-4.142872e+11 -5.907034e+10 -7.772486e+08
-2.045562e+11 -3.659380e+11 4.671042e+09
-4.042087e+11 -1.235593e+11 -6.036549e+09
-3.170695e+11 -2.796015e+11 -5.454582e+09
3.170691e+11 -2.795954e+11 5.454000e+09
-3.413571e+11 2.418165e+11 3.495463e+09
-4.211823e+11 3.572382e+10 -8.775380e+09
1.101424e+11 4.054354e+11 2.509210e+09
-3.898613e+11 1.620398e+11 -2.707908e+09
-3.139309e+11 2.830578e+11 -8.772059e+09
3.442630e+11 2.469419e+11 8.754992e+09
-4.107424e+11 1.037001e+11 8.783585e+09
-3.759133e+11 1.875571e+11 9.961176e+09
-3.780805e+11 2.053094e+11 -2.843421e+08
-8.755442e+10 4.110086e+11 1.033184e+10
-4.290978e+11 -2.193683e+10 1.605369e+09
-3.344620e+11 2.458256e+11 8.227219e+09
-4.071594e+11 1.022265e+11 -1.006678e+10
-2.425051e+11 3.444852e+11 -6.661535e+08
1.962498e+11 3.844463e+11 -1.060095e+09
-5.020812e+10 4.190082e+11 -1.407883e+09
2.648071e+11 3.289900e+11 -1.495535e+09
2.973914e+11 2.991417e+11 -1.117988e+09
8.141448e+10 4.123524e+11 -1.041051e+10
-2.758669e+11 3.159227e+11 7.887672e+08
4.145215e+11 6.530837e+10 1.032252e+10
3.854968e+11 1.656787e+11 1.031142e+10
-3.463765e+11 2.365956e+11 2.121449e+09
3.403445e+11 2.453081e+11 -1.011241e+10
4.167043e+11 -6.774616e+10 -1.757709e+09
4.106885e+11 1.065599e+11 -1.156972e+10
4.094316e+11 -1.032531e+11 -9.896905e+09
2.338699e+11 3.610489e+11 1.299152e+09
-3.859867e+11 1.699144e+11 9.968978e+09
4.141499e+11 7.910596e+10 -1.118471e+09
3.801211e+11 1.800535e+11 1.221886e+08
-2.257035e+11 3.535411e+11 7.866108e+08
-2.593954e+11 3.319129e+11 -6.685095e+08
-3.460252e+11 2.452250e+11 -6.620255e+09
-1.010510e+11 4.048967e+11 9.936118e+07
1.036533e+11 4.105887e+11 -9.890786e+09
-3.981937e+11 1.254628e+11 -1.507676e+08
-4.187485e+11 -4.147774e+10 2.757327e+09
-4.075946e+11 -8.170960e+10 6.897654e+09
-1.809480e+11 -3.723187e+11 5.079933e+09
1.810019e+11 -3.722792e+11 -5.082918e+09
-8.141492e+10 -4.064482e+11 1.717267e+09
3.547438e+11 -2.129328e+11 1.697373e+09
-3.577554e+11 -2.123794e+11 1.225349e+08
1.367005e+11 -3.905756e+11 1.526571e+09
-3.512612e+11 2.287928e+11 -6.722148e+08
-3.908136e+11 -1.557093e+11 -1.983868e+09
6.447015e+10 4.123326e+11 -5.764394e+09
-3.938993e+11 1.452617e+11 3.843541e+09
4.375064e+10 4.163969e+11 -3.718766e+09
-3.525472e+11 2.309045e+11 -7.197919e+09
-4.109185e+11 9.473124e+10 4.592099e+09
5.412799e+10 4.164721e+11 -5.241778e+09
-1.212381e+11 4.018855e+11 -3.829193e+09
-1.604142e+11 3.886771e+11 6.488567e+09
-2.976611e+11 2.941199e+11 6.319532e+09
-3.448558e+11 2.406076e+11 -3.434350e+09
4.064471e+11 9.946110e+10 6.133518e+09
1.270196e+11 4.018442e+11 -2.873139e+09
1.351495e+11 3.951933e+11 -5.348361e+09
-4.138267e+11 6.460092e+10 -5.856653e+09
4.048751e+11 -1.068259e+11 6.614796e+09
4.159996e+11 2.779779e+10 -6.003626e+09
3.301749e+11 2.591871e+11 -3.454634e+09
1.484106e+11 3.975763e+11 -6.620649e+09
4.071920e+11 -9.709787e+10 7.036901e+09
3.959420e+11 1.413211e+11 -6.681794e+09
-3.472933e+11 2.336952e+11 -2.341988e+09
4.038203e+11 1.102342e+11 5.596796e+09
-1.630154e+11 3.924634e+11 -2.852715e+09
3.036781e+11 2.931030e+11 -6.558709e+09
3.231819e+11 2.663595e+11 6.666495e+09
4.214740e+11 -1.421712e+10 -3.426514e+09
4.187372e+11 1.800703e+10 -6.199535e+09
4.144220e+11 -4.477355e+10 -7.784627e+09
5.477309e+10 4.148641e+11 4.968157e+09
4.400665e+10 4.145977e+11 6.463173e+09
4.218830e+11 4.888380e+10 -6.610552e+09
-3.508756e+11 2.320285e+11 2.379751e+08
2.282270e+10 4.204635e+11 6.694098e+09
3.963894e+11 -1.375402e+11 8.034630e+09
1.555254e+11 3.906038e+11 -6.464453e+09
3.967154e+11 1.515992e+11 -6.628352e+09
3.909398e+11 -1.467684e+11 5.346407e+09
-2.915788e+11 3.019604e+11 3.529097e+09
-1.763095e+10 4.218870e+11 -5.924810e+09
-1.506328e+11 3.906124e+11 5.049644e+09
4.181621e+11 3.912685e+10 -5.392255e+09
-1.894772e+11 3.745809e+11 3.413864e+09
-3.511454e+11 2.302699e+11 5.257373e+09
-1.975991e+11 3.688939e+11 7.009100e+09
-4.157379e+11 6.338292e+10 5.587444e+09
-7.896192e+09 4.181304e+11 -5.045605e+09
3.447352e+10 4.172378e+11 7.523076e+09
-4.141612e+11 5.332155e+10 -6.408003e+09
-4.148725e+11 5.436074e+10 6.319066e+09
-2.839458e+10 4.196671e+11 -6.634294e+09
-4.099687e+11 8.444141e+10 -6.127757e+09
3.899327e+11 -1.569581e+11 4.532655e+09
-1.310379e+11 4.009040e+11 2.259816e+09
-3.508267e+11 2.299961e+11 -6.694807e+09
-4.228952e+11 7.769629e+09 -2.402702e+09
-3.605475e+11 2.189981e+11 -3.268790e+09
3.720371e+11 1.977540e+11 2.178585e+09
1.886980e+11 3.777309e+11 2.880702e+09
2.821996e+11 3.136201e+11 2.273194e+09
2.137637e+11 3.625943e+11 2.366875e+09
-3.307783e+11 2.629571e+11 -2.168198e+09
-4.215805e+11 -3.296282e+10 7.573511e+08
-3.358557e+11 2.608017e+11 -1.072964e+09
2.204026e+11 3.607694e+11 7.491513e+08
-3.522902e+11 2.280146e+11 3.111271e+09
-4.252849e+11 4.789707e+09 -1.059946e+09
-3.370777e+11 2.547622e+11 -3.728715e+08
2.245574e+11 3.574138e+11 1.925917e+08
-4.226321e+11 -8.219864e+08 -3.805188e+08
-4.212600e+11 -2.763722e+10 1.661380e+08
-1.098544e+11 -4.059935e+11 4.835309e+08
-3.595817e+11 2.233797e+11 8.773380e+08
-1.359644e+11 3.992315e+11 -1.167891e+09
-4.231404e+11 1.460188e+10 2.043662e+08
3.689982e+11 2.018078e+11 -3.161098e+08
-3.527274e+11 2.280375e+11 -1.243019e+09
1.845265e+11 3.811875e+11 -9.676425e+08
2.094328e+11 3.655083e+11 -1.161029e+09
2.783866e+11 3.170316e+11 -1.151234e+09
-3.282618e+11 2.658346e+11 4.155404e+08
-4.199076e+11 -4.038127e+10 2.862167e+09
-7.326551e+10 -4.126373e+11 -3.729835e+09
3.844202e+11 -1.650764e+11 -2.331141e+08
-3.285926e+11 -2.728360e+11 -4.180665e+09
3.285826e+11 -2.728286e+11 4.178072e+09
1.699030e+11 -3.927593e+11 -4.302803e+09
-3.534155e+11 2.223997e+11 -2.979987e+09
-1.694137e+11 -3.920683e+11 4.165353e+09
-3.479397e+11 -2.473608e+11 -4.193450e+09
3.478963e+11 -2.473276e+11 4.159307e+09
-8.500388e+10 4.073248e+11 6.646704e+09
-3.688582e+11 2.005072e+11 1.776247e+09
1.831809e+11 -3.714561e+11 2.225804e+09
-1.831685e+11 -3.714964e+11 -2.227516e+09
-4.119946e+11 -3.211414e+10 1.140967e+10
-3.730716e+11 -1.908795e+11 -4.594931e+08
3.729708e+11 -1.908805e+11 4.700148e+08
-3.519175e+11 2.243425e+11 -2.672376e+08
-1.178763e+11 -3.982758e+11 9.930811e+09
-3.090592e+11 -2.791670e+11 -4.663574e+09
3.090687e+11 -2.791857e+11 4.662849e+09
-3.997403e+11 -1.170116e+11 -4.664650e+09
-2.310938e+11 -3.468212e+11 -1.485232e+09
-1.092665e+11 -4.072647e+11 3.704728e+08
-4.119463e+11 -7.462521e+10 2.545708e+09
3.852617e+11 -1.665204e+11 2.370102e+09
-3.763834e+11 -1.767048e+11 -7.359562e+08
6.700075e+10 -4.195334e+11 1.159542e+09
1.349665e+11 -3.914068e+11 2.230516e+09
-3.529550e+11 2.208401e+11 3.694448e+09
-3.869330e+11 -1.594291e+11 4.300726e+09
3.829383e+11 -1.667087e+11 -6.337745e+08
3.562620e+11 2.222557e+11 -4.390328e+09
-1.296898e+11 -3.987505e+11 -4.553645e+09
-3.171506e+11 -2.771153e+11 3.450770e+09
3.171495e+11 -2.771122e+11 -3.451284e+09
-4.021904e+11 -1.250152e+11 3.524575e+09
-1.837764e+11 -3.828971e+11 -3.629677e+09
1.837600e+11 -3.828663e+11 3.640086e+09
-3.566525e+11 -2.135071e+11 2.823539e+09
-3.534536e+11 2.211593e+11 -5.721338e+09
-3.481646e+11 -2.255206e+11 1.089620e+09
3.480568e+11 -2.251383e+11 -1.017752e+09
-1.445803e+11 -3.879481e+11 1.047247e+09
3.310920e+11 -2.500768e+11 -9.416173e+06
-3.310897e+11 -2.500723e+11 5.333975e+06
-1.479322e+11 -3.875450e+11 -1.078914e+09
1.475406e+11 -3.876035e+11 8.710004e+08
-3.872595e+11 -1.515817e+11 2.829337e+09
3.303405e+11 -2.509741e+11 -1.075308e+09
-3.303454e+11 -2.509817e+11 1.078246e+09
-3.624832e+11 2.148341e+11 2.270830e+09
-1.755565e+11 -3.757571e+11 -2.040912e+08
1.759367e+11 -3.763050e+11 2.002026e+08
-3.961943e+11 -1.213756e+11 3.177778e+08
-3.112654e+11 -2.741265e+11 1.644616e+08
3.112703e+11 -2.741303e+11 -1.639802e+08
3.630471e+11 -2.150665e+11 3.656445e+09
9.781748e+09 -4.152163e+11 -7.623241e+09
-9.793357e+09 -4.148679e+11 7.677771e+09
-1.816185e+11 -3.781092e+11 -4.653326e+09
1.815879e+11 -3.780351e+11 4.662049e+09
-3.537352e+11 2.254949e+11 2.044702e+09
1.352978e+11 -3.908812e+11 -4.009941e+09
-2.461961e+11 -3.350236e+11 2.445394e+09
-7.414514e+10 -4.240683e+11 -4.247161e+09
2.682234e+11 -3.214645e+11 -1.120385e+09
2.211631e+11 -3.555723e+11 -2.970827e+09
3.318939e+11 -2.637303e+11 -1.729181e+09
-3.318948e+11 -2.637310e+11 1.729610e+09
-1.532428e+11 -3.851616e+11 -3.753268e+08
1.540402e+11 -3.907458e+11 2.788053e+09
-3.475112e+11 -2.358720e+11 -3.041278e+09
-3.594497e+11 2.123799e+11 -1.185615e+09
-3.518785e+11 -2.310090e+11 8.429702e+08
3.561897e+11 -2.252946e+11 8.739092e+08
3.474995e+11 -2.358647e+11 3.037651e+09
1.585150e+11 -3.907834e+11 -3.014584e+09
-1.582511e+11 -3.891987e+11 3.059986e+09
3.289733e+11 -2.612806e+11 3.061463e+09
-3.289901e+11 -2.612913e+11 -3.061654e+09
-3.934272e+11 -1.443603e+11 1.897990e+08
3.942479e+11 -1.542356e+11 -3.938986e+09
3.545650e+11 2.317189e+11 2.357405e+08
-3.575103e+11 2.190984e+11 -1.166642e+09
-3.825218e+11 -1.744297e+11 3.721653e+08
2.516357e+10 -4.184871e+11 2.272072e+09
-2.517018e+10 -4.184946e+11 -2.269144e+09
-3.824466e+11 -1.664714e+11 3.676695e+09
4.014777e+11 -1.513386e+11 -6.176235e+09
-4.057117e+11 -1.172113e+11 -1.820743e+09
-3.123986e+11 -2.842508e+11 -1.858778e+09
3.123978e+11 -2.842517e+11 1.858771e+09
-2.892410e+11 -3.036899e+11 2.972212e+08
2.169027e+11 -3.578547e+11 2.475054e+08
-3.662863e+11 2.141361e+11 7.246473e+09
-1.211283e+11 -4.047375e+11 -1.473186e+09
1.396904e+11 -3.981324e+11 4.600313e+08
-3.756066e+11 -1.863246e+11 -1.527906e+08
-7.219423e+10 -4.098642e+11 2.739863e+09
-1.088604e+11 -4.027214e+11 1.337569e+09
-3.313718e+11 -2.604145e+11 -1.183148e+09
-3.949063e+11 -1.447364e+11 3.563706e+09
3.313782e+11 -2.604085e+11 1.183254e+09
1.570344e+11 -3.900199e+11 -1.245009e+09
-1.567249e+11 -3.912693e+11 1.187349e+09
-3.543670e+11 2.140207e+11 -1.190541e+09
-3.499962e+11 -2.348622e+11 -1.187219e+09
3.488884e+11 -2.351135e+11 1.203677e+09
-3.583291e+11 -2.209505e+11 1.332010e+09
-1.391048e+11 -3.969858e+11 -1.340663e+09
-3.411380e+11 -2.464027e+11 -1.447253e+09
3.411439e+11 -2.464098e+11 1.446382e+09
1.703321e+11 -3.847144e+11 -1.570826e+09
-1.700196e+11 -3.849519e+11 1.441009e+09
-3.216324e+11 -2.713503e+11 -1.449598e+09
3.216346e+11 -2.713528e+11 1.449451e+09
-3.682950e+11 1.978528e+11 -2.920595e+09
-3.984661e+11 -1.317329e+11 -1.332140e+09
-4.050935e+11 -9.228139e+10 3.670785e+08
-3.949264e+11 -1.535301e+11 4.988087e+09
-6.319196e+10 -4.151546e+11 -4.106899e+09
2.361708e+11 3.432159e+11 2.008062e+09
3.567444e+11 -2.212095e+11 -2.551663e+09
-8.027301e+10 4.040224e+11 -1.256315e+09
2.344058e+11 3.415568e+11 2.766823e+09
2.914785e+11 -2.992900e+11 -2.801803e+09
-2.906739e+11 -2.992298e+11 1.650815e+09
-3.640430e+11 2.130856e+11 -1.108115e+09
-2.940273e+11 -2.924368e+11 -1.197353e+09
-6.029853e+09 -4.203745e+11 2.547426e+08
6.013240e+09 -4.218217e+11 3.333522e+08
3.545290e+11 -2.255875e+11 -2.014378e+09
-3.794167e+11 -1.709802e+11 -7.490508e+09
3.909639e+11 -1.516861e+11 -3.306015e+09
-4.128377e+11 -4.660392e+10 -1.382507e+09
-3.779699e+11 -1.866480e+11 6.804737e+09
3.697642e+11 -1.854267e+11 -6.684265e+09
2.543814e+11 3.319928e+11 -5.936057e+09
1.364502e+11 -3.887680e+11 -5.695665e+09
-3.615358e+11 2.065936e+11 1.953615e+09
-4.040600e+11 1.166357e+11 -3.946451e+09
3.634579e+11 2.066491e+11 -5.913461e+09
-3.910667e+11 1.547423e+11 3.997331e+09
-3.201798e+11 2.731096e+11 6.610099e+09
-1.781070e+11 -3.828873e+11 -2.703611e+09
1.781162e+11 -3.828972e+11 2.713187e+09
-2.237254e+11 -3.562611e+11 -3.423417e+09
1.837088e+11 -3.750585e+11 -5.604850e+09
-1.837069e+11 -3.751025e+11 5.607108e+09
-7.233622e+10 -4.133670e+11 1.648176e+09
-3.654330e+11 2.117783e+11 6.529673e+09
2.843605e+11 -3.007080e+11 1.651549e+09
-1.373447e+11 -3.959705e+11 2.573048e+09
2.085668e+11 -3.619235e+11 4.440232e+09
-2.652077e+11 -3.252623e+11 8.511232e+09
-2.797635e+11 -3.073742e+11 3.710540e+09
2.584043e+11 -3.258652e+11 -3.372707e+09
2.638245e+11 -3.248679e+11 -4.088665e+09
-4.098747e+11 -9.790085e+10 8.659456e+09
-2.896847e+11 -3.002520e+11 2.104725e+09
-2.664870e+11 -3.184171e+11 1.064207e+09
-3.684188e+11 2.013656e+11 3.534913e+09
2.898036e+11 -2.983936e+11 1.047858e+09
2.406486e+11 -3.339760e+11 -2.033176e+09
2.477345e+09 -4.258155e+11 1.242241e+09
-2.626657e+09 -4.253624e+11 -1.271263e+09
-9.940699e+10 -4.045048e+11 -1.510641e+09
-3.976333e+11 -1.206320e+11 -4.279528e+08
-3.111201e+11 -2.755555e+11 -4.446897e+08
3.111217e+11 -2.755587e+11 4.448667e+08
2.432418e+11 -3.424386e+11 -3.091909e+08
-3.766626e+11 -1.974141e+11 -9.056305e+08
-3.628943e+11 2.076895e+11 -2.184484e+09
3.766941e+11 -1.974615e+11 9.159361e+08
3.579778e+11 2.275052e+11 9.614653e+07
-2.942704e+11 -3.041245e+11 2.361500e+09
2.937210e+11 -3.034100e+11 -2.288453e+09
-8.293087e+10 -4.070032e+11 1.787826e+09
3.513437e+11 2.298164e+11 4.980565e+09
-2.343562e+11 -3.443079e+11 -4.793250e+09
4.103878e+10 -4.126022e+11 1.185290e+09
-4.103050e+10 -4.125721e+11 -1.187806e+09
1.337032e+11 -4.013539e+11 -5.197043e+09
-3.679664e+11 1.937140e+11 3.085927e+09
-4.521135e+10 -4.185995e+11 6.157868e+09
4.525279e+10 -4.185837e+11 -6.163995e+09
3.836014e+11 -1.660923e+11 3.565388e+09
3.734858e+11 -1.809751e+11 -3.719739e+09
3.795757e+11 -1.619479e+11 3.646033e+08
3.874198e+11 -1.679637e+11 -5.774106e+09
-4.117165e+11 7.437793e+10 5.914720e+09
4.046475e+11 1.243224e+11 -7.116287e+09
3.117339e+11 2.818266e+11 6.658248e+09
2.865283e+09 4.199754e+11 6.114395e+09
-3.610956e+11 2.023896e+11 -2.408714e+09
9.095069e+10 4.096287e+11 3.610766e+09
-4.029543e+11 1.209102e+11 3.517629e+09
-2.556171e+11 3.294491e+11 -2.644505e+09
-2.388714e+11 3.416043e+11 -2.596683e+09
-2.860583e+11 3.029861e+11 -3.174998e+09
3.771283e+11 1.722783e+11 -2.933660e+09
2.604825e+11 3.299854e+11 3.499869e+09
-3.296052e+10 4.158004e+11 -3.196987e+09
3.248254e+11 2.609158e+11 3.149106e+09
4.196229e+11 -8.974470e+09 3.570128e+09
-3.667034e+11 1.895028e+11 -2.183471e+09
4.112589e+11 -6.907525e+10 -2.664784e+09
-2.718633e+11 3.170195e+11 -2.547225e+09
4.044059e+11 -1.122326e+11 3.584404e+09
4.077474e+11 7.376645e+10 -2.950013e+09
4.163890e+11 5.431168e+10 -3.763715e+09
3.900549e+11 1.555023e+11 -3.764587e+09
4.148517e+11 -3.920614e+10 -3.168634e+09
4.054665e+11 9.537802e+10 3.038409e+09
-2.214148e+11 3.538233e+11 -2.630148e+09
2.950464e+11 2.910119e+11 -2.889152e+09
-3.712022e+11 2.016593e+11 2.215495e+09
-3.664917e+11 1.946022e+11 1.008093e+09
-9.612755e+10 4.084631e+11 -3.599843e+09
1.219664e+11 4.026416e+11 4.648829e+09
-3.927009e+11 1.505089e+11 -3.435056e+09
-5.453026e+10 4.171334e+11 4.704439e+09
-3.794518e+11 1.791008e+11 -3.608918e+09
-1.847717e+11 3.767604e+11 -3.584443e+09
3.650337e+11 -2.114047e+11 6.182131e+09
-3.649007e+11 -2.114016e+11 -6.207967e+09
-1.015207e+11 -4.005424e+11 -2.177554e+09
-3.711749e+11 1.944041e+11 2.376772e+09
3.751159e+11 -1.935991e+11 -2.062625e+09
-3.792782e+11 -1.938387e+11 6.801693e+09
-3.052944e+11 -2.925494e+11 1.497253e+09
3.053048e+11 -2.925567e+11 -1.492573e+09
-4.076335e+11 -1.060999e+11 1.592121e+09
2.868644e+11 -3.126935e+11 1.626803e+09
1.064624e+11 4.013576e+11 -2.371872e+09
-3.835309e+11 1.615537e+11 7.411206e+08
-2.670613e+11 -3.313172e+11 -2.176422e+09
-8.831322e+10 -4.067156e+11 2.289055e+09
-3.658514e+11 1.974736e+11 -2.934398e+09
-3.519730e+11 -2.354822e+11 2.394346e+08
3.524503e+11 -2.356101e+11 -2.155932e+08
1.568787e+11 -3.937778e+11 2.187527e+08
-1.568901e+11 -3.933627e+11 -2.647584e+08
-3.332153e+11 -2.610435e+11 1.470253e+08
3.332247e+11 -2.610495e+11 -1.496469e+08
3.927676e+11 -1.524622e+11 1.805429e+09
-6.534577e+09 -4.242272e+11 -8.996758e+09
6.727516e+09 -4.248747e+11 9.175819e+09
-4.264134e+11 1.598366e+10 2.904715e+09
1.436515e+11 -3.918780e+11 9.577217e+08
-3.772012e+11 1.838960e+11 6.991566e+08
1.843374e+11 3.832591e+11 -1.963006e+09
-3.623336e+11 2.277469e+11 2.939707e+09
-3.286628e+11 2.706219e+11 3.558058e+09
8.712813e+10 -4.151975e+11 -5.088395e+09
9.153471e+10 -4.056114e+11 -6.809782e+09
2.346804e+11 -3.393737e+11 -1.724942e+09
4.134677e+10 -4.186264e+11 -6.406738e+08
-4.133475e+10 -4.186127e+11 6.444179e+08
3.772620e+11 -1.923750e+11 2.667582e+09
-3.773034e+11 -1.923443e+11 -2.583687e+09
-3.702234e+11 1.999568e+11 -7.177470e+07
-4.209625e+11 -2.980944e+10 7.937769e+09
-3.349939e+11 2.557483e+11 -7.182824e+09
2.226989e+11 3.585543e+11 8.054515e+09
-4.214965e+11 1.207089e+09 -7.208529e+09
8.187005e+10 -4.107999e+11 3.233590e+09
3.643430e+10 -4.184333e+11 3.382135e+09
-3.642268e+10 -4.184457e+11 -3.370050e+09
-4.066040e+11 -1.094330e+11 2.434197e+09
-4.014477e+11 -1.089680e+11 1.533409e+09
-3.072217e+11 -2.886298e+11 2.170239e+09
-3.783792e+11 1.813237e+11 -6.071912e+08
-3.033554e+11 -2.844204e+11 1.435235e+09
3.072047e+11 -2.886175e+11 -2.168388e+09
3.033473e+11 -2.844260e+11 -1.435879e+09
-4.148121e+11 -8.995645e+10 3.350081e+09
-2.436335e+11 -3.448824e+11 -3.245032e+09
4.582352e+10 -4.206470e+11 -4.119477e+09
-4.536316e+10 -4.199244e+11 4.396058e+09
3.796517e+11 -1.862386e+11 2.102109e+09
-3.810318e+11 -1.859543e+11 -8.314782e+08
-2.979979e+11 -2.871901e+11 1.200309e+09
-3.762851e+11 1.909445e+11 5.249829e+09
2.980012e+11 -2.871953e+11 -1.197498e+09
-4.023258e+11 -1.034229e+11 1.108913e+09
-3.846697e+11 1.651840e+11 7.626741e+09
1.068176e+11 4.097550e+11 -8.045034e+09
2.099545e+11 -3.569290e+11 -8.787967e+08
3.695956e+11 -1.998361e+11 3.098174e+09
-3.696059e+11 -1.998371e+11 -3.094758e+09
-3.691000e+11 -2.115673e+11 -1.458619e+09
3.690596e+11 -2.115419e+11 1.453951e+09
1.252252e+11 3.994197e+11 -2.305048e+09
-3.781466e+11 1.874420e+11 3.997678e+09