# vtk DataFile Version 2.0
Electric current density generated by TTH
ASCII
DATASET UNSTRUCTURED_GRID
POINTS 25701 double
4.320502e-05 1.137324e-05 -5.747840e-23
-4.451254e-05 -3.828566e-06 -5.747840e-23
-4.432398e-05 -5.138745e-06 -1.521579e-07
4.442823e-05 4.297143e-06 -1.330005e-07
-1.629743e-05 4.116589e-05 1.642061e-07
-2.156454e-05 3.866082e-05 -1.576348e-07
-3.037857e-05 3.219986e-05 1.576348e-07
-3.531146e-05 2.670841e-05 1.642293e-07
2.053470e-05 -3.942813e-05 2.343217e-07
3.383577e-05 -2.845137e-05 -1.328500e-08
2.685835e-05 3.511365e-05 -1.328500e-08
1.598750e-05 4.121577e-05 -1.328500e-08
-4.449966e-05 -3.975436e-06 -5.747840e-23
1.875624e-05 -4.003141e-05 4.397381e-09
2.710991e-05 -3.491941e-05 5.524435e-09
3.727937e-05 2.376048e-05 -5.524435e-09
-4.370219e-05 6.665765e-06 6.147263e-09
3.154871e-05 3.155320e-05 -1.534201e-07
4.116867e-05 1.673346e-05 -2.346575e-07
3.777309e-05 -2.374603e-05 -1.565447e-07
-4.707145e-06 -4.412831e-05 -2.259032e-07
1.098511e-05 -4.299759e-05 -2.259032e-07
3.346217e-05 2.921629e-05 2.337961e-07
-4.448630e-05 -4.122263e-06 -5.747840e-23
1.065089e-06 4.419528e-05 -1.636373e-08
-4.418808e-05 -6.250447e-06 -1.434213e-07
2.665602e-05 3.526712e-05 -6.212784e-09
2.436253e-05 3.688877e-05 -6.212784e-09
1.622389e-05 4.112298e-05 -6.212784e-09
3.399843e-05 -2.825634e-05 -6.212784e-09
1.406660e-05 4.190996e-05 -6.212784e-09
1.972184e-05 3.956467e-05 -6.212784e-09
3.248529e-05 -2.998366e-05 -6.212784e-09
4.129987e-05 1.577300e-05 -2.912040e-08
-4.447246e-05 -4.269045e-06 -5.747840e-23
1.801990e-06 4.436750e-05 2.315543e-07
-1.006980e-06 4.425613e-05 1.567744e-07
-2.842525e-05 -3.440001e-05 -1.476585e-07
-1.792612e-05 -4.086575e-05 -1.476585e-07
-3.275208e-05 -3.030935e-05 -1.476585e-07
1.255150e-05 -4.282079e-05 -1.503228e-07
-3.197568e-06 -4.450990e-05 -1.476585e-07
1.421870e-05 -4.229875e-05 -1.476585e-07
-3.950194e-05 -2.075469e-05 -1.503228e-07
-4.028603e-05 -1.919352e-05 -1.476585e-07
-4.445813e-05 -4.415780e-06 -5.747840e-23
-7.756938e-07 -4.461787e-05 -1.476585e-07
-2.032050e-05 -3.972950e-05 -1.476585e-07
2.086264e-05 3.911919e-05 2.085708e-07
3.163574e-05 3.090008e-05 8.261967e-08
1.600386e-05 -4.139292e-05 -2.260055e-07
3.640595e-05 -2.579767e-05 1.535823e-07
-1.725407e-05 4.088811e-05 2.261406e-07
-3.117423e-05 3.158610e-05 2.260569e-07
-1.312923e-05 4.239266e-05 2.260574e-07
-3.338199e-05 2.924352e-05 -2.261411e-07
-4.444331e-05 -4.562467e-06 -5.747840e-23
9.156846e-06 4.341225e-05 -2.224501e-07
1.215533e-05 4.267429e-05 -2.238278e-07
4.394062e-05 -7.749585e-06 1.545976e-07
2.032980e-05 3.926115e-05 -4.767059e-08
4.634705e-06 4.401226e-05 1.423184e-07
4.415528e-05 5.474668e-06 -2.290274e-07
4.456133e-05 2.215532e-06 -1.572822e-07
4.228465e-05 -1.379196e-05 2.320698e-07
4.207856e-05 1.357865e-05 -5.950896e-08
-4.381692e-05 5.921934e-06 -5.980860e-08
-4.442801e-05 -4.709104e-06 -5.747840e-23
-2.929288e-05 -3.338864e-05 -2.333206e-07
-2.439912e-05 -3.711546e-05 -2.333206e-07
-2.347878e-05 -3.770439e-05 -2.333206e-07
7.551761e-06 -4.377037e-05 -2.333206e-07
-1.077147e-05 -4.309118e-05 -2.333206e-07
-4.241943e-05 -1.317066e-05 -2.333206e-07
-2.963103e-06 -4.431822e-05 -2.333331e-07
-3.244992e-05 -3.032965e-05 -2.333331e-07
-4.019295e-05 -1.890534e-05 -2.333331e-07
-3.940526e-05 -2.046237e-05 -2.310959e-07
-4.441223e-05 -4.855691e-06 -5.747840e-23
-2.846245e-05 -3.409946e-05 -2.333331e-07
-1.804415e-05 -4.058686e-05 -2.333331e-07
1.268581e-05 -4.256706e-05 -2.333331e-07
-2.042177e-05 -3.944409e-05 -2.333331e-07
1.436108e-05 -4.203146e-05 -2.333331e-07
-9.921724e-07 -4.440608e-05 -2.333331e-07
4.361415e-05 -7.374305e-06 1.066782e-07
-2.831020e-05 3.395640e-05 -3.234959e-08
-2.749623e-05 3.461881e-05 -3.234960e-08
-3.621602e-05 2.606017e-05 1.558902e-07
-4.439597e-05 -5.002224e-06 -5.747840e-23
-1.815475e-05 4.075705e-05 1.558902e-07
4.420819e-05 2.609181e-06 1.743360e-07
-4.150609e-06 4.401406e-05 -2.894816e-08
-2.418789e-05 3.700532e-05 2.734692e-08
1.957114e-05 -4.010712e-05 1.440526e-07
-1.495212e-05 4.181547e-05 2.322145e-07
3.572830e-05 -2.603519e-05 -1.388617e-08
2.415554e-05 3.702503e-05 -1.388609e-08
4.445449e-05 -3.814465e-06 1.556453e-07
4.347612e-05 -9.395559e-06 2.316498e-07
-4.437922e-05 -5.148703e-06 -5.747840e-23
4.215087e-05 1.420544e-05 2.315736e-07
3.677433e-05 2.484653e-05 -2.266356e-07
2.626887e-05 -3.577217e-05 2.266356e-07
4.066219e-05 -1.778448e-05 2.266356e-07
2.411336e-05 -3.725940e-05 2.266822e-07
3.523446e-05 2.698581e-05 -2.266356e-07
-3.864935e-05 2.187265e-05 2.323527e-07
-3.712266e-05 2.437403e-05 -2.323527e-07
-4.386724e-05 -6.971009e-06 -2.333871e-07
-4.444135e-05 -3.803129e-06 1.701979e-07
4.316725e-05 1.151575e-05 -5.747840e-23
-4.436198e-05 -5.295126e-06 -5.747840e-23
1.815482e-05 -4.057110e-05 2.346056e-07
7.369463e-06 -4.401244e-05 -1.469849e-07
-1.103601e-05 -4.323899e-05 -1.469849e-07
-4.255218e-05 -1.344308e-05 -1.469849e-07
-2.469764e-05 -3.716760e-05 -1.469849e-07
-2.340106e-05 -3.799730e-05 -1.469849e-07
-2.959574e-05 -3.339904e-05 -1.469849e-07
3.869825e-05 -2.142181e-05 1.038403e-07
4.206336e-05 -1.360136e-05 9.439866e-09
4.462033e-05 1.658891e-07 1.524266e-07
-4.434427e-05 -5.441491e-06 -5.747840e-23
4.390752e-05 -5.177131e-06 4.389690e-08
3.449646e-05 2.777626e-05 1.778600e-07
2.313799e-05 -3.776454e-05 -1.778697e-07
-3.758734e-05 2.405521e-05 -1.461805e-07
-3.906914e-05 2.155205e-05 1.538970e-07
-4.183951e-05 1.550846e-05 -1.516928e-07
-1.456411e-05 4.217553e-05 1.538962e-07
-3.023130e-05 3.282078e-05 -1.506595e-07
-4.448213e-05 -3.523589e-06 1.514555e-07
-4.365020e-05 7.907664e-06 -2.200592e-07
-4.432607e-05 -5.587797e-06 -5.747840e-23
-3.025093e-06 4.451970e-05 -1.503945e-07
-4.391002e-05 -6.950937e-06 2.342209e-07
-4.056109e-05 1.859324e-05 1.536098e-07
-3.234753e-05 3.073351e-05 1.536098e-07
-4.365397e-05 -7.197236e-06 -1.245213e-07
-2.854628e-05 -3.380205e-05 -1.245067e-07
-4.014345e-05 -1.860033e-05 -1.245067e-07
-3.214827e-05 -3.039667e-05 -1.245067e-07
-1.820617e-05 -4.032374e-05 -1.245067e-07
7.772878e-06 -4.355515e-05 -1.245025e-07
-4.430739e-05 -5.734042e-06 -5.747840e-23
-4.232824e-05 -1.287588e-05 -1.245025e-07
-2.360257e-05 -3.742175e-05 -1.245025e-07
4.002542e-05 -1.876896e-05 -3.473440e-09
4.252502e-05 1.208020e-05 3.481465e-09
2.496806e-05 -3.648157e-05 -3.481914e-09
3.578809e-05 2.595228e-05 3.481914e-09
4.106905e-05 -1.635976e-05 -3.481916e-09
2.251622e-05 -3.804574e-05 2.837620e-08
-5.797173e-06 4.388675e-05 -1.572146e-07
4.420607e-05 4.892662e-07 -2.408342e-08
-4.428823e-05 -5.880224e-06 -5.747840e-23
-4.567569e-06 4.438192e-05 1.573269e-07
2.147290e-05 3.884745e-05 -2.280972e-07
1.924630e-05 3.999500e-05 -2.275700e-07
2.628954e-05 3.575902e-05 -2.270714e-07
2.058120e-05 3.932561e-05 -2.277643e-07
2.945490e-05 3.320395e-05 -2.277752e-07
3.204840e-05 3.105140e-05 -1.485708e-07
4.266057e-05 -1.239797e-05 2.340845e-07
-2.127632e-05 -3.899469e-05 -2.337555e-07
6.806822e-07 -4.441626e-05 -2.337555e-07
-4.426858e-05 -6.026343e-06 -5.747840e-23
-1.650468e-05 -4.124152e-05 -2.337555e-07
-3.861755e-05 -2.195342e-05 -2.337555e-07
-3.357221e-05 -2.908908e-05 -2.337555e-07
-2.649346e-05 -3.565619e-05 -2.337555e-07
-3.116553e-05 -3.165403e-05 -2.337555e-07
-1.489868e-05 -4.184850e-05 -2.337555e-07
-3.403382e-05 2.885016e-05 -1.571454e-07
-4.287463e-05 1.233371e-05 1.605301e-07
-9.198001e-06 4.365809e-05 -1.571448e-07
-2.273496e-05 3.839018e-05 1.564878e-07
-4.424845e-05 -6.172396e-06 -5.747840e-23
-3.297544e-05 3.005840e-05 -1.539192e-07
-4.307368e-05 1.163145e-05 1.571420e-07
-2.801509e-05 3.470573e-05 1.719288e-07
3.406220e-05 -2.826517e-05 -1.507087e-07
2.666190e-05 3.533124e-05 -1.507087e-07
2.442101e-05 3.691568e-05 -1.507087e-07
1.627556e-05 4.116139e-05 -1.507087e-07
1.405180e-05 4.197261e-05 -1.507087e-07
1.971584e-05 3.962877e-05 -1.507087e-07
3.250244e-05 -3.004571e-05 -1.507087e-07
-4.422784e-05 -6.318381e-06 -5.747840e-23
2.158160e-05 -3.858885e-05 5.409803e-08
2.146887e-05 -3.865451e-05 6.361693e-08
-4.122038e-05 1.708152e-05 -1.537743e-07
-7.611269e-06 4.396501e-05 1.543544e-07
4.323489e-05 9.238702e-06 -3.995360e-08
4.357476e-05 -9.694161e-06 -1.261716e-07
-1.830975e-05 4.067976e-05 -1.636378e-07
-3.631096e-05 2.591532e-05 -1.636378e-07
-1.799780e-05 4.081829e-05 -1.640517e-07
-3.611129e-05 2.619214e-05 -1.640517e-07
-4.420675e-05 -6.464298e-06 -5.747840e-23
-3.306921e-05 2.992927e-05 1.719193e-07
-2.287584e-05 3.829864e-05 -1.636365e-07
4.298985e-05 -1.193891e-05 -1.567410e-07
-1.334209e-05 -4.241121e-05 2.339715e-07
-2.129570e-05 3.920947e-05 1.538899e-07
-2.258198e-05 3.847216e-05 -1.640555e-07
-3.285327e-05 3.018102e-05 1.619839e-07
3.827996e-05 -2.292190e-05 1.554340e-07
3.869033e-05 -2.158521e-05 -1.898053e-07
-1.299147e-05 -4.269971e-05 1.375981e-07
-4.418518e-05 -6.610145e-06 -5.747840e-23
-2.564821e-05 -3.652670e-05 1.377943e-07
5.362792e-06 -4.430896e-05 1.375981e-07
-3.044865e-05 -3.263296e-05 1.377943e-07
-4.200507e-05 -1.508657e-05 1.377943e-07
1.171892e-05 -4.306631e-05 1.376439e-07
-1.185801e-05 -4.302811e-05 1.377943e-07
-4.229553e-05 -1.425197e-05 1.377943e-07
6.532317e-06 -4.415155e-05 1.377943e-07
-4.043425e-06 -4.444875e-05 1.376439e-07
-1.355412e-05 -4.252558e-05 1.360994e-07
4.312901e-05 1.165814e-05 -5.747840e-23
-4.416312e-05 -6.755919e-06 -5.747840e-23
-2.242087e-05 -3.859191e-05 1.377943e-07
-4.371431e-05 7.945504e-06 2.343824e-07
1.114320e-06 4.461813e-05 -1.379669e-07
2.721726e-06 4.414064e-05 8.753166e-08
-4.420958e-05 -1.536662e-06 -1.125294e-07
2.754580e-05 -3.461619e-05 1.166491e-07
3.758781e-05 2.332828e-05 -1.166491e-07
2.904124e-05 3.333105e-05 -1.570167e-08
2.085316e-05 3.898232e-05 -2.991437e-08
1.881103e-05 4.000621e-05 -1.554902e-08
-4.414059e-05 -6.901620e-06 -5.747840e-23
2.174712e-05 3.848979e-05 -2.237841e-08
3.002217e-05 -3.246444e-05 -7.069126e-08
4.282928e-05 -1.103399e-05 9.534016e-08
-4.203044e-05 1.370599e-05 -2.361484e-08
-3.683107e-05 2.445216e-05 2.619690e-08
-4.327286e-05 9.048385e-06 -2.384921e-08
-3.836355e-05 2.196984e-05 -2.619696e-08
[...]
POINT_DATA 25701
VECTORS 10.000GHz_fone_imag double
5.401450e+10 -2.115988e+11 -6.007724e+08
-1.751004e+10 2.187350e+11 1.906472e+08
-2.471970e+10 2.183933e+11 -2.348927e+09
2.175260e+10 -2.173766e+11 2.775769e+09
2.026489e+11 8.227682e+10 -2.945767e+09
1.938954e+11 1.060185e+11 1.922417e+09
1.610652e+11 1.497734e+11 -2.101143e+09
1.342331e+11 1.713345e+11 3.897736e+09
-1.980816e+11 -1.000723e+11 3.850344e+07
-1.448382e+11 -1.735495e+11 2.094558e+09
1.777233e+11 -1.351804e+11 4.355322e+08
2.079723e+11 -8.131921e+10 -3.986070e+08
-1.673523e+10 2.186388e+11 -3.570662e+09
-2.016820e+11 -9.339584e+10 7.016840e+08
-1.769218e+11 -1.354536e+11 1.691665e+09
1.227979e+11 -1.874681e+11 3.814539e+09
3.261012e+10 2.260666e+11 2.501633e+08
1.579453e+11 -1.579388e+11 1.263080e+09
8.105596e+10 -2.059622e+11 -2.977942e+09
-1.179173e+11 -1.881172e+11 3.663274e+08
-2.263582e+11 2.109367e+10 3.415353e+09
-2.195176e+11 -5.884898e+10 3.473607e+09
1.454302e+11 -1.656324e+11 -5.027594e+09
-2.721021e+10 2.201998e+11 8.273116e+07
2.211644e+11 -3.613152e+09 9.866863e+08
-3.089811e+10 2.169370e+11 -1.469666e+09
1.788832e+11 -1.364560e+11 1.498117e+09
1.871711e+11 -1.231148e+11 -1.693505e+09
2.094008e+11 -8.188026e+10 -1.480246e+09
-1.451858e+11 -1.741115e+11 1.432680e+08
2.147086e+11 -7.337352e+10 -4.577608e+07
2.016440e+11 -1.025614e+11 -6.922384e+08
-1.515078e+11 -1.657114e+11 -7.595062e+08
7.309766e+10 -2.101796e+11 8.849177e+07
-2.050105e+10 2.233915e+11 4.260846e+09
2.201863e+11 -7.046327e+09 8.486851e+08
2.211849e+11 4.807550e+09 8.028910e+08
-1.695766e+11 1.458145e+11 2.702768e+09
-2.028034e+11 9.380867e+10 2.693314e+09
-1.559922e+11 1.617969e+11 -5.185023e+09
-2.149935e+11 -6.705547e+10 -2.391846e+09
-2.250604e+11 1.138660e+10 -5.089888e+09
-2.101502e+11 -7.512803e+10 -3.404591e+09
-9.991095e+10 2.000718e+11 2.510224e+09
-9.253815e+10 2.052686e+11 5.025245e+09
-1.866202e+10 2.189381e+11 -4.582892e+08
-2.232021e+11 8.073552e+09 3.408380e+09
-1.984052e+11 1.068475e+11 5.073408e+09
1.960994e+11 -1.065206e+11 9.838835e+08
1.599576e+11 -1.595277e+11 8.054019e+08
-2.118254e+11 -8.439249e+10 3.482271e+09
-1.300059e+11 -1.803520e+11 -3.030652e+07
2.038145e+11 8.709723e+10 -2.199601e+09
1.568766e+11 1.567604e+11 -1.972998e+09
2.112604e+11 6.689648e+10 -1.940169e+09
1.474180e+11 1.669315e+11 -2.158833e+09
-2.129170e+10 2.183341e+11 -2.754059e+09
2.167262e+11 -4.445796e+10 -1.528997e+09
2.124796e+11 -5.934516e+10 -9.630021e+08
-3.853100e+10 -2.162469e+11 -1.346540e+08
1.951070e+11 -1.059393e+11 2.264286e+08
2.227636e+11 -2.386568e+10 1.050476e+09
3.035910e+10 -2.187288e+11 1.632264e+09
9.459173e+09 -2.179425e+11 8.598032e+08
-6.847398e+10 -2.118734e+11 -1.528681e+09
6.617505e+10 -2.135452e+11 -3.035096e+09
3.620489e+10 2.227513e+11 5.323076e+09
-2.314165e+10 2.195756e+11 5.865747e+08
-1.670493e+11 1.456471e+11 1.665114e+09
-1.855800e+11 1.211699e+11 1.666142e+09
-1.859221e+11 1.174618e+11 -2.750022e+09
-2.160692e+11 -3.872540e+10 2.770202e+09
-2.147222e+11 5.272232e+10 1.184250e+09
-6.419868e+10 2.115395e+11 -2.894193e+09
-2.199078e+11 1.232907e+10 8.177160e+08
-1.505853e+11 1.591298e+11 2.774023e+09
-9.240396e+10 1.994053e+11 -2.772361e+09
-1.018050e+11 1.974476e+11 -5.049125e+08
-2.332688e+10 2.178657e+11 1.452869e+09
-1.680484e+11 1.422530e+11 -2.885937e+09
-2.002324e+11 9.064204e+10 -2.890562e+09
-2.115777e+11 -6.564597e+10 2.853362e+09
-1.945153e+11 1.033738e+11 -8.104574e+08
-2.090873e+11 -7.269017e+10 1.337803e+09
-2.216084e+11 6.010863e+09 -1.386065e+09
-4.130361e+10 -2.208552e+11 3.900222e+09
1.767765e+11 1.423114e+11 -1.338206e+09
1.727500e+11 1.392334e+11 8.126059e+08
1.273196e+11 1.774284e+11 -2.308519e+08
-2.753045e+10 2.192232e+11 -1.227352e+09
2.001954e+11 8.982712e+10 -5.822356e+08
1.790689e+10 -2.244798e+11 -3.379121e+09
2.171814e+11 2.278168e+10 8.336595e+08
1.860439e+11 1.170848e+11 1.010401e+09
-1.986744e+11 -9.770480e+10 1.613270e+09
2.082620e+11 7.346625e+10 -1.354734e+08
-1.329593e+11 -1.820881e+11 -3.624410e+08
1.867267e+11 -1.223367e+11 1.866046e+08
-2.292786e+10 -2.182246e+11 -3.957440e+09
-4.719630e+10 -2.160808e+11 1.253397e+09
-2.206733e+10 2.191950e+11 -2.909559e+09
7.131783e+10 -2.116975e+11 -1.692681e+09
1.240332e+11 -1.807368e+11 -3.106681e+09
-1.784134e+11 -1.289420e+11 -3.010855e+09
-8.671021e+10 -2.023439e+11 3.003452e+09
-1.838857e+11 -1.201213e+11 3.141064e+09
1.349332e+11 -1.726681e+11 -2.911289e+09
1.079225e+11 1.926202e+11 3.423192e+07
1.201410e+11 1.853012e+11 -7.026066e+08
-3.542942e+10 2.180937e+11 2.567666e+09
-1.799907e+10 2.182071e+11 -6.909382e+08
5.803827e+10 -2.125831e+11 1.822470e+09
-2.980766e+10 2.168495e+11 -3.511910e+08
-2.062367e+11 -9.222141e+10 1.361328e+09
-2.185352e+11 -4.123649e+10 -3.405677e+09
-2.166778e+11 5.053853e+10 -3.280918e+09
-6.287712e+10 2.146109e+11 2.603617e+09
-1.868004e+11 1.188380e+11 -3.472512e+09
-1.865473e+11 1.202596e+11 2.226786e+09
-1.685933e+11 1.435057e+11 -3.479232e+09
-1.069929e+11 -1.937284e+11 -8.168209e+08
-7.027553e+10 -2.104641e+11 -5.334855e+08
6.473756e+09 -2.182797e+11 3.622867e+09
-2.575807e+10 2.193677e+11 -1.540127e+08
-2.507995e+10 -2.191595e+11 9.249400e+08
1.387580e+11 -1.726263e+11 1.299027e+09
-1.881337e+11 -1.159103e+11 1.347632e+09
1.221941e+11 1.888288e+11 1.297841e+09
1.064641e+11 1.929949e+11 -1.427577e+09
7.870094e+10 2.120392e+11 2.152208e+09
2.082974e+11 7.193855e+10 1.420754e+09
1.674080e+11 1.538586e+11 -9.626304e+08
-1.788549e+10 2.195522e+11 -2.420958e+08
3.873465e+10 2.193938e+11 -2.169130e+09
-2.694188e+10 2.179529e+11 1.278824e+09
2.209175e+11 1.516297e+10 -6.637260e+08
-3.462120e+10 2.171907e+11 -2.869958e+09
9.292303e+10 2.030501e+11 1.052178e+09
1.517585e+11 1.600320e+11 7.759933e+08
-3.800918e+10 2.183214e+11 -8.339496e+08
-1.662922e+11 1.428876e+11 1.214272e+09
-9.020858e+10 2.003639e+11 1.212637e+09
-1.528489e+11 1.582425e+11 -1.202845e+09
-1.990790e+11 9.224512e+10 1.885487e+09
-2.163715e+11 -4.097287e+10 -1.161028e+09
-2.695206e+10 2.178169e+11 3.824348e+08
-6.169117e+10 2.103768e+11 7.090181e+08
-1.845711e+11 1.187774e+11 1.503200e+09
-9.108678e+10 -2.033075e+11 -1.771735e+09
5.728906e+10 -2.152029e+11 -1.860225e+09
-1.859876e+11 -1.227382e+11 1.714084e+09
1.338665e+11 -1.780773e+11 1.820676e+09
-7.897344e+10 -2.079978e+11 -2.014689e+09
-1.909636e+11 -1.174542e+11 -3.051225e+09
2.216486e+11 3.047143e+10 -1.425915e+09
-2.201758e+09 -2.246732e+11 1.396147e+09
-3.384424e+10 2.197815e+11 -1.425642e+08
2.234949e+11 2.303403e+10 4.689250e+08
1.936950e+11 -1.086120e+11 -4.240261e+09
2.003874e+11 -9.640872e+10 1.483903e+09
1.835076e+11 -1.329443e+11 -1.816581e+09
1.967619e+11 -1.027777e+11 -2.323574e+09
1.659384e+11 -1.472726e+11 1.725688e+09
1.543783e+11 -1.576481e+11 -1.636436e+09
-5.966889e+10 -2.135405e+11 -5.730037e+09
-1.933770e+11 1.061424e+11 -3.020639e+09
-2.224204e+11 -3.319732e+09 -3.468690e+09
-2.499207e+10 2.197611e+11 1.135278e+09
-2.065090e+11 8.226710e+10 -3.346900e+09
-1.079905e+11 1.909228e+11 -3.628394e+09
-1.455267e+11 1.684049e+11 3.368975e+09
-1.763628e+11 1.304202e+11 3.608972e+09
-1.575582e+11 1.542908e+11 3.153340e+09
-2.078673e+11 7.338118e+10 3.134546e+09
1.467615e+11 1.724542e+11 1.009048e+09
6.080124e+10 2.137116e+11 -2.212461e+08
2.141204e+11 4.604234e+10 9.873228e+08
1.916851e+11 1.129664e+11 2.112051e+09
-3.319363e+10 2.199119e+11 -3.247166e+09
1.472468e+11 1.605558e+11 -6.175108e+08
5.849485e+10 2.126544e+11 4.682590e+08
1.715164e+11 1.392037e+11 1.642891e+09
-1.439468e+11 -1.744431e+11 -8.069583e+08
1.793913e+11 -1.350615e+11 -1.741208e+09
1.867420e+11 -1.239546e+11 1.337873e+09
2.088232e+11 -8.285313e+10 1.540419e+09
2.185181e+11 -7.293829e+10 -1.933628e+09
2.048095e+11 -1.017828e+11 -1.682468e+09
-1.520718e+11 -1.652572e+11 1.265216e+09
-2.705238e+10 2.158260e+11 -5.171730e+08
-1.968163e+11 -1.094300e+11 6.611838e+08
-1.958771e+11 -1.079292e+11 -1.266993e+08
8.666730e+10 2.026470e+11 -1.050373e+09
2.152905e+11 3.508675e+10 8.418652e+08
4.593099e+10 -2.200725e+11 1.113706e+09
-4.760898e+10 -2.143419e+11 -2.640576e+08
2.066419e+11 9.406826e+10 -1.341842e+08
1.301453e+11 1.831647e+11 1.049216e+09
2.035466e+11 9.010464e+10 -2.039108e+09
1.318875e+11 1.817463e+11 -1.941640e+09
-3.570112e+10 2.178150e+11 7.527072e+08
1.494379e+11 1.661983e+11 -1.007098e+09
1.915910e+11 1.145707e+11 1.620807e+09
-5.901728e+10 -2.118841e+11 -9.524644e+07
-2.132063e+11 6.639199e+10 1.701826e+09
1.984168e+11 1.080776e+11 8.916537e+08
1.919641e+11 1.126907e+11 -1.206684e+09
1.503157e+11 1.633853e+11 1.604535e+09
-1.128756e+11 -1.908084e+11 8.383544e+07
-1.078165e+11 -1.981164e+11 4.923931e+08
-2.116288e+11 6.566849e+10 1.793894e+08
-2.972367e+10 2.183035e+11 -1.841528e+09
-1.797417e+11 1.265780e+11 -7.056753e+08
-2.182847e+11 -2.590818e+10 -5.492943e+08
-1.603934e+11 1.502919e+11 -5.480879e+08
-7.345579e+10 2.090186e+11 -3.178948e+08
-2.142051e+11 -5.947765e+10 1.139595e+09
-2.129142e+11 5.754357e+10 -3.173777e+08
-6.954480e+10 2.091027e+11 1.071447e+08
-2.179816e+11 -3.334969e+10 -3.095203e+08
-2.216819e+11 1.927786e+10 1.303821e+09
-2.158627e+11 6.850057e+10 -1.068635e+09
5.923407e+10 -2.133578e+11 8.906865e+08
-3.417681e+10 2.163611e+11 -1.019416e+08
-1.902137e+11 1.101375e+11 6.793397e+08
4.142829e+10 2.209828e+11 1.818693e+09
2.217345e+11 -3.303762e+09 1.198698e+09
2.230359e+11 -1.242539e+10 5.431550e+08
-6.734060e+09 2.214544e+11 -2.937204e+08
-1.716825e+11 -1.397795e+11 -1.124468e+09
1.147470e+11 -1.897932e+11 -7.775759e+08
1.690109e+11 -1.472942e+11 -9.421392e+08
1.975252e+11 -1.060955e+11 1.284332e+08
2.029344e+11 -9.547844e+10 -1.046400e+09
-3.002166e+10 2.169825e+11 -2.391384e+09
1.965718e+11 -1.118051e+11 6.607078e+08
-1.684715e+11 -1.488237e+11 -2.985283e+09
-5.786589e+10 -2.182098e+11 9.403280e+08
7.131734e+10 2.077741e+11 -1.257696e+09
1.197609e+11 1.875471e+11 -1.508941e+09
3.974050e+10 2.150638e+11 2.184364e+09
1.053031e+11 1.926968e+11 1.728149e+09
2.643951e+10 -2.207415e+11 9.562947e+08
2.078009e+11 7.133275e+10 -1.216268e+09
2.005748e+11 9.256962e+10 2.348042e+09
-3.866426e+10 2.170751e+11 -3.560229e+08
1.377268e+11 1.718784e+11 1.824443e+09
2.144722e+11 5.139339e+10 1.864631e+09
2.214320e+11 1.748248e+10 8.027438e+08
2.202116e+11 2.355420e+10 -2.805529e+09
8.153619e+10 2.055666e+11 -5.856097e+08
2.194889e+11 4.235668e+10 3.685760e+09
2.175605e+11 4.073913e+10 -3.242643e+09
5.289892e+10 2.142127e+11 -2.786183e+09
-3.780436e+10 -2.209276e+11 2.895527e+09
-1.627280e+11 1.539254e+11 7.802124e+08
-3.629500e+10 2.187935e+11 6.288330e+08
-1.815697e+11 1.294639e+11 6.180256e+08
-2.225479e+11 -2.538978e+10 7.746961e+08
-1.935834e+11 1.106203e+11 -6.217211e+08
1.528299e+11 -1.598126e+11 4.530568e+09
3.236992e+10 -2.169631e+11 -2.266456e+09
1.548627e+11 -1.601865e+11 4.178007e+09
1.097523e+11 -1.994618e+11 -5.121606e+08
-1.216868e+11 -1.879022e+11 -7.637070e+08
3.346409e+10 -2.173994e+11 1.289198e+09
8.771632e+10 2.021742e+11 5.839282e+08
-3.729964e+10 2.193718e+11 2.354404e+09
2.231573e+11 1.229731e+10 8.775539e+08
-7.213778e+09 2.253444e+11 1.239047e+09
6.882190e+10 -2.101516e+11 1.012020e+09
-1.031338e+11 -1.930575e+11 1.297687e+09
-3.100711e+10 -2.194986e+11 -1.277684e+09
-1.031278e+10 -2.200370e+11 3.338914e+08
1.788144e+11 1.307517e+11 1.277001e+09
9.571575e+10 2.014271e+11 -9.436489e+08
7.407064e+10 2.100925e+11 -7.468540e+08
1.173565e+11 1.893632e+11 -7.156671e+08
-3.102688e+10 2.170342e+11 -3.335006e+07
1.042601e+11 1.966038e+11 1.277980e+09
1.660183e+11 1.483427e+11 7.294015e+08
2.113963e+11 6.922503e+10 -1.211940e+09
1.559752e+11 1.588311e+11 -1.321299e+09
7.611013e+10 -2.054920e+11 -2.226147e+09
2.008318e+11 9.905874e+10 -7.038440e+08
2.096826e+11 7.871999e+10 6.758039e+08
5.308137e+10 2.167444e+11 -7.745107e+08
1.855477e+11 1.242153e+11 -6.592516e+08
1.782728e+11 1.344602e+11 -7.580090e+08
-4.119475e+10 2.150783e+11 -8.154581e+08
-1.531686e+11 -1.584637e+11 2.861305e+08
2.118428e+11 6.209209e+10 6.468065e+08
2.988599e+10 2.211787e+11 1.429382e+09
2.231466e+11 -1.836041e+09 -4.656727e+09
-4.398541e+10 -2.138191e+11 1.023420e+09
2.208218e+11 1.402723e+10 -7.367526e+08
1.417100e+11 1.693644e+11 1.046618e+09
1.665471e+11 -1.466541e+11 1.517321e+07
1.995497e+11 -9.603257e+10 -9.276785e+08
1.924568e+11 -1.072609e+11 -5.030822e+08
-3.530398e+10 2.222142e+11 -2.858053e+09
1.804107e+11 -1.321471e+11 4.383551e+08
1.951920e+11 -1.028954e+11 3.403651e+08
1.937690e+11 -1.050770e+11 2.859538e+09
-1.590926e+11 -1.517443e+11 -8.135313e+08
1.636154e+11 -1.538126e+11 -1.456438e+09
-2.078369e+11 -7.220222e+10 -1.864672e+08
-2.200594e+11 6.226970e+09 1.037544e+09
-1.945331e+11 1.022495e+11 8.499694e+08
-2.191897e+11 1.377788e+10 -5.451737e+08
-1.179079e+10 -2.240186e+11 -6.768364e+08
-3.818562e+10 2.167634e+11 1.630966e+09
8.357763e+10 -2.094666e+11 4.467843e+09
-2.141227e+11 5.216663e+10 -2.449062e+08
-2.223414e+11 -1.366035e+10 -5.635073e+09
-2.171739e+11 -4.047399e+10 -5.951582e+09
-1.414298e+11 1.749916e+11 -4.037871e+09
-1.198838e+11 1.902698e+11 -4.159490e+09
-4.603667e+10 2.174643e+11 -4.400696e+09
-2.226640e+11 -5.375983e+09 -3.410789e+09
-1.331397e+11 1.784287e+11 -5.402035e+09
-1.312154e+11 1.804406e+11 4.500642e+09
-3.946290e+10 2.182929e+11 1.372734e+09
-2.198141e+11 3.484056e+10 -5.490448e+09
-2.225167e+11 1.283797e+10 -4.656876e+09
-3.842854e+10 2.177668e+11 5.546922e+09
2.207878e+11 -2.590591e+10 1.945898e+09
7.131884e+10 -2.118918e+11 -1.567356e+09
-1.343455e+11 -1.804211e+11 -2.905436e+08
-2.148150e+11 4.203910e+10 5.466316e+09
-2.170300e+11 -4.950320e+10 6.956721e+09
-1.251477e+11 1.802143e+11 5.643393e+09
-2.159747e+11 3.419412e+10 -5.464369e+09
6.026708e+10 -2.139376e+11 -5.765835e+09
-4.788860e+10 2.188805e+11 -7.079679e+08
-5.503956e+10 2.154908e+11 -6.562009e+09
-2.137567e+11 4.607102e+10 5.414162e+09
-1.119437e+11 1.927193e+11 -7.159029e+09
-5.191896e+10 2.159846e+11 6.986185e+09
-1.307979e+11 1.750645e+11 -5.468381e+09
-1.205982e+11 1.820167e+11 5.384387e+09
-3.712201e+10 2.197465e+11 -7.143345e+09
-2.163349e+11 3.780209e+10 5.653857e+09
-1.411650e+11 1.664780e+11 5.399568e+09
-1.303521e+11 1.818744e+11 -5.430938e+09
-3.627317e+10 2.194791e+11 -1.414583e+09
-2.179103e+11 -1.373096e+10 -5.604038e+09
-1.738295e+11 1.378671e+11 5.705764e+08
-2.111941e+11 -6.701391e+10 -1.193463e+09
-2.050833e+11 8.523924e+10 5.251854e+08
-9.531370e+10 1.991213e+11 9.494086e+07
-1.493017e+11 1.622841e+11 6.555804e+07
-1.965177e+11 9.984561e+10 -3.930325e+07
-2.220555e+11 -5.201663e+08 5.945275e+08
-1.072576e+11 1.942107e+11 5.740923e+08
1.002717e+09 -2.207177e+11 1.543246e+09
-5.036637e+10 2.178787e+11 -8.916803e+08
1.496834e+11 -1.640248e+11 2.178218e+09
6.357184e+10 2.153261e+11 -2.828828e+09
1.683750e+11 1.482181e+11 -2.362922e+09
1.993425e+11 9.947872e+10 2.191996e+09
1.291908e+11 1.832234e+11 -2.867472e+09
1.439473e+11 1.719333e+11 -2.614913e+09
2.190738e+11 4.755901e+10 -2.599516e+09
5.222164e+10 2.182147e+11 1.861700e+09
1.843588e+11 1.248626e+11 2.217567e+09
1.916365e+11 1.162475e+11 -2.821301e+09
-3.684240e+10 2.186377e+11 4.104024e+08
1.166486e+11 1.911409e+11 2.170314e+09
1.026877e+11 1.968145e+11 -2.620812e+09
1.984960e+11 1.030761e+11 -2.463369e+09
1.834151e+11 1.283445e+11 -2.571690e+09
9.918375e+10 1.981327e+11 2.212904e+09
1.966867e+10 2.218070e+11 1.403339e+09
-6.688199e+10 -2.139723e+11 -2.912670e+09
1.024239e+10 2.194994e+11 -1.388993e+09
-1.627247e+10 -2.213425e+11 7.076491e+08
1.419438e+11 1.642086e+11 8.796207e+08
-4.613599e+10 2.137240e+11 -9.658059e+08
3.465682e+10 2.201165e+11 -9.620544e+07
1.677501e+11 -1.512298e+11 -2.469543e+09
1.638250e+11 -1.486246e+11 -3.241248e+08
1.555204e+11 -1.524800e+11 9.421249e+08
-1.794477e+11 1.303015e+11 -6.005496e+08
-2.162134e+11 -3.456494e+10 -1.520662e+09
-2.205218e+11 -2.309700e+10 -4.472446e+08
-1.596547e+11 1.539266e+11 -4.682432e+08
-6.835897e+10 2.098278e+11 9.402262e+08
-2.130371e+11 -6.194664e+10 -1.202924e+08
-4.231018e+10 2.163858e+11 9.605446e+08
-2.197251e+11 1.628793e+10 -8.633244e+07
-2.116363e+11 5.569619e+10 -1.467719e+09
-1.936678e+11 1.084928e+11 5.894009e+08
3.973728e+10 2.174708e+11 -1.358048e+09
-2.205230e+11 -3.330390e+10 -4.262269e+08
-7.068971e+10 2.109992e+11 -1.706895e+08
-2.153418e+11 5.875860e+10 -4.740676e+08
-1.633528e+11 1.495976e+11 7.076482e+08
-1.824847e+11 1.256056e+11 7.142496e+08
-1.906474e+11 1.133070e+11 -7.657818e+08
-4.617026e+10 2.164903e+11 9.681591e+08
6.674410e+10 2.122928e+11 1.649832e+09
1.689952e+11 1.441234e+11 1.722016e+09
1.394506e+11 1.731095e+11 1.762924e+09
1.245878e+11 1.839795e+11 1.614943e+09
2.162969e+11 5.128063e+10 1.753981e+09
4.756847e+10 2.162662e+11 -1.650995e+09
1.870582e+11 1.184956e+11 1.133659e+09
1.117493e+11 1.909266e+11 -1.515348e+09
-6.928677e+10 -2.096920e+11 1.021183e+09
3.833068e+10 -2.214174e+11 2.656545e+09
-4.398512e+10 2.172150e+11 -2.173184e+09
1.327917e+08 2.231268e+11 -1.013033e+09
-6.999493e+10 -2.102604e+11 -3.365585e+08
-1.588426e+10 -2.225679e+11 -9.170974e+07
-2.168003e+11 3.374223e+10 -7.494705e+08
-2.154528e+11 -4.741726e+10 -1.270231e+09
-1.316793e+11 1.752171e+11 -6.855752e+08
-2.151368e+11 4.270750e+10 1.299107e+08
-2.182407e+11 -1.381015e+10 -8.581580e+08
-1.306598e+11 1.794922e+11 9.843798e+07
-2.161425e+11 3.837307e+10 2.367307e+08
-5.364495e+10 2.174769e+11 4.805760e+08
-2.145050e+11 4.635383e+10 6.899694e+08
-1.247710e+11 1.808051e+11 3.651155e+08
-1.416242e+11 1.674279e+11 4.868380e+07
-1.121618e+11 1.900725e+11 1.401237e+09
-1.209197e+11 1.831170e+11 1.123248e+08
-5.576632e+10 2.136049e+11 9.268395e+08
-5.017452e+10 2.139974e+11 6.474783e+08
-3.856064e+10 2.170168e+11 1.268748e+09
-1.798413e+11 1.300110e+11 1.550598e+09
-7.835033e+10 2.072924e+11 -1.088304e+09
-4.208655e+10 2.170859e+11 -3.389860e+08
-2.100836e+11 7.137747e+10 1.238412e+09
-2.200859e+11 -2.355135e+10 1.313564e+09
-1.597755e+11 1.532459e+11 1.334523e+09
-1.933946e+11 1.088316e+11 -1.556006e+09
-1.005663e+09 -2.269813e+11 9.519211e+08
1.744220e+11 1.348230e+11 1.597042e+09
1.961268e+11 9.286428e+10 1.824380e+09
1.738026e+11 -1.445406e+11 9.950928e+08
-1.370611e+11 -1.789616e+11 -3.317878e+08
2.067528e+11 -9.148084e+10 1.010442e+09
5.821760e+10 -2.143998e+11 5.319285e+08
-4.849867e+10 2.163829e+11 -1.984278e+09
2.175704e+11 -6.127418e+10 5.645198e+07
1.921491e+11 -1.188050e+11 4.876688e+08
2.213326e+11 -4.624883e+10 1.856955e+08
-2.227732e+11 2.873430e+10 -2.853543e+09
2.214127e+10 2.204649e+11 -2.212497e+08
2.614225e+10 -2.190564e+11 1.020666e+09
2.146632e+11 3.557510e+10 -6.079246e+08
2.095384e+11 6.022517e+10 -7.956364e+08
5.042935e+10 -2.187709e+11 -2.509358e+09
1.202249e+11 1.902707e+11 2.031651e+09
-4.770940e+10 2.158900e+11 5.261993e+08
1.069314e+11 1.982368e+11 -1.705416e+09
7.683274e+10 2.110920e+11 2.137788e+09
2.135734e+11 7.148804e+10 1.685531e+09
1.654692e+11 1.501275e+11 -1.143347e+09
2.216326e+11 2.798989e+10 2.265845e+09
3.584515e+10 2.224519e+11 -4.671584e+09
8.140400e+10 -2.074765e+11 3.978500e+09
7.637063e+10 2.048467e+11 2.009653e+08
6.879870e+10 2.087055e+11 -1.790753e+09
9.974707e+10 -1.982582e+11 1.297419e+09
-5.271237e+10 2.185008e+11 3.073272e+09
1.579234e+11 -1.556644e+11 -3.726213e+08
-2.156488e+11 7.276366e+10 3.589987e+09
-1.845471e+11 1.326183e+11 3.427525e+09
-1.976146e+11 1.120147e+11 -3.552217e+09
-1.977895e+11 9.919442e+10 9.713045e+08
-2.088646e+11 7.636490e+10 3.540024e+09
-2.161734e+11 -6.092141e+10 -8.531589e+08
-2.155449e+11 -6.918798e+10 -2.440995e+09
-1.986532e+11 9.575765e+10 -3.007560e+09
-4.657672e+10 2.171325e+11 4.325975e+09
-4.910885e+10 2.201995e+11 -3.146468e+09
-2.247464e+11 -4.439714e+10 -4.248578e+09
-2.243055e+11 -1.663711e+10 -4.450563e+09
-2.199458e+11 3.823932e+10 3.341746e+09
-2.204845e+11 1.757429e+10 -1.001356e+09
-8.664241e+10 2.066130e+11 4.497021e+09
-2.182261e+11 5.846547e+10 -2.532783e+09
-2.225534e+11 3.415009e+10 3.911331e+09
-2.189631e+11 4.209458e+10 5.305394e+09
-8.813988e+10 2.035738e+11 2.893038e+09
-1.546230e+11 1.606378e+11 3.401668e+09
-5.482139e+10 2.165605e+11 1.119392e+08
-1.091686e+11 1.993325e+11 -3.437997e+09
-9.757602e+10 2.020363e+11 9.810043e+08
-6.963287e+10 2.129401e+11 1.690193e+09