# vtk DataFile Version 2.0
Electric current density generated by TTH
ASCII
DATASET UNSTRUCTURED_GRID
POINTS 2824 double
2.898342e-05 -7.098890e-21 -3.122542e-22
2.809653e-05 7.115008e-06 -3.122542e-22
-2.654224e-05 1.164251e-05 -3.122542e-22
-2.631335e-05 -2.536478e-06 -6.478738e-08
2.208141e-05 1.627773e-05 1.244676e-06
2.208141e-05 -1.627773e-05 -1.244676e-06
1.748896e-05 2.066021e-05 -1.102610e-06
1.807395e-05 2.015662e-05 -1.105266e-06
1.748896e-05 -2.066021e-05 1.102610e-06
1.807395e-05 -2.015662e-05 1.105266e-06
-2.722555e-05 -3.370216e-06 1.244821e-06
-2.588574e-05 -1.216744e-05 9.086655e-07
-1.898977e-05 -1.969086e-05 1.225110e-06
-2.685296e-05 1.090673e-05 -3.122542e-22
1.071100e-05 2.502612e-05 -1.178344e-06
-1.972633e-05 -2.073570e-05 -8.915055e-07
6.528545e-06 -2.641785e-05 1.174449e-06
2.844480e-05 8.632711e-07 1.031395e-06
2.844480e-05 -8.632711e-07 -1.031395e-06
-1.694202e-05 -2.104596e-05 1.071568e-06
1.717706e-05 -2.291792e-05 8.698416e-07
1.717706e-05 2.291792e-05 -8.698416e-07
2.546171e-05 -1.311531e-05 -8.693183e-07
2.546171e-05 1.311531e-05 8.693183e-07
-2.714330e-05 1.016267e-05 -3.122542e-22
2.653989e-05 1.080251e-05 -8.550651e-07
2.652082e-05 -1.078252e-05 8.821307e-07
1.176097e-05 2.436211e-05 -1.093065e-06
-2.719035e-05 3.049863e-08 1.164817e-06
-1.036072e-05 -2.658140e-05 -9.756101e-07
-1.957091e-05 1.918559e-05 -1.238538e-06
-2.874105e-09 -2.735229e-05 1.224088e-06
-1.426542e-05 -2.331617e-05 1.218607e-06
-2.416258e-05 -1.278979e-05 -1.220073e-06
1.533704e-05 -2.261235e-05 -1.215160e-06
-2.741302e-05 9.410900e-06 -3.122542e-22
-2.792480e-05 -6.310563e-06 8.821186e-07
1.526137e-05 2.265850e-05 1.213841e-06
-2.606507e-05 4.507845e-06 2.154314e-07
-1.907240e-05 2.135618e-05 -8.779932e-07
1.669995e-05 -2.053405e-05 2.923101e-07
1.603743e-05 -2.106046e-05 3.084031e-07
1.669995e-05 2.053405e-05 -2.923101e-07
1.604927e-05 2.105143e-05 -3.083674e-07
-4.313065e-07 2.724139e-05 -1.187541e-06
-1.064598e-05 2.507775e-05 -1.187188e-06
-2.766192e-05 8.651979e-06 -3.122542e-22
-1.454272e-05 2.303788e-05 -1.187218e-06
1.005740e-05 2.552499e-05 1.245171e-06
2.635182e-05 -7.887534e-06 1.258832e-06
2.635182e-05 7.887534e-06 -1.258832e-06
-1.633363e-05 2.346442e-05 -9.214125e-07
-9.997843e-06 2.681175e-05 -8.963124e-07
8.297343e-07 2.860712e-05 -8.922474e-07
8.012534e-06 -2.750080e-05 8.658583e-07
2.622712e-05 4.010746e-06 -4.910219e-07
2.622712e-05 -4.010746e-06 4.910219e-07
-2.788981e-05 7.886488e-06 -3.122542e-22
2.626911e-05 1.132515e-05 9.050882e-07
2.634131e-05 -1.140219e-05 -7.974537e-07
2.637203e-05 -2.322074e-06 3.183803e-07
2.637203e-05 2.322074e-06 -3.183803e-07
-2.113750e-05 -1.617134e-05 -6.537021e-07
-2.087305e-05 1.963143e-05 -8.547335e-07
-2.650312e-05 -9.290539e-07 4.596169e-07
2.770788e-05 7.289369e-06 8.588832e-07
2.774391e-05 -7.298879e-06 -8.161342e-07
-1.228003e-05 2.485068e-05 1.274830e-06
-2.809653e-05 7.115008e-06 -3.122542e-22
2.535292e-05 7.484626e-06 4.979387e-08
2.535292e-05 -7.484626e-06 -4.979387e-08
8.475407e-06 -2.518287e-05 -5.752676e-07
2.245364e-05 -1.787786e-05 -7.994141e-07
2.245364e-05 1.787786e-05 7.994141e-07
-2.554766e-05 -6.858767e-06 2.173022e-07
-2.479204e-05 1.019080e-05 -8.992048e-07
1.859802e-05 -2.180008e-05 8.537209e-07
1.858262e-05 2.183510e-05 -8.348609e-07
-1.762553e-05 2.256141e-05 -8.810386e-07
-2.828191e-05 6.338125e-06 -3.122542e-22
1.812928e-05 1.926730e-05 -2.355567e-07
1.812928e-05 -1.926730e-05 2.355567e-07
-2.186260e-05 1.676225e-05 1.264849e-06
1.505704e-05 2.435013e-05 8.816462e-07
-2.533532e-05 -1.340069e-05 -8.473445e-07
1.468747e-05 2.314931e-05 1.240750e-06
-2.727764e-05 8.775202e-06 8.548025e-07
-3.127922e-06 2.752028e-05 1.274826e-06
3.179635e-06 2.754300e-05 1.274756e-06
1.914724e-05 -1.994536e-05 1.273455e-06
-2.844582e-05 5.556429e-06 -3.122542e-22
1.914724e-05 1.994536e-05 -1.273455e-06
4.891653e-06 -2.615083e-05 -6.373223e-07
-4.169215e-06 -2.627569e-05 -6.373188e-07
1.158264e-05 -2.618823e-05 -8.754491e-07
-2.557805e-05 1.053576e-05 -1.274059e-06
1.273627e-05 -2.571049e-05 -8.110104e-07
-1.922392e-05 2.126499e-05 8.413946e-07
1.508177e-05 -2.434253e-05 -8.747514e-07
1.077254e-05 2.422578e-05 4.425536e-07
5.316016e-06 2.597717e-05 -4.494791e-07
-2.858812e-05 4.770514e-06 -3.122542e-22
-1.666385e-06 2.858560e-05 8.766969e-07
1.665428e-06 2.858611e-05 8.762201e-07
1.466979e-05 -2.313249e-05 -1.234919e-06
-2.062162e-05 1.663774e-05 3.953444e-07
-1.424224e-05 2.484211e-05 8.756190e-07
1.415068e-05 -2.491370e-05 -8.574855e-07
-4.846099e-06 2.603909e-05 -3.621974e-07
-2.321960e-05 -1.264642e-05 1.284140e-07
-7.185282e-06 -2.659221e-05 1.264450e-06
1.178586e-05 2.614379e-05 8.283952e-07
2.788981e-05 7.886488e-06 -3.122542e-22
-2.870871e-05 3.980975e-06 -3.122542e-22
-2.692981e-05 -5.517295e-07 -1.013727e-06
-2.870721e-05 -1.108179e-06 -7.647291e-07
-2.791868e-05 -6.496763e-06 -8.433339e-07
2.547478e-05 -8.493313e-06 -9.454580e-07
2.547478e-05 8.493313e-06 9.454580e-07
1.082308e-05 -2.525272e-05 -1.253176e-06
-1.997379e-05 -1.898133e-05 1.265518e-06
-2.859583e-05 -2.768392e-06 -7.634803e-07
-1.736467e-06 2.716457e-05 1.177558e-06
-1.336750e-05 2.365128e-05 1.154374e-06
-2.880751e-05 3.188414e-06 -3.122542e-22
-6.328072e-06 -2.567011e-05 1.119096e-07
2.760253e-05 -2.136633e-06 -1.274659e-06
2.760253e-05 2.136633e-06 1.274659e-06
-2.527510e-05 -1.351733e-05 8.455399e-07
-2.520292e-05 1.357193e-05 8.863408e-07
2.241951e-05 1.795128e-05 -7.750437e-07
2.241951e-05 -1.795128e-05 7.750437e-07
-2.866832e-05 -5.499839e-07 8.330530e-07
-1.287831e-05 2.324814e-05 -5.869359e-07
2.656124e-05 7.422645e-06 1.268265e-06
-2.888442e-05 2.393432e-06 -3.122542e-22
2.656124e-05 -7.422645e-06 -1.268265e-06
2.854417e-05 2.400621e-06 -8.651432e-07
2.854214e-05 -2.357210e-06 8.711901e-07
2.613951e-05 -6.412569e-06 9.974704e-07
2.613951e-05 6.412569e-06 -9.974704e-07
-1.748298e-05 -2.270324e-05 8.544497e-07
-3.005023e-06 -2.849670e-05 8.544492e-07
7.513001e-06 -2.768593e-05 -8.170144e-07
1.539051e-05 2.258617e-05 -1.217797e-06
1.539051e-05 -2.258617e-05 1.217797e-06
-2.893941e-05 1.596632e-06 -3.122542e-22
-1.958589e-05 -1.775815e-05 1.029208e-07
9.234356e-06 2.711592e-05 8.648763e-07
-2.639344e-05 2.855936e-06 -5.265922e-07
2.772911e-05 -2.168242e-06 1.270526e-06
2.772911e-05 2.168242e-06 -1.270526e-06
-1.900560e-05 -2.026199e-05 -1.272837e-06
-2.375494e-05 -1.160060e-05 -7.978199e-08
1.970708e-06 2.747030e-05 1.263804e-06
-1.676611e-05 2.186851e-05 1.265717e-06
-8.415381e-06 2.623863e-05 1.265608e-06
-2.897241e-05 7.986190e-07 -3.122542e-22
-2.725877e-05 -1.882452e-06 1.215400e-06
1.967247e-05 1.807595e-05 8.001335e-07
1.967247e-05 -1.807595e-05 -8.001335e-07
4.590632e-06 2.612515e-05 -4.748581e-07
-2.643250e-05 8.900192e-06 1.261795e-06
-2.645112e-05 7.975516e-07 -2.725261e-07
-2.434775e-05 1.509421e-05 8.629481e-07
1.333321e-05 -2.411606e-05 -1.265772e-06
1.681283e-05 2.205179e-05 -1.274694e-06
1.684631e-05 -2.203364e-05 1.274581e-06
-2.898342e-05 -2.538750e-19 -3.122542e-22
2.103612e-05 1.948387e-05 8.337683e-07
2.103612e-05 -1.948387e-05 -8.337683e-07
-1.937249e-05 1.923589e-05 1.207783e-06
-1.696376e-05 2.308537e-05 8.618984e-07
-9.304958e-06 2.709467e-05 8.618982e-07
-2.621821e-05 1.154199e-05 8.636308e-07
4.724144e-06 2.826571e-05 -8.510428e-07
6.875550e-06 -2.552494e-05 5.236494e-08
1.244623e-05 -2.459652e-05 -1.266907e-06
-6.275446e-06 2.796539e-05 -8.476002e-07
-2.897241e-05 -7.986190e-07 -3.122542e-22
-2.261809e-05 1.435324e-05 8.819249e-07
-5.749377e-06 2.597832e-05 -6.416659e-07
-2.755411e-05 -8.173359e-06 -7.481800e-07
-2.080324e-05 -1.778370e-05 1.228688e-06
-5.738977e-06 -2.676507e-05 1.230043e-06
-2.402391e-05 1.217192e-05 -1.010671e-06
-1.839419e-05 -2.179141e-05 -9.858564e-07
8.691028e-06 2.597187e-05 1.233775e-06
-6.671210e-06 -2.795724e-05 -7.462730e-07
-2.667471e-05 -9.566331e-06 -1.108516e-06
-2.893941e-05 -1.596632e-06 -3.122542e-22
-2.428669e-05 -1.257653e-05 1.223365e-06
-2.442454e-05 1.018550e-05 -2.729524e-07
-2.858105e-05 -2.245128e-06 8.382359e-07
-5.652946e-06 -2.703057e-05 -1.271463e-06
1.432911e-05 2.485052e-05 8.187671e-07
2.852290e-05 3.602229e-06 -7.360600e-07
2.851825e-05 -3.554797e-06 7.507070e-07
2.595898e-05 5.210473e-06 -3.285606e-07
2.595898e-05 -5.210473e-06 3.285606e-07
-1.145479e-05 2.620451e-05 9.125980e-07
-2.888442e-05 -2.393432e-06 -3.122542e-22
-2.664901e-05 -6.135735e-06 -1.222310e-06
6.342651e-06 2.795832e-05 -8.386367e-07
-2.014051e-05 1.721433e-05 3.899588e-07
2.100640e-05 -1.791412e-05 1.270879e-06
2.100640e-05 1.791412e-05 -1.270879e-06
-2.538846e-05 -1.052654e-05 1.254983e-06
-1.974308e-05 2.088110e-05 -7.535116e-07
1.022212e-05 -2.547535e-05 -1.248318e-06
-1.679960e-06 2.862385e-05 -8.336173e-07
-1.424951e-05 2.488169e-05 -8.336170e-07
-2.880751e-05 -3.188414e-06 -3.122542e-22
-7.895101e-07 2.867630e-05 8.170725e-07
-4.703459e-06 2.828025e-05 -8.386721e-07
1.285336e-05 -2.316231e-05 -3.736311e-07
7.887178e-07 2.867646e-05 8.168987e-07
-3.144756e-06 2.767505e-05 -1.266647e-06
-1.259908e-05 2.482689e-05 -1.267993e-06
-1.502509e-05 2.443820e-05 8.165376e-07
-2.720088e-05 3.652019e-06 -1.247326e-06
2.423916e-05 -1.541504e-05 7.686928e-07
2.428658e-05 1.535591e-05 -7.574691e-07
2.766192e-05 8.651979e-06 -3.122542e-22
-2.870871e-05 -3.980975e-06 -3.122542e-22
-2.721751e-05 1.952204e-06 -1.203317e-06
-2.778814e-05 6.864487e-07 -1.271828e-06
-2.551992e-05 7.270571e-06 -4.990375e-07
-2.757516e-05 7.950282e-06 8.034574e-07
3.917180e-06 -2.614280e-05 4.988021e-08
-3.195345e-06 -2.624081e-05 4.988149e-08
2.500421e-05 -1.167768e-05 -1.269960e-06
2.500421e-05 1.167768e-05 1.269960e-06
1.223724e-05 2.592539e-05 -8.390579e-07
7.729157e-06 -2.636390e-05 1.253026e-06
-2.858812e-05 -4.770514e-06 -3.122542e-22
-1.741887e-05 -2.074496e-05 -1.113766e-06
-2.822014e-06 -2.718835e-05 1.218742e-06
-8.761056e-06 -2.732191e-05 -8.109906e-07
-2.200304e-05 1.660275e-05 -1.266677e-06
-2.162880e-05 -1.519655e-05 7.629070e-09
-9.949788e-06 -2.518930e-05 -1.110961e-06
-2.204335e-05 -1.687275e-05 1.273849e-06
[...]
POINT_DATA 2824
VECTORS 10.000GHz_fone_imag double
8.002461e-07 1.562110e-04 1.759293e-02
-4.226107e-04 -4.050470e-05 1.745332e-02
3.851445e-04 -3.863158e-05 1.763174e-02
-1.102604e-03 -3.026085e-04 -2.479218e-02
-1.650448e-02 -1.270988e-02 -5.544806e-03
1.664306e-02 -1.260461e-02 -5.611632e-03
1.251342e-02 1.513408e-02 -1.066392e-02
1.307903e-02 1.484434e-02 -1.125280e-02
-1.254601e-02 1.524538e-02 -1.071419e-02
-1.310438e-02 1.486917e-02 -1.128970e-02
2.022149e-02 2.103350e-03 -6.277707e-03
1.212048e-02 5.826049e-03 1.284410e-02
1.438997e-02 1.483773e-02 -7.056880e-03
1.027688e-04 -1.381745e-04 1.752375e-02
7.600771e-03 1.880253e-02 -9.520524e-03
-9.546947e-03 -9.728046e-03 1.231362e-02
-4.999350e-03 1.993976e-02 -9.178961e-03
-1.561725e-02 -1.056893e-03 1.008211e-02
1.563094e-02 -1.059845e-03 1.009324e-02
1.200368e-02 1.481492e-02 -1.274212e-02
-7.619011e-03 1.067877e-02 1.280690e-02
8.136520e-03 1.037633e-02 1.307719e-02
1.117732e-02 -5.763514e-03 1.323573e-02
-1.117494e-02 -5.767763e-03 1.320333e-02
2.005831e-04 -1.317789e-04 1.756516e-02
1.130895e-02 4.224762e-03 1.342881e-02
-1.163893e-02 4.368673e-03 1.314532e-02
8.349615e-03 1.684455e-02 -1.248580e-02
2.047610e-02 1.011795e-04 -9.749467e-03
-5.622288e-03 -1.389773e-02 1.099210e-02
-1.453959e-02 1.499557e-02 -5.162903e-03
9.502776e-06 2.083279e-02 -6.668930e-03
1.112801e-02 1.776228e-02 -6.801890e-03
-1.814015e-02 -1.019478e-02 -6.237770e-03
1.202126e-02 -1.650871e-02 -7.740487e-03
1.359980e-04 8.324063e-05 1.752725e-02
1.301234e-02 2.784787e-03 1.281022e-02
-1.171602e-02 -1.676275e-02 -7.948165e-03
4.020488e-03 -1.002842e-03 -2.457030e-02
-8.414802e-03 9.918448e-03 1.299878e-02
-3.540642e-03 4.260801e-03 -2.421479e-02
-3.114306e-03 4.403600e-03 -2.401664e-02
3.528484e-03 4.523374e-03 -2.414602e-02
3.629833e-03 4.610350e-03 -2.397470e-02
3.548004e-04 2.011929e-02 -9.058638e-03
-7.702940e-03 1.844150e-02 -9.302854e-03
1.527692e-04 -1.359347e-04 1.775119e-02
-1.128342e-02 1.661715e-02 -9.040655e-03
-7.561323e-03 -1.951195e-02 -5.934735e-03
-2.021750e-02 6.193786e-03 -4.427788e-03
2.027594e-02 6.219831e-03 -4.510864e-03
-7.816042e-03 1.139735e-02 1.192757e-02
-4.605018e-03 1.227042e-02 1.295217e-02
4.555069e-04 1.297015e-02 1.319219e-02
-3.289211e-03 1.187662e-02 1.323761e-02
9.379973e-03 2.060550e-03 -2.232079e-02
-9.280304e-03 2.007806e-03 -2.236854e-02
1.968226e-04 -2.081144e-04 1.760572e-02
-1.174715e-02 -4.987419e-03 1.302907e-02
1.044220e-02 -4.380308e-03 1.408566e-02
-4.731441e-03 -9.074301e-05 -2.377275e-02
4.741621e-03 -1.001941e-04 -2.373842e-02
-9.311408e-03 -7.259330e-03 -2.095281e-02
-9.061892e-03 8.675765e-03 1.360409e-02
8.972482e-03 5.458364e-04 -2.297956e-02
-1.196057e-02 -3.070641e-03 1.369682e-02
1.054063e-02 -3.194774e-03 1.410892e-02
9.248250e-03 -1.881788e-02 -7.207095e-04
-4.334395e-05 -1.548069e-04 1.751701e-02
-1.088292e-03 1.060438e-05 -2.406371e-02
8.151976e-04 -2.295748e-04 -2.408635e-02
3.328766e-03 -1.014168e-02 -2.148617e-02
8.934896e-03 -7.402237e-03 1.399695e-02
-8.913913e-03 -7.374709e-03 1.395587e-02
3.818593e-03 4.656241e-04 -2.412807e-02
-1.510150e-02 6.258248e-03 -1.683635e-02
-8.150699e-03 8.959427e-03 1.355003e-02
8.071667e-03 8.819252e-03 1.362273e-02
-7.772357e-03 1.018404e-02 1.290725e-02
6.569479e-04 -2.906673e-04 1.784873e-02
2.921172e-03 2.572321e-03 -2.435292e-02
-2.934270e-03 2.545657e-03 -2.435748e-02
1.661746e-02 -1.271551e-02 -3.325654e-03
-7.204607e-03 -1.129198e-02 1.272413e-02
-1.046497e-02 -5.994836e-03 1.348014e-02
-1.082681e-02 -1.761815e-02 -6.239835e-03
1.220699e-02 -3.436452e-03 1.323648e-02
2.066860e-03 -2.085005e-02 -1.107018e-03
-2.516157e-03 -2.085304e-02 -5.319462e-04
-1.411230e-02 1.513311e-02 -2.744011e-03
3.240626e-04 3.584237e-06 1.814108e-02
1.412347e-02 1.511805e-02 -2.723746e-03
2.111337e-03 -1.121560e-02 -2.123991e-02
-1.989970e-03 -1.146802e-02 -2.136300e-02
5.151834e-03 -1.163376e-02 1.328306e-02
-1.949371e-02 8.041994e-03 -1.811502e-03
5.199521e-03 -1.042926e-02 1.399366e-02
8.189764e-03 -8.739118e-03 1.378932e-02
7.114852e-03 -1.104153e-02 1.306761e-02
-3.319811e-03 -7.164990e-03 -2.320980e-02
1.542589e-03 8.680127e-03 -2.278450e-02
2.051592e-05 2.840526e-04 1.781449e-02
1.183571e-03 -1.362873e-02 1.212978e-02
-1.125054e-03 -1.297227e-02 1.310874e-02
1.060954e-02 -1.778050e-02 -6.687276e-03
5.713410e-03 -4.928979e-03 -2.319562e-02
6.636254e-03 -1.206875e-02 1.211575e-02
6.204965e-03 -1.086004e-02 1.348328e-02
-1.337054e-03 6.518120e-03 -2.390368e-02
2.667368e-03 1.639776e-03 -2.485528e-02
5.636056e-03 2.039892e-02 -3.856448e-03
-4.739901e-03 -1.140705e-02 1.350593e-02
-1.906598e-04 -7.104551e-05 1.736694e-02
-2.007510e-04 -1.370744e-04 1.758532e-02
-1.765556e-02 -6.081137e-04 -1.476398e-02
-1.118005e-02 -5.524218e-04 1.441668e-02
-1.192011e-02 -2.953040e-03 1.368369e-02
1.577199e-02 -5.330388e-03 -1.623023e-02
-1.570368e-02 -5.314077e-03 -1.619955e-02
8.194458e-03 -1.926585e-02 -5.135960e-03
1.550733e-02 1.436351e-02 -3.406170e-03
-1.101416e-02 -5.467672e-04 1.403207e-02
1.844798e-03 -2.013285e-02 -9.228363e-03
9.313908e-03 -1.735884e-02 -1.029081e-02
2.593827e-04 6.821877e-05 1.773560e-02
1.925010e-04 1.977122e-03 -2.453312e-02
2.077566e-02 -1.541451e-03 -1.391565e-03
-2.078703e-02 -1.526979e-03 -1.417318e-03
1.095952e-02 5.881202e-03 1.379326e-02
1.150160e-02 -6.036546e-03 1.326825e-02
8.868805e-03 6.939058e-03 1.420223e-02
-8.871640e-03 6.954937e-03 1.418715e-02
1.220677e-02 2.877834e-04 1.368359e-02
-5.433559e-03 9.880265e-03 -2.159996e-02
-2.015715e-02 -5.552310e-03 -2.993839e-03
-1.791195e-04 1.735245e-04 1.759595e-02
2.070566e-02 -5.799600e-03 -2.858189e-03
1.296428e-02 1.103385e-03 1.341894e-02
-1.305023e-02 1.169427e-03 1.337289e-02
-1.575689e-02 3.862144e-03 -1.492926e-02
1.693899e-02 3.864191e-03 -1.529239e-02
7.600723e-03 1.068614e-02 1.271588e-02
7.375520e-04 1.334611e-02 1.220746e-02
3.475680e-03 -1.162008e-02 1.357800e-02
1.146263e-02 1.674985e-02 -7.736413e-03
-1.197882e-02 1.656292e-02 -6.978593e-03
-2.069663e-04 -1.798645e-04 1.748386e-02
1.954266e-03 1.046974e-03 -2.443020e-02
-4.133113e-03 -1.178890e-02 1.345020e-02
-9.429430e-03 9.636627e-04 -2.250917e-02
-2.042699e-02 1.760232e-03 6.355654e-04
2.039711e-02 1.697508e-03 6.547039e-04
-1.435424e-02 -1.476469e-02 5.665842e-04
-1.059114e-03 -5.361047e-04 -2.456051e-02
-1.375956e-03 -2.124888e-02 -3.808761e-03
1.270027e-02 -1.669541e-02 -3.376456e-03
6.344189e-03 -2.004135e-02 -3.206368e-03
2.124052e-04 -8.792371e-05 1.734482e-02
2.043503e-02 1.714378e-03 -7.358163e-03
-1.028994e-02 -9.355038e-03 -1.905548e-02
1.027681e-02 -9.356400e-03 -1.906323e-02
1.980436e-03 8.834858e-03 -2.270152e-02
1.921221e-02 -5.845579e-03 2.282895e-03
-5.148879e-03 2.749530e-05 -2.444990e-02
1.077787e-02 -6.533862e-03 1.348834e-02
1.011265e-02 -1.855396e-02 -3.421326e-03
1.259559e-02 1.627567e-02 -5.663004e-04
-1.267821e-02 1.583139e-02 4.300426e-06
1.926465e-04 4.253924e-05 1.752612e-02
-8.912747e-03 -8.144017e-03 1.376274e-02
8.909089e-03 -8.141664e-03 1.377689e-02
1.469139e-02 -1.454463e-02 -7.766416e-03
7.373290e-03 -1.001829e-02 1.338293e-02
3.801004e-03 -1.236298e-02 1.297064e-02
1.180331e-02 -5.464722e-03 1.310137e-02
2.272231e-03 1.308839e-02 1.249891e-02
-8.255928e-04 1.108138e-03 -2.479181e-02
9.421112e-03 -1.871937e-02 -3.103333e-03
-3.076431e-03 1.277583e-02 1.280552e-02
7.836781e-05 -1.181225e-05 1.746064e-02
1.308902e-02 -8.432755e-03 -1.744613e-02
-2.031374e-03 1.139940e-02 -2.073651e-02
-1.019202e-02 -3.769266e-03 1.433228e-02
1.554923e-02 1.376415e-02 -6.582781e-03
3.863314e-03 2.046952e-02 -6.098341e-03
-1.584932e-02 8.275974e-03 -1.423199e-02
-9.587588e-03 -1.160302e-02 1.114410e-02
-6.485680e-03 -1.978102e-02 -6.475161e-03
-2.045553e-03 -1.095535e-02 1.427593e-02
-1.613453e-02 -5.850078e-03 8.817232e-03
-4.465025e-05 -5.359861e-05 1.723824e-02
1.841862e-02 9.746238e-03 -7.129741e-03
-4.643418e-03 1.847859e-03 -2.380855e-02
1.236261e-02 8.639689e-04 1.358612e-02
-4.299590e-03 -2.064051e-02 -2.040920e-03
-6.006143e-03 -1.059346e-02 1.366519e-02
1.073232e-02 1.359101e-03 1.445715e-02
-1.077116e-02 1.424325e-03 1.456703e-02
6.375376e-03 1.199076e-03 -2.355954e-02
-6.579861e-03 1.497510e-03 -2.346330e-02
5.312187e-03 -1.256311e-02 1.281475e-02
2.557232e-04 4.355019e-04 1.740008e-02
-2.027822e-02 -4.598589e-03 -6.964505e-03
2.811460e-03 1.197593e-02 1.339620e-02
4.862750e-03 -4.201877e-03 -2.378449e-02
-1.616382e-02 1.277334e-02 -2.719390e-03
1.616844e-02 1.277909e-02 -2.698933e-03
1.933952e-02 7.892661e-03 -4.521338e-03
-7.587989e-03 7.621658e-03 1.426320e-02
7.704611e-03 -1.949545e-02 -5.378309e-03
-8.273597e-04 1.291393e-02 1.310518e-02
-6.291836e-03 1.159484e-02 1.269403e-02
-5.008090e-04 5.655828e-04 1.742218e-02
3.578880e-04 -1.235622e-02 1.364069e-02
-2.390601e-03 1.178769e-02 1.342398e-02
3.200786e-03 -5.994676e-03 -2.374414e-02
-4.800044e-04 -1.280119e-02 1.305559e-02
-2.712749e-03 1.987271e-02 1.761819e-03
-9.050609e-03 1.810819e-02 1.189846e-03
6.506880e-03 -1.043760e-02 1.372559e-02
-2.071822e-02 2.976326e-03 -5.284254e-03
-9.439457e-03 5.928006e-03 1.424541e-02
9.393750e-03 5.814784e-03 1.433869e-02
5.859903e-05 3.060403e-05 1.744930e-02
-8.829810e-04 -1.463470e-05 1.800516e-02
-2.039801e-02 1.203517e-03 -8.124747e-03
-2.055038e-02 6.891325e-04 3.936769e-04
-8.348576e-03 2.575632e-03 -2.300885e-02
1.144926e-02 -3.102511e-03 1.382952e-02
-2.813337e-05 2.477789e-04 -2.445557e-02
1.483381e-04 6.474537e-04 -2.477444e-02
1.924335e-02 -8.827972e-03 -2.910100e-03
-1.923767e-02 -8.819991e-03 -2.920671e-03
5.381240e-03 1.109967e-02 1.363202e-02
-6.052815e-03 2.025882e-02 -4.606080e-03
-3.184699e-04 -9.148182e-04 1.742982e-02
-1.234764e-02 -1.475890e-02 -1.185718e-02
1.345402e-03 2.027324e-02 -7.126973e-03
-3.797963e-03 -1.089548e-02 1.389612e-02
-1.671621e-02 1.275604e-02 -3.849701e-03
-2.086211e-04 -2.499941e-04 -2.468402e-02
-7.058978e-03 -1.780136e-02 -1.206505e-02
1.655470e-02 1.275299e-02 -4.828872e-04
2.242936e-04 3.295421e-04 -2.500387e-02
3.704029e-05 6.318524e-04 -2.506391e-02
2.356642e-03 -1.130747e-02 1.394192e-02
-3.551625e-04 -2.767118e-04 1.743185e-02
-1.800910e-03 -1.143322e-02 1.410256e-02
2.084410e-02 -1.566183e-03 -4.264513e-03
-4.672257e-03 1.007479e-02 1.445082e-02
6.069332e-04 -7.647250e-03 -2.348127e-02
-9.224364e-03 -6.259544e-04 -2.247319e-02
9.261309e-03 -6.705976e-04 -2.247694e-02
9.162101e-03 6.433174e-03 1.451648e-02
5.422606e-03 -3.153141e-03 -2.367161e-02
-3.371068e-03 -1.168545e-02 1.361006e-02
-8.393961e-03 -7.666562e-03 1.399326e-02
1.010284e-04 8.085524e-05 1.755948e-02
2.180178e-03 3.287260e-04 -2.419403e-02
-1.594471e-02 5.308313e-04 1.034988e-02
1.600756e-02 5.612342e-04 1.032804e-02
8.666394e-03 -2.129847e-03 -2.300377e-02
-1.074158e-02 3.341909e-03 1.446594e-02
1.721924e-03 1.177456e-02 1.369625e-02
-3.264235e-03 1.099120e-02 1.460342e-02
9.295361e-03 8.103449e-03 1.337691e-02
-1.468307e-02 -3.612814e-03 -1.809200e-02
2.349793e-03 1.211352e-02 1.346246e-02
-6.643456e-05 7.749679e-05 1.747885e-02
-2.077359e-03 1.182425e-02 1.372043e-02
8.134609e-03 9.083798e-03 1.367723e-02
4.223361e-03 1.135265e-02 1.351397e-02
8.050482e-03 1.950790e-02 -4.785302e-03
3.545569e-03 2.049484e-02 -4.679963e-04
1.995092e-02 6.848797e-03 -3.395139e-03
5.947549e-04 2.229725e-04 -2.482386e-02
3.246927e-03 1.103393e-02 1.406911e-02
2.021095e-02 -3.571998e-03 -6.099294e-04
-1.389230e-02 -2.904817e-04 -1.916797e-02
-4.093070e-04 -5.897857e-05 1.738044e-02
1.390180e-02 -2.807709e-04 -1.917606e-02
3.397392e-03 2.031961e-02 -1.847876e-03
-3.662755e-03 2.080430e-02 -2.461779e-03
1.342930e-02 1.590657e-02 -2.477254e-03
8.750778e-03 1.449472e-02 -1.598399e-02
-9.096343e-05 1.656893e-02 -1.612315e-02
-6.322062e-03 1.041686e-02 1.385992e-02
-5.210122e-04 1.204687e-02 1.387825e-02
1.006810e-02 3.742328e-03 1.444532e-02
-4.368406e-03 2.035297e-02 -5.508300e-04
1.696934e-04 -3.160162e-04 1.682136e-02
2.712556e-03 2.037522e-02 -6.809376e-03
-9.025479e-03 7.504313e-03 1.407604e-02
-1.067822e-02 1.813810e-03 1.436386e-02
1.072136e-02 1.734780e-03 1.442350e-02
8.736610e-03 7.047427e-03 -2.131481e-02
1.253014e-03 1.002717e-02 -2.206153e-02
2.855714e-03 -1.093283e-02 1.306969e-02
8.323909e-03 -9.873105e-03 1.304891e-02
-8.347241e-04 -7.229547e-03 -2.343475e-02
-9.434495e-03 1.820939e-02 -5.672610e-04
4.124130e-04 6.342011e-06 1.737721e-02
8.128230e-04 -1.795144e-03 -2.477908e-02
1.418621e-03 -1.572349e-03 -2.437949e-02
-2.488388e-04 -2.049578e-03 -2.446289e-02
5.516182e-03 1.988242e-02 -4.429383e-04
3.899563e-03 2.030160e-02 -2.061914e-03
-1.051925e-02 1.751414e-03 1.477298e-02
-4.556273e-03 1.090510e-02 1.387939e-02
-8.745441e-04 -2.083421e-02 -5.259776e-03
-1.134948e-02 -1.741892e-02 -5.342200e-03
6.813276e-03 -9.029299e-03 -2.050264e-02
5.317289e-04 1.141545e-04 1.752622e-02
3.575264e-03 -1.124967e-02 -2.109517e-02
-3.473155e-03 2.040136e-02 -6.417599e-03
-7.187544e-03 9.866374e-03 1.334227e-02
7.065444e-03 1.045914e-02 1.350310e-02
9.666287e-04 1.249932e-02 -2.069633e-02
7.112196e-03 1.029573e-02 -2.063524e-02
-4.724730e-03 1.422477e-02 -1.887701e-02
1.532603e-02 -1.372913e-02 -1.639186e-03
-2.304407e-03 1.120845e-02 -2.124764e-02
2.138145e-03 1.167753e-02 -2.097198e-02
2.249526e-04 2.978119e-04 1.752582e-02
-5.435303e-03 -9.648073e-03 -2.154778e-02
1.627160e-04 -1.133268e-02 1.419181e-02
-5.584374e-03 -9.629023e-03 1.422906e-02
1.992555e-02 2.927178e-04 3.192139e-03
4.492767e-03 -1.066073e-02 1.400903e-02
6.849804e-03 -9.433328e-03 1.389292e-02
-5.745182e-03 2.051937e-02 -9.718072e-04
2.084998e-02 -4.395754e-03 -9.276958e-04
-2.079124e-02 -4.113274e-03 -1.358820e-03
1.246163e-04 -8.407492e-05 -2.464545e-02
-1.220366e-04 1.270549e-04 1.754859e-02
9.819422e-07 2.529213e-05 1.737799e-02
-8.688622e-05 -1.300112e-04 -2.452985e-02
-9.703870e-03 5.234877e-03 1.441559e-02
8.958458e-03 -3.188656e-03 -2.237365e-02
5.662765e-03 8.958454e-03 1.470430e-02
9.369686e-05 1.068512e-02 1.475494e-02
1.368784e-02 -1.573921e-02 -5.647915e-03
1.867605e-02 -9.612383e-04 -1.296075e-02
-7.010550e-03 7.670831e-03 -2.190615e-02
5.440331e-03 1.014718e-02 1.413020e-02
8.760450e-03 -7.968893e-03 1.395896e-02
2.655206e-04 9.376243e-05 1.748382e-02
-4.886675e-03 9.334061e-03 1.456646e-02
8.653609e-03 -7.216263e-03 1.418298e-02
-5.305509e-03 -9.114617e-03 -2.180131e-02
-4.511058e-03 -3.207079e-04 -2.405448e-02
4.608896e-03 -3.175201e-04 -2.398447e-02
2.019446e-02 5.340522e-03 -6.105515e-03
-7.187612e-03 -8.795188e-03 1.427951e-02
7.279649e-03 -8.868803e-03 1.419620e-02
1.260784e-02 1.643642e-02 -5.179075e-03
-6.458690e-03 -1.995995e-02 -5.466105e-04
-1.706589e-04 1.650116e-04 1.754404e-02
3.633453e-03 -1.366482e-02 -1.913302e-02
3.339885e-03 5.597252e-03 -2.376954e-02
-1.560752e-02 -1.371555e-02 -7.111255e-04
1.138980e-02 -1.619527e-03 1.426715e-02
2.884642e-03 1.094354e-02 1.411415e-02
9.950688e-03 1.829063e-02 -7.866246e-04
1.112808e-02 3.769604e-03 -2.017133e-02
-1.694752e-03 -5.606435e-03 -2.362290e-02
1.053092e-02 4.319631e-03 -2.121709e-02
-5.106522e-04 2.347720e-04 -2.470593e-02
-1.831229e-04 -3.774559e-04 1.716667e-02
-1.763274e-02 -1.133305e-02 -2.313420e-03
1.759030e-02 -1.138365e-02 -2.257915e-03
-1.628383e-02 3.066417e-03 -1.747854e-02
-1.803179e-02 -1.059710e-02 -4.460326e-03
8.233050e-03 -3.361964e-03 -2.279275e-02
-1.657519e-02 5.208626e-03 -1.547640e-02
1.654361e-02 5.275941e-03 -1.549074e-02
-2.021572e-02 3.406255e-03 -1.205533e-03
-4.411651e-03 -1.228272e-02 -1.983832e-02
4.607054e-03 9.050635e-03 1.478827e-02
-3.719131e-04 -8.039291e-05 1.722846e-02
-1.199611e-03 1.015188e-02 1.477158e-02
8.387224e-03 5.662714e-03 1.471927e-02
-3.284833e-03 1.149566e-02 -2.078028e-02
-3.020171e-05 -9.802884e-04 -2.482211e-02
-3.206491e-04 -5.776930e-04 -2.489239e-02
-5.212509e-03 1.070305e-02 -2.088997e-02
-2.481040e-03 -1.060370e-02 -2.161443e-02
-1.152227e-02 6.763119e-04 1.415318e-02
2.038737e-02 4.745962e-03 -4.554104e-03
-1.023764e-02 7.102729e-03 1.338074e-02
-6.755425e-05 1.648601e-06 1.750017e-02
1.018051e-02 7.025398e-03 1.336530e-02
-1.949216e-02 5.835649e-03 2.206788e-03
-1.988201e-02 -6.745957e-03 -6.976161e-04
-9.911620e-03 -1.857932e-02 -4.412879e-03
1.202389e-03 -2.094904e-02 -4.327444e-03
7.974513e-04 1.178088e-02 1.372213e-02
-3.166150e-03 1.094815e-02 1.400620e-02
1.296439e-02 -1.604212e-02 2.701483e-04
5.096269e-03 -2.048014e-02 8.285323e-04
-6.249446e-03 -8.021220e-03 1.512107e-02
-1.198907e-04 -3.886669e-05 1.737191e-02
2.763167e-03 -9.589184e-03 -2.335339e-02
-6.415110e-03 -1.303138e-02 -1.898752e-02
-2.060991e-02 -3.213841e-03 -3.656829e-03
-2.004351e-02 6.810412e-03 -2.654416e-03
9.643733e-03 4.780896e-03 -2.156654e-02
-9.638105e-03 4.773434e-03 -2.155979e-02
2.042497e-02 -3.754723e-03 -4.293372e-03
3.274031e-03 1.093697e-02 -2.169987e-02
-1.022570e-02 -1.777712e-02 -2.253414e-03
9.505929e-03 9.441448e-03 -1.942922e-02
-7.627548e-05 -1.892245e-04 1.731854e-02
1.883492e-02 1.529944e-03 -1.192356e-02
4.309701e-03 1.281722e-02 -1.958029e-02
-5.036606e-03 9.199972e-03 -2.188746e-02
4.044739e-03 1.067411e-02 1.380733e-02
-1.693522e-02 1.196649e-02 2.081412e-04
1.688986e-02 1.201212e-02 1.572845e-04
1.694505e-02 -1.185472e-02 -6.420094e-04
-3.868213e-03 1.382105e-03 -2.430644e-02
6.172043e-03 -8.183980e-03 1.532937e-02
1.993588e-02 3.657189e-03 -3.546252e-03
-2.424054e-04 7.441024e-05 1.761135e-02
5.335097e-03 3.560121e-03 -2.388495e-02
-8.893314e-03 -6.414342e-03 1.465855e-02
8.661139e-03 -6.301534e-03 1.451687e-02
2.045401e-02 2.731195e-03 3.693564e-04
-2.046438e-02 2.720307e-03 5.057615e-04
-9.143045e-03 5.779249e-03 1.460359e-02
4.261042e-04 -1.055226e-02 1.432035e-02
-5.112298e-03 -9.292024e-03 1.426986e-02
8.108575e-03 9.178369e-03 -2.065819e-02
7.804998e-03 -8.192408e-03 1.422839e-02
-3.862802e-04 -3.943642e-04 1.752632e-02
1.815891e-02 1.082763e-02 -2.441196e-03
2.753829e-03 1.056959e-04 -2.518709e-02
-9.080815e-03 8.788266e-03 -2.041825e-02
9.075811e-03 8.787964e-03 -2.042417e-02
-1.512366e-02 -6.593078e-03 -1.679369e-02
-9.330795e-03 6.801360e-03 1.399689e-02
-1.154597e-02 1.615490e-02 2.653539e-03
3.920379e-03 1.157216e-02 -2.068785e-02
-6.815858e-04 -1.385696e-03 -2.455141e-02
-1.055935e-02 1.721313e-02 2.109505e-03
-2.349769e-04 -3.214377e-04 1.733664e-02
-8.522756e-05 -1.691559e-04 1.741720e-02
1.023920e-02 1.716821e-02 2.378868e-03
2.771540e-03 -3.617074e-03 -2.404867e-02
-1.313634e-03 2.076386e-02 1.819817e-04
9.903697e-03 1.825741e-02 5.606844e-05
-8.246996e-03 -1.862722e-02 1.827924e-03
8.543969e-03 -6.186856e-03 1.465843e-02
-6.222208e-04 5.953815e-03 -2.390049e-02
2.823435e-03 5.702608e-03 -2.387282e-02
-1.134119e-02 -2.047479e-03 1.392302e-02
9.871856e-03 2.996388e-03 1.477823e-02
2.379279e-04 -4.443717e-05 1.747940e-02
-1.006663e-02 3.111043e-03 1.462443e-02
4.337373e-03 1.039996e-02 1.428531e-02
2.443122e-03 -4.718587e-03 -2.366880e-02
-1.635070e-02 1.040498e-02 4.049490e-03
1.637914e-02 1.040436e-02 4.010454e-03
-3.338644e-03 -1.994398e-02 2.451288e-03
7.778207e-03 -1.805894e-02 -1.078527e-02
-5.770842e-04 -2.083175e-02 -7.060953e-03
7.216178e-03 -1.979080e-02 -7.180227e-03
1.200229e-02 -1.691391e-02 -7.192787e-03
5.116088e-05 1.341614e-04 1.739268e-02
-2.239518e-03 -1.128196e-02 -2.125418e-02
9.008222e-04 -1.942304e-02 -1.127911e-02
9.760667e-03 -1.651539e-02 -1.168538e-02
-9.329767e-03 -7.282189e-03 -2.098618e-02
-9.135412e-03 4.702893e-03 1.478395e-02
-8.808050e-03 4.881227e-03 1.475830e-02
9.135243e-03 4.702116e-03 1.478528e-02
8.807686e-03 4.875297e-03 1.478599e-02
1.601131e-02 -1.376395e-02 -2.027363e-03
5.835721e-03 -1.964710e-02 1.377844e-03
6.778538e-04 2.057135e-04 1.725957e-02
3.826735e-03 -6.168858e-03 -2.357501e-02
6.257267e-03 1.971463e-02 1.150915e-03
2.032165e-02 -4.310128e-03 -5.933532e-03
-2.088893e-02 -2.950574e-03 -2.001052e-03
-1.949924e-02 -7.796350e-03 -1.027466e-03
1.631776e-02 -3.224689e-03 -1.667005e-02
-1.639645e-02 -2.849571e-03 -1.662655e-02
-5.962458e-03 -1.012084e-03 -2.383546e-02
1.095922e-02 -1.298863e-03 1.429033e-02
-1.991867e-02 6.291472e-04 -1.006918e-02
-6.189734e-05 2.853645e-04 1.765836e-02
-4.672002e-03 1.021658e-02 1.437786e-02
2.885931e-03 -2.623725e-03 -2.397131e-02