# vtk DataFile Version 2.0
Electric current density generated by TTH
ASCII
DATASET UNSTRUCTURED_GRID
POINTS 2154 double
2.601910e-05 -6.372840e-21 -3.603785e-22
2.470247e-05 8.171992e-06 -3.603785e-22
-2.423252e-05 -9.475129e-06 -3.603785e-22
1.560145e-05 1.728826e-05 -7.587387e-07
1.326503e-05 -2.196421e-05 -9.642831e-07
-2.498306e-05 6.338989e-06 8.120425e-07
-1.481506e-05 2.109164e-05 8.118304e-07
-2.002405e-05 1.622497e-05 8.156538e-07
-7.110881e-06 2.347600e-05 -1.471241e-06
-2.814712e-06 -2.436480e-05 -1.471208e-06
-2.576061e-05 -9.148401e-07 8.088158e-07
1.721594e-05 -1.913832e-05 -8.590814e-07
7.017283e-06 2.478010e-05 8.417555e-07
-2.388098e-05 -1.032919e-05 -3.603785e-22
1.696976e-05 1.591552e-05 -7.213608e-07
-1.939585e-06 2.425713e-05 -1.455830e-06
-2.065973e-05 -1.028930e-05 1.054268e-07
2.315065e-05 6.726276e-06 -1.404107e-06
-2.078894e-05 -1.286409e-05 1.467917e-06
-2.423407e-05 -8.496451e-06 -9.392047e-07
-2.571145e-05 -1.321969e-07 -8.999292e-07
1.524365e-05 1.767594e-05 8.419965e-07
5.253066e-06 2.271748e-05 8.062118e-07
1.594548e-05 1.875324e-05 -1.469777e-06
-2.349934e-05 -1.117024e-05 -3.603785e-22
1.010768e-05 -2.364702e-05 8.935935e-07
-2.286912e-05 -8.491356e-06 1.463373e-06
7.245746e-06 -2.205274e-05 -6.182716e-07
9.575151e-07 2.570241e-05 8.888997e-07
2.133077e-05 -1.435676e-05 8.993762e-07
2.143784e-05 1.428611e-05 -8.311299e-07
-2.306054e-05 -1.663781e-06 -3.575284e-07
-2.238112e-05 1.161146e-05 1.311917e-06
1.885829e-05 1.560221e-05 1.469596e-06
-2.514391e-05 2.139777e-06 1.301096e-06
-2.308810e-05 -1.199721e-05 -3.603785e-22
1.184474e-05 -2.134965e-05 1.465381e-06
-2.422076e-05 8.609924e-06 9.079263e-07
-9.356716e-06 2.343468e-05 1.301747e-06
-1.688513e-05 1.874100e-05 1.305888e-06
-2.538449e-05 -4.050385e-06 -9.078850e-07
-2.620825e-07 -2.314944e-05 -4.623799e-07
1.999072e-05 1.152782e-05 -1.557578e-09
-2.463766e-05 -6.922793e-08 1.468601e-06
-2.193803e-05 -7.159304e-06 -2.906867e-08
-2.549477e-05 -3.293096e-06 9.066456e-07
-2.264776e-05 -1.280907e-05 -3.603785e-22
-1.276267e-05 2.231448e-05 9.067898e-07
-7.056399e-06 2.362043e-05 1.467664e-06
-2.072167e-06 2.567015e-05 8.430071e-07
2.666400e-06 2.343482e-05 1.113551e-06
-1.850908e-05 -1.422014e-05 -8.417100e-07
-1.550731e-05 1.709446e-05 1.064007e-07
4.360090e-06 -2.538320e-05 -8.411526e-07
-6.114523e-06 2.493318e-05 9.491932e-07
2.458368e-05 8.807955e-07 1.470448e-06
2.457101e-05 -8.680740e-07 -1.470850e-06
-2.217889e-05 -1.360478e-05 -3.603785e-22
-2.436222e-05 -6.541765e-06 1.306097e-06
-1.028815e-05 2.249646e-05 -1.459088e-06
-1.360534e-05 -1.864176e-05 -8.022397e-08
-1.628331e-05 -1.999910e-05 -7.888880e-07
-2.048412e-05 1.063536e-05 1.101810e-07
-2.104211e-05 -1.397621e-05 1.287057e-06
-2.415394e-05 8.953502e-06 -8.338377e-07
-2.317228e-07 2.452036e-05 -1.471122e-06
1.719914e-05 1.915996e-05 8.522709e-07
-4.792219e-06 2.530002e-05 -8.483719e-07
-2.168207e-05 -1.438336e-05 -3.603785e-22
-1.448853e-06 -2.570292e-05 -8.570358e-07
-2.511900e-05 -5.666838e-06 -8.478060e-07
-1.989119e-05 1.180547e-05 -3.960328e-07
-1.454852e-05 1.798230e-05 -3.955657e-07
-1.111733e-05 -2.056318e-05 8.899601e-07
2.313891e-06 -2.320806e-05 -8.155987e-07
-1.002820e-05 2.376165e-05 -7.867247e-07
-1.953719e-05 1.679157e-05 -8.315658e-07
1.334211e-05 2.085475e-05 -1.456332e-06
-9.435623e-06 -2.139535e-05 8.997977e-07
-2.115794e-05 -1.514381e-05 -3.603785e-22
5.842114e-06 -2.248791e-05 -6.633051e-07
-2.062297e-05 -1.138494e-05 1.087644e-06
-1.665173e-05 -1.959471e-05 8.964795e-07
8.598584e-06 -2.141868e-05 -1.058341e-07
-1.871637e-05 1.593225e-05 1.471019e-06
-2.123611e-05 1.463683e-05 7.858638e-07
-2.275808e-05 4.176540e-06 -4.218064e-07
6.728319e-06 -2.482304e-05 8.908631e-07
-2.020766e-06 -2.414306e-05 -1.436080e-06
-1.690518e-05 -1.592942e-05 -6.501515e-07
-2.060714e-05 -1.588518e-05 -3.603785e-22
-2.225534e-05 -7.938819e-06 1.149186e-06
2.286368e-05 1.188059e-05 8.247950e-07
-1.755504e-05 -1.498386e-05 1.058608e-07
-1.329079e-05 -2.068795e-05 -1.470768e-06
-2.412671e-05 4.090386e-06 -1.469354e-06
4.087406e-06 2.280182e-05 -5.036677e-07
1.005096e-05 -2.265549e-05 -1.452112e-06
-3.767107e-06 -2.356677e-05 -1.303866e-06
1.884421e-05 1.402466e-05 1.023113e-06
-7.971318e-07 -2.455952e-05 1.471149e-06
-2.003038e-05 -1.660654e-05 -3.603785e-22
1.986913e-05 1.639702e-05 -8.319621e-07
-1.477053e-05 -2.111422e-05 -8.224205e-07
1.477362e-05 -2.104513e-05 -8.983978e-07
1.071305e-05 2.187549e-05 -1.459056e-06
-4.413564e-06 2.265123e-05 4.937507e-08
4.861233e-06 -2.273604e-05 -6.932417e-07
8.672395e-06 2.426063e-05 8.278727e-07
9.608318e-06 -2.394441e-05 -7.720239e-07
2.794943e-06 2.381595e-05 -1.357158e-06
6.659661e-06 -2.348903e-05 -1.465345e-06
2.439687e-05 9.043553e-06 -3.603785e-22
-1.942839e-05 -1.730697e-05 -3.603785e-22
2.073803e-06 -2.321839e-05 7.968212e-07
-1.542761e-05 2.063031e-05 -8.326264e-07
-2.307782e-05 8.592682e-06 1.469295e-06
2.010395e-05 -1.137839e-05 -2.657410e-07
-2.438105e-05 -3.517937e-06 1.468852e-06
6.556333e-06 2.216628e-05 -3.373173e-07
-1.190396e-05 2.155061e-05 1.469593e-06
6.028756e-06 -2.378572e-05 1.471324e-06
-2.168237e-05 1.392769e-05 -8.187506e-07
-2.386811e-05 -9.613579e-06 8.739057e-07
-1.880191e-05 -1.798559e-05 -3.603785e-22
-7.537055e-06 2.191389e-05 -5.265270e-07
6.070803e-06 -2.243127e-05 6.709297e-07
3.401408e-07 2.572759e-05 -8.760896e-07
-3.838533e-06 -2.549535e-05 7.998635e-07
1.297734e-05 1.910166e-05 2.202360e-07
-1.089000e-05 -2.337336e-05 7.950900e-07
-2.967488e-06 2.560744e-05 -8.058271e-07
1.582174e-06 2.458738e-05 -1.468571e-06
-1.745710e-05 -1.738956e-05 -1.468439e-06
1.996464e-05 -1.278552e-05 -1.208001e-06
-1.815174e-05 -1.864156e-05 -3.603785e-22
-7.724261e-06 -2.454617e-05 -8.720314e-07
-5.873281e-06 2.234216e-05 2.693437e-07
-2.272296e-05 -4.741730e-06 -6.179402e-07
2.259903e-05 1.029128e-05 -1.443642e-06
-4.485793e-06 2.535013e-05 8.567007e-07
-1.172014e-05 -2.295548e-05 -8.126410e-07
1.439137e-05 1.935399e-05 1.407267e-06
1.452144e-05 -1.794446e-05 1.505341e-07
-1.451958e-05 -1.825977e-05 8.241980e-07
-2.570774e-05 1.792291e-06 -8.189159e-07
-1.747870e-05 -1.927403e-05 -3.603785e-22
2.235555e-05 -6.353970e-06 6.762397e-07
2.180140e-05 -7.574976e-06 -1.014860e-07
7.488481e-06 -2.317713e-05 1.458923e-06
2.143686e-05 -1.222018e-05 -1.465815e-06
2.262574e-05 -1.225011e-05 8.770051e-07
-2.284048e-05 9.805308e-06 1.438656e-06
-2.843987e-06 2.400289e-05 -1.422252e-06
-9.867605e-06 2.099045e-05 -5.768013e-07
2.275347e-05 8.783715e-06 -1.462881e-06
1.996228e-05 -1.323867e-05 1.345881e-06
-1.678364e-05 -1.988222e-05 -3.603785e-22
1.001732e-06 2.342114e-05 -9.713101e-07
1.072471e-05 -2.180168e-05 -1.449793e-06
-2.441297e-05 -4.729734e-06 1.436320e-06
-1.204723e-07 2.318464e-05 -5.547028e-07
4.091794e-06 2.400708e-05 1.458451e-06
5.484692e-06 -2.394383e-05 -1.471267e-06
-2.285780e-05 -9.813353e-06 -1.434431e-06
-1.091725e-05 2.232780e-05 1.439148e-06
1.940988e-05 -1.567941e-05 -1.414815e-06
2.350702e-05 1.032787e-06 1.062298e-06
-1.606743e-05 -2.046536e-05 -3.603785e-22
2.351898e-05 -9.453927e-07 -1.070173e-06
-2.195880e-05 -1.154472e-05 -1.448038e-06
-1.766159e-05 -1.879431e-05 -7.874297e-07
-4.910340e-06 -2.304094e-05 1.089045e-06
-2.284497e-05 5.912590e-06 1.123528e-06
-2.396630e-05 -5.276996e-06 -1.471338e-06
1.928351e-05 -1.714183e-05 -7.707264e-07
4.067959e-06 -2.403039e-05 -1.460858e-06
1.293192e-05 2.231078e-05 -7.920858e-07
1.988025e-05 1.356318e-05 -1.390344e-06
-1.533098e-05 -2.102271e-05 -3.603785e-22
-2.316683e-05 1.453236e-06 -6.177906e-07
1.220437e-05 1.968049e-05 4.816853e-07
-2.471393e-05 -1.202612e-06 -1.458319e-06
2.331535e-05 -2.005185e-06 -9.224071e-07
2.331535e-05 2.005185e-06 9.224071e-07
1.665311e-05 -1.852615e-05 -1.425880e-06
2.145657e-05 1.218552e-05 1.465815e-06
-2.144151e-05 -8.732627e-06 4.644604e-07
-1.346150e-05 1.941103e-05 1.143652e-06
-1.599206e-05 -1.877121e-05 1.467086e-06
-1.457521e-05 -2.155358e-05 -3.603785e-22
-1.297323e-05 -1.960283e-05 1.040002e-06
5.410259e-06 2.418729e-05 1.452102e-06
-1.960668e-05 -1.295853e-05 1.035074e-06
1.803335e-05 -1.629476e-05 -1.451154e-06
-1.581646e-05 1.882908e-05 -1.470734e-06
-1.247215e-05 -1.952366e-05 -5.094258e-07
2.289148e-05 1.190518e-05 -7.689266e-07
-2.448947e-05 3.988771e-06 1.447397e-06
-7.373356e-06 -2.279637e-05 1.348499e-06
-1.373405e-05 -1.982666e-05 -1.407471e-06
-1.380107e-05 -2.205728e-05 -3.603785e-22
2.771673e-06 -2.560625e-05 -8.398936e-07
-1.097696e-07 2.465256e-05 1.467601e-06
-2.139223e-05 1.217105e-05 -1.469943e-06
-2.074311e-05 1.530511e-05 -8.065330e-07
-1.936346e-05 1.346322e-05 1.111745e-06
1.083694e-05 -2.045229e-05 -4.470980e-07
-1.912154e-05 -1.721630e-05 -8.758357e-07
-2.476958e-05 7.140830e-06 -8.065212e-07
-2.273539e-05 -7.396472e-06 -1.325134e-06
1.696911e-05 -1.763103e-05 -1.469327e-06
-1.300955e-05 -2.253320e-05 -3.603785e-22
-5.847677e-06 2.409770e-05 -1.450077e-06
-1.795577e-05 1.712599e-05 1.447158e-06
-4.333143e-06 2.353646e-05 -1.336326e-06
1.145722e-05 -2.307175e-05 -8.339655e-07
-1.203632e-05 1.969364e-05 1.108427e-07
-1.809559e-05 1.433393e-05 1.579725e-07
2.743666e-06 2.315686e-05 -8.091185e-07
1.950153e-05 -1.235287e-05 1.561763e-07
7.045694e-06 2.381162e-05 1.443610e-06
1.104986e-05 -2.037141e-05 5.303275e-07
2.406054e-05 9.903720e-06 -3.603785e-22
-1.220163e-05 -2.298072e-05 -3.603785e-22
-2.466770e-05 2.448136e-06 -1.451461e-06
2.371452e-05 -1.001785e-05 8.571269e-07
-1.814963e-05 -1.665256e-05 1.468964e-06
1.734777e-05 1.912965e-05 -7.318253e-07
-2.224794e-05 -1.310947e-05 7.338384e-07
1.829348e-05 1.638861e-05 -1.471298e-06
-7.085120e-06 2.230455e-05 9.241463e-07
2.125398e-05 -1.191618e-05 1.460154e-06
1.909281e-05 -1.562308e-05 1.466256e-06
2.532324e-05 4.956986e-06 -7.662250e-07
-1.137834e-05 -2.339929e-05 -3.603785e-22
2.532324e-05 -4.956986e-06 7.662250e-07
-2.194359e-05 7.162037e-06 1.373862e-07
2.344738e-05 -7.448789e-06 1.470352e-06
9.333266e-06 2.404734e-05 7.804548e-07
-1.931116e-05 -1.569807e-05 -1.431768e-06
2.469226e-05 7.311363e-06 -8.454194e-07
[...]
POINT_DATA 2154
VECTORS 10.000GHz_fone_imag double
1.500601e-04 1.084229e-04 1.799042e-02
-2.314434e-04 3.465894e-05 1.767792e-02
5.471254e-05 2.528033e-04 1.772087e-02
1.032846e-02 9.706328e-03 -2.177812e-02
5.904544e-03 -1.069749e-02 1.391005e-02
1.033227e-02 -2.772405e-03 1.496801e-02
6.473334e-03 -8.657691e-03 1.481979e-02
8.041144e-03 -7.118723e-03 1.489926e-02
-6.478736e-03 2.127922e-02 -1.309245e-03
-2.068654e-03 -2.193064e-02 -1.290597e-03
1.049081e-02 5.368232e-04 1.493064e-02
7.328114e-03 -8.812647e-03 1.466026e-02
-3.302161e-03 -1.039495e-02 1.399655e-02
2.307493e-04 3.106560e-04 1.768157e-02
8.998256e-03 8.976413e-03 -2.320276e-02
-1.329211e-03 2.235920e-02 -4.288621e-03
1.296974e-03 6.088447e-04 -2.753155e-02
2.115560e-02 6.438286e-03 -8.489702e-03
1.923680e-02 1.181650e-02 -2.378947e-03
-1.178327e-02 -4.511907e-03 1.431395e-02
-1.186081e-02 -5.824321e-04 1.412972e-02
-9.167165e-03 -1.079657e-02 -2.254245e-02
-2.994354e-03 -1.400382e-02 -2.265267e-02
1.403267e-02 1.697838e-02 -3.414642e-04
-2.072342e-04 2.161733e-05 1.766000e-02
-4.365928e-03 1.048320e-02 1.477429e-02
2.131684e-02 7.466854e-03 -2.757313e-03
3.038754e-03 -9.661447e-03 -2.502558e-02
-3.663690e-04 -1.190845e-02 1.483044e-02
-9.873690e-03 6.299714e-03 1.444582e-02
9.187057e-03 5.873013e-03 1.490787e-02
-6.457967e-03 1.276274e-05 -2.648872e-02
1.641923e-02 -8.664425e-03 8.578054e-03
-1.695334e-02 -1.437846e-02 -2.032159e-03
1.808751e-02 -1.402156e-03 8.403966e-03
-4.787181e-04 -9.177890e-05 1.779576e-02
-1.129006e-02 1.858527e-02 -4.040890e-03
1.189203e-02 -4.004282e-03 1.425128e-02
6.660999e-03 -1.691833e-02 8.549820e-03
1.205599e-02 -1.356608e-02 8.439680e-03
-1.211486e-02 -1.832856e-03 1.420480e-02
-1.427279e-03 -7.903076e-03 -2.521955e-02
-5.422740e-04 2.384675e-05 -2.748468e-02
2.189563e-02 7.581069e-04 3.416549e-04
-1.125139e-03 -9.312739e-04 -2.728907e-02
1.213742e-02 1.606372e-03 1.428162e-02
1.234345e-05 -1.053340e-04 1.792249e-02
6.406561e-03 -1.035932e-02 1.434236e-02
6.159623e-03 -2.084866e-02 1.167205e-03
7.967017e-04 -1.084785e-02 1.490757e-02
-2.223381e-03 -1.896502e-02 -1.761691e-02
-1.203818e-02 -9.657010e-03 -2.257353e-02
1.351698e-03 -1.445236e-03 -2.783561e-02
1.528470e-03 -1.029659e-02 1.559031e-02
2.866474e-03 -1.208336e-02 1.406566e-02
-2.227567e-02 -1.111981e-03 -5.465960e-04
2.197857e-02 -1.126961e-03 -1.141164e-03
-3.253118e-04 2.338973e-06 1.786544e-02
1.757349e-02 4.369767e-03 8.270461e-03
-8.825403e-03 1.968778e-02 1.660312e-03
-9.315949e-04 -2.044007e-03 -2.695588e-02
-6.270352e-03 -7.589559e-03 1.532846e-02
1.680254e-03 -8.997913e-04 -2.754628e-02
1.516851e-02 9.594254e-03 8.726285e-03
-1.008395e-02 3.307616e-03 1.399105e-02
-1.566959e-04 2.230016e-02 -1.576061e-03
-7.076453e-03 -8.734065e-03 1.432759e-02
-2.113493e-03 1.122841e-02 1.524601e-02
-3.240989e-04 -3.775912e-04 1.780816e-02
-8.716532e-04 -1.126724e-02 1.447793e-02
-1.051129e-02 -2.547767e-03 1.491336e-02
-7.042494e-03 3.573468e-03 -2.575343e-02
-5.061789e-03 5.811604e-03 -2.598231e-02
7.608340e-03 1.296559e-02 -1.987997e-02
9.480381e-04 -1.403792e-02 -2.233013e-02
-3.628677e-03 9.276772e-03 1.508339e-02
-7.837233e-03 6.838781e-03 1.459850e-02
1.169538e-02 1.807390e-02 1.397115e-03
6.406801e-03 1.438776e-02 -2.056713e-02
-8.286930e-04 2.070938e-04 1.758487e-02
2.957619e-03 -1.120364e-02 -2.541214e-02
1.650555e-02 8.479259e-03 -1.810637e-02
7.844167e-03 9.105120e-03 1.426729e-02
4.497327e-04 -2.075568e-03 -2.736288e-02
1.729564e-02 -1.403516e-02 -9.880292e-04
8.258223e-03 -5.737348e-03 1.533614e-02
-8.134083e-03 6.804805e-04 -2.537937e-02
-2.061293e-03 1.076348e-02 1.494937e-02
-1.700601e-03 -2.234559e-02 -5.140191e-03
-8.186746e-03 -7.993678e-03 -2.434832e-02
-6.886433e-04 -4.139439e-04 1.807617e-02
1.879020e-02 6.908566e-03 -1.734680e-02
-9.104170e-03 -4.873280e-03 1.551182e-02
1.509056e-03 8.864647e-04 -2.739576e-02
-1.179272e-02 -1.850414e-02 -5.463787e-04
-2.190731e-02 2.715652e-03 -3.089839e-03
1.782838e-03 8.037790e-03 -2.562199e-02
8.603164e-03 -1.929914e-02 2.601922e-03
-2.931024e-03 -2.118643e-02 -1.246051e-02
-1.380397e-02 -1.032449e-02 -1.900166e-02
9.240373e-04 2.232946e-02 5.015643e-04
1.846034e-04 -5.602948e-04 1.788174e-02
8.128935e-03 7.149773e-03 1.495673e-02
-6.761725e-03 -8.811750e-03 1.477143e-02
6.876786e-03 -9.403822e-03 1.445871e-02
9.603734e-03 2.020795e-02 -3.793910e-03
-4.131769e-04 -8.042067e-04 -2.721902e-02
2.446512e-03 -1.189602e-02 -2.476949e-02
-3.307258e-03 -1.090885e-02 1.350944e-02
3.583861e-03 -9.331022e-03 1.512387e-02
2.742937e-03 2.159348e-02 -9.907793e-03
5.457123e-03 -2.181871e-02 -2.594558e-03
2.728593e-04 -1.072311e-04 1.773973e-02
-3.994843e-04 -3.817473e-05 1.778090e-02
-1.218247e-03 1.357655e-02 -2.321770e-02
-6.245526e-03 8.519421e-03 1.508843e-02
2.075989e-02 -7.298732e-03 3.494819e-04
3.455531e-03 -1.632332e-03 -2.683377e-02
2.219006e-02 3.012835e-03 6.477588e-04
9.511720e-04 6.666998e-03 -2.610751e-02
1.083221e-02 -1.938377e-02 7.979233e-04
-5.396461e-03 2.201665e-02 -1.373195e-03
-8.891358e-03 5.621601e-03 1.541914e-02
1.048821e-02 4.504113e-03 1.450098e-02
-1.317771e-04 -3.093311e-04 1.777268e-02
-2.887709e-03 9.047490e-03 -2.522311e-02
-3.528205e-03 1.125480e-02 -2.225352e-02
-4.013366e-04 1.141836e-02 1.456396e-02
1.742214e-03 9.964152e-03 1.593620e-02
-2.558203e-03 -3.039064e-03 -2.681757e-02
4.351763e-03 9.541947e-03 1.520627e-02
-1.216372e-03 1.057502e-02 1.511588e-02
1.299972e-03 2.196325e-02 4.670495e-04
-1.523467e-02 -1.548805e-02 -1.718378e-04
1.664659e-02 -1.103679e-02 -1.474759e-02
3.558795e-04 -4.497016e-05 1.785837e-02
-3.838029e-03 -1.064468e-02 1.490254e-02
1.348078e-03 -3.897553e-03 -2.680463e-02
-9.831164e-03 -3.010192e-03 -2.481751e-02
1.896931e-02 8.450497e-03 3.079848e-03
2.005922e-03 -1.110206e-02 1.499540e-02
-4.994398e-03 -9.636244e-03 1.504392e-02
-1.329772e-02 -1.779533e-02 -7.803738e-03
-1.211346e-03 1.737452e-03 -2.762458e-02
9.223202e-03 1.152790e-02 -2.201293e-02
-1.025265e-02 7.213882e-04 1.498526e-02
-1.029169e-04 -1.485683e-04 1.775980e-02
-1.091552e-02 3.243175e-03 -2.370354e-02
1.232952e-03 -8.250710e-04 -2.711995e-02
-7.157902e-03 2.116949e-02 -4.097925e-03
1.898786e-02 -1.097545e-02 7.860997e-04
-1.014782e-02 5.320334e-03 1.460852e-02
1.892392e-02 -8.319420e-03 3.004638e-03
-2.535608e-03 2.226076e-02 -7.033138e-03
-4.877684e-03 9.314899e-03 -2.513113e-02
2.037808e-02 8.307348e-03 -3.704594e-03
-1.833689e-02 1.215279e-02 -1.030203e-02
3.574959e-04 -5.578169e-05 1.768407e-02
6.863782e-04 1.614405e-02 -1.998494e-02
1.035227e-02 -1.981053e-02 -4.396028e-03
2.088727e-02 3.703605e-03 2.867021e-03
-2.008159e-04 9.947977e-03 -2.509677e-02
-3.423405e-03 -2.200435e-02 -4.090720e-03
4.939335e-03 -2.212681e-02 4.195487e-04
-1.881467e-02 -8.342358e-03 3.725270e-03
9.809478e-03 -1.884327e-02 2.658537e-03
1.580592e-02 -1.273348e-02 4.586089e-03
-1.856749e-02 -3.319059e-05 -1.790665e-02
-6.286085e-04 3.524141e-04 1.749136e-02
1.844561e-02 -1.038934e-03 -1.759360e-02
-1.888530e-02 -9.242590e-03 3.030686e-03
-6.913411e-03 -7.567334e-03 1.529981e-02
3.883255e-03 1.785175e-02 -1.768440e-02
1.765507e-02 -4.834400e-03 -1.738605e-02
-2.169171e-02 -4.801167e-03 -1.500044e-03
7.891594e-03 -6.850184e-03 1.519010e-02
4.155205e-03 -2.277699e-02 -3.654752e-03
5.452246e-03 9.295611e-03 1.508924e-02
1.819250e-02 1.273002e-02 -8.864732e-03
-2.282484e-04 -3.182603e-04 1.786283e-02
-1.053710e-02 8.313835e-04 -2.524797e-02
-4.592486e-03 -6.890717e-03 -2.606404e-02
-2.114759e-02 -1.290307e-03 2.189505e-03
1.587093e-02 -1.527977e-03 -2.065512e-02
-1.598516e-02 -1.302732e-03 -2.147659e-02
1.371167e-02 -1.523233e-02 4.368887e-03
-1.970818e-02 -1.106143e-02 6.076434e-04
7.079644e-03 3.399370e-03 -2.593689e-02
1.049135e-02 -1.536549e-02 -1.667534e-02
1.381093e-02 1.671901e-02 1.227858e-03
2.611107e-04 -1.421547e-04 1.808537e-02
9.637938e-03 1.441656e-02 -1.937629e-02
-4.499599e-03 -2.056515e-02 2.268232e-03
1.466074e-02 9.895250e-03 -1.882624e-02
1.642611e-02 -1.500596e-02 -5.536009e-03
-1.437358e-02 1.699002e-02 5.115052e-05
-4.591803e-03 -7.236056e-03 -2.537261e-02
8.768891e-03 4.470388e-03 1.514898e-02
2.107088e-02 -3.515999e-03 2.846711e-03
6.512813e-03 2.049346e-02 -1.102814e-02
-1.292790e-02 -1.797529e-02 -8.271711e-03
-5.494265e-05 1.184201e-04 1.776527e-02
1.179450e-03 -1.052755e-02 1.471170e-02
4.268247e-04 -2.161952e-02 9.104067e-04
-1.924250e-02 1.081438e-02 3.932787e-04
-7.769397e-03 6.304019e-03 1.556568e-02
1.496065e-02 -1.030526e-02 -1.726412e-02
3.642389e-03 -7.130578e-03 -2.703268e-02
-9.083296e-03 -7.427797e-03 1.425346e-02
-1.007896e-02 3.042952e-03 1.540446e-02
-2.029645e-02 -6.164159e-03 -1.146964e-02
1.541402e-02 -1.548445e-02 -1.108114e-03
6.949381e-05 2.137535e-04 1.771332e-02
-5.203605e-03 2.058894e-02 2.773922e-03
1.570222e-02 -1.458093e-02 2.331299e-03
-3.846956e-03 2.099367e-02 -1.116756e-02
4.872185e-03 -1.009500e-02 1.415518e-02
1.121922e-03 -1.451716e-03 -2.721800e-02
2.522273e-03 -2.009991e-03 -2.681633e-02
9.577238e-04 1.394995e-02 -2.197808e-02
-2.694191e-03 1.656582e-03 -2.703969e-02
-4.868613e-03 -1.951713e-02 4.684087e-03
-5.180334e-03 9.376799e-03 -2.429249e-02
-3.173383e-05 -8.567240e-05 1.771198e-02
1.188854e-04 3.664747e-04 1.806141e-02
-2.114536e-02 2.128281e-03 2.560880e-03
-1.050214e-02 3.927518e-03 1.473460e-02
1.624071e-02 1.466680e-02 2.317162e-04
6.748395e-03 7.108402e-03 1.648960e-02
8.206752e-03 5.434373e-03 1.546141e-02
1.658384e-02 1.462276e-02 -5.730189e-04
4.920041e-03 -1.522027e-02 -2.061244e-02
-1.926489e-02 1.087499e-02 -3.483068e-03
-1.700161e-02 1.395177e-02 9.542284e-04
9.712496e-03 1.742577e-03 1.529782e-02
1.647323e-04 -2.301791e-05 1.789546e-02
-9.622102e-03 1.718585e-03 1.533670e-02
2.454928e-03 -8.324432e-04 -2.719630e-02
-2.094653e-02 6.423844e-03 -8.350419e-04
-4.840407e-03 -9.514613e-03 1.426323e-02
-1.523109e-02 -1.238021e-02 4.123681e-03
1.039665e-02 3.679379e-03 1.483515e-02
3.513566e-03 7.012923e-04 -2.669898e-02
-7.596671e-03 6.399137e-03 1.561018e-02
-1.660146e-02 -1.120928e-02 -1.391616e-02
4.894013e-03 -6.964132e-04 -2.718606e-02
-1.388474e-05 1.134128e-04 1.791806e-02
4.364124e-03 2.897337e-03 -2.665446e-02
2.023794e-02 6.900104e-03 1.016435e-03
1.759281e-02 -1.280545e-03 -1.892979e-02
5.171810e-03 1.579484e-04 -2.670682e-02
-5.069579e-03 4.193520e-04 -2.650490e-02
-1.589219e-02 -1.350517e-02 2.614473e-03
8.320083e-03 1.925121e-02 2.620533e-03
1.133728e-02 1.922535e-02 -1.438626e-03
3.890398e-03 2.134851e-02 2.505717e-03
1.987856e-03 -1.579056e-02 -2.065741e-02
1.132048e-04 -2.600059e-05 1.779618e-02
-6.831536e-03 -1.664137e-02 -1.848866e-02
9.436006e-03 -2.452673e-04 1.624826e-02
7.444219e-03 -1.337837e-02 -2.105234e-02
-1.445629e-03 -9.727375e-03 1.544173e-02
6.202918e-03 -7.733627e-03 1.556595e-02
3.106433e-03 -8.653643e-03 1.567274e-02
3.922088e-04 4.665430e-03 -2.743765e-02
-1.588248e-02 1.496257e-02 1.253337e-03
9.308024e-03 5.010529e-03 1.508473e-02
5.858398e-03 -9.137182e-03 -2.472033e-02
6.728188e-04 4.881349e-04 1.757182e-02
2.310095e-03 -2.037115e-03 -2.698777e-02
2.618269e-03 2.037496e-04 -2.719010e-02
-9.720574e-03 -2.618503e-03 1.570827e-02
9.687108e-03 -2.623987e-03 1.573999e-02
1.388574e-02 2.693239e-03 -2.170829e-02
-1.384576e-03 -2.132332e-02 1.971961e-03
-8.634294e-03 -1.059267e-02 -2.306520e-02
2.458367e-03 1.047243e-02 1.485653e-02
2.062697e-02 -7.937612e-03 -1.156035e-03
1.298479e-02 -1.832291e-02 -3.081387e-03
-4.430990e-04 4.987261e-04 1.782169e-02
3.909241e-03 1.006621e-02 1.510428e-02
-2.069471e-02 -7.963092e-03 -1.203232e-03
-1.482165e-03 -3.659199e-04 -2.732603e-02
8.516719e-03 6.338894e-03 1.516311e-02
1.003430e-02 1.879384e-02 2.128041e-03
-1.827155e-02 -1.227306e-02 2.964405e-05
-8.010431e-03 -1.910858e-02 3.511230e-03
-6.163308e-04 1.799274e-02 -1.824512e-02
5.345033e-03 8.892086e-04 -2.683196e-02
-2.162056e-02 2.505849e-03 -1.769070e-04
-1.671742e-05 -6.530712e-05 1.784881e-02
2.193973e-02 2.456355e-03 -3.648963e-04
-2.183231e-03 -9.380806e-03 1.510799e-02
-4.356066e-03 -7.987296e-03 1.601784e-02
1.892225e-03 -2.106831e-02 1.252032e-03
-2.174381e-02 -3.423240e-03 -1.113094e-02
3.463475e-03 8.800571e-03 1.611132e-02
-1.039361e-03 -1.013143e-02 1.507760e-02
-2.089471e-02 1.354230e-03 2.378972e-03
2.115267e-02 1.332462e-03 3.137521e-03
-1.946782e-02 9.431280e-03 1.352157e-04
4.510821e-04 1.073350e-04 1.764625e-02
-1.052088e-02 3.342771e-03 1.475245e-02
-7.100958e-03 -1.895525e-02 4.005044e-03
9.251944e-04 -2.208226e-02 -9.812958e-03
1.082172e-02 2.919303e-03 -2.419856e-02
-3.325555e-03 -3.143714e-04 -2.696032e-02
-9.375854e-03 1.584178e-03 1.552689e-02
4.201503e-03 2.055192e-02 3.844836e-03
-5.006625e-03 9.813998e-03 1.513541e-02
-2.637993e-03 1.359932e-02 -2.212179e-02
7.849165e-03 1.940465e-02 3.253411e-03
-1.296631e-04 3.590884e-04 1.759186e-02
-2.567339e-03 4.600230e-03 -2.565792e-02
-5.080892e-03 3.184827e-03 -2.625592e-02
-9.614643e-03 1.939063e-02 -2.619374e-03
-1.019857e-02 -6.203902e-03 -2.364885e-02
1.261142e-02 -1.254110e-02 -1.877482e-02
7.045845e-03 2.032940e-02 1.246577e-03
-1.889267e-02 -7.699037e-03 -1.393641e-02
-9.352876e-03 -4.783787e-03 1.497290e-02
1.391216e-02 -1.661287e-02 -1.093076e-02
-1.954829e-02 -9.393396e-03 1.813100e-03
-1.056182e-03 -7.076715e-04 1.736315e-02
-7.903470e-03 -2.046648e-02 6.513513e-04
1.776518e-03 -1.350106e-03 -2.725226e-02
8.702485e-03 2.376821e-03 1.445525e-02
-4.580545e-03 -7.588390e-03 1.565348e-02
-5.586539e-03 1.238388e-03 -2.643091e-02
1.959880e-02 9.324292e-03 -5.565212e-04
-6.181455e-03 -1.731373e-02 -1.793122e-02
1.835672e-02 -1.121291e-02 1.620657e-03
1.534010e-02 1.387236e-02 -1.253821e-02
8.394667e-03 -4.318232e-03 1.560969e-02
6.479609e-04 5.760314e-04 1.766107e-02
8.732569e-04 -4.781427e-04 1.734799e-02
7.837523e-03 -5.334655e-03 1.554861e-02
1.908983e-03 9.016555e-03 1.613496e-02
-5.056930e-03 8.947744e-03 1.492457e-02
8.195610e-03 1.426610e-02 -1.965741e-02
1.134626e-02 2.459716e-03 -2.353227e-02
-1.133580e-02 2.395318e-03 -2.367750e-02
1.085826e-03 1.008464e-03 -2.714225e-02
-1.068527e-02 1.881800e-02 2.620245e-03
-1.072808e-02 -1.995563e-02 -8.246957e-03
-1.054565e-02 1.580320e-02 -1.757398e-02
-1.162486e-04 2.323933e-04 1.754070e-02
-1.542404e-02 1.021317e-02 -1.703618e-02
-4.275902e-03 8.291300e-03 1.514395e-02
5.430111e-03 2.088818e-02 1.328596e-03
-2.095904e-02 8.149254e-03 -9.493423e-03
-9.055133e-03 -5.969100e-03 -2.454984e-02
-1.843160e-02 -1.285553e-02 -1.718680e-03
1.088416e-02 1.715431e-02 4.730292e-03
-2.411760e-03 8.537920e-03 1.577977e-02
-1.447418e-02 -1.184003e-02 -1.722408e-02
2.066115e-02 -1.642644e-03 4.067671e-03
-2.968492e-04 -1.492229e-04 1.754051e-02
-2.103475e-02 -1.754719e-03 4.752044e-03
-1.663034e-02 7.512929e-03 -1.808549e-02
-9.200427e-03 -8.509262e-04 1.573297e-02
-1.287071e-02 1.280178e-02 -1.848523e-02
-7.107479e-03 5.915039e-03 1.573209e-02
-6.178079e-03 6.146435e-03 1.575692e-02
1.307123e-02 -1.580048e-02 4.632675e-03
3.011940e-03 1.062621e-02 1.484072e-02
-7.969975e-03 3.680738e-03 1.570660e-02
-3.291953e-03 -8.369403e-03 1.586872e-02
5.764095e-04 -1.888685e-04 1.743949e-02
-5.683643e-03 1.422805e-03 -2.646685e-02
5.722023e-03 1.375390e-03 -2.630863e-02
-1.610363e-03 2.823466e-03 -2.702589e-02
1.607472e-03 -2.226832e-02 -1.917632e-03
7.577853e-03 -1.930625e-03 -2.587489e-02
-7.493964e-03 -1.893976e-03 -2.592936e-02
1.678321e-02 1.415144e-02 -5.501183e-04
-1.722154e-02 -1.137014e-02 -1.323291e-02
1.042786e-03 -9.184601e-03 1.572811e-02
-1.595107e-02 -1.137944e-02 5.840399e-03
-5.119665e-04 4.262566e-04 1.708095e-02
-6.004194e-03 -7.919858e-03 1.514795e-02
8.810233e-03 -1.846793e-03 1.587137e-02
-1.713186e-02 1.496129e-02 -9.322119e-03
-2.185824e-02 4.616671e-03 -1.099868e-03
2.179057e-02 4.606685e-03 -1.118207e-03
-3.230315e-03 -9.661933e-03 1.573376e-02
-9.693170e-03 -8.647456e-03 -2.339055e-02
5.681480e-03 -2.174280e-02 -6.428524e-03
1.530997e-02 -8.082729e-04 -2.092656e-02
1.516303e-02 -8.805795e-03 -1.884566e-02
-1.809121e-05 -9.144857e-05 1.777557e-02
6.048950e-03 -6.136794e-03 1.599199e-02
-6.825442e-05 9.166481e-03 1.571336e-02
-2.984050e-03 2.159123e-03 -2.680629e-02
-6.114261e-03 6.686553e-03 -2.530802e-02
1.184025e-02 -1.303825e-02 -1.871393e-02
-2.138365e-02 3.619605e-05 -1.162261e-02
6.461417e-04 -7.965542e-04 -2.733585e-02
4.677636e-03 -1.234627e-03 -2.667262e-02
-1.906973e-02 5.738897e-03 5.983704e-03
6.972225e-03 7.061225e-03 1.640825e-02
-2.376826e-04 -9.335900e-05 1.772887e-02
2.198434e-04 8.244157e-03 1.528347e-02
-3.005528e-03 1.029361e-02 1.503957e-02
5.858260e-03 8.153986e-03 1.545850e-02
9.470640e-03 -6.726188e-04 1.590234e-02
1.441358e-02 8.368669e-03 8.712440e-03
6.327032e-03 -5.266105e-03 1.628218e-02
-6.295740e-04 3.169152e-05 -2.689115e-02
8.030202e-03 -1.052062e-03 1.546983e-02
-1.819186e-02 -8.955191e-03 -1.379814e-02
9.987195e-03 -1.148479e-02 -2.151789e-02
2.635210e-04 -9.917211e-06 1.762062e-02
-1.182780e-02 1.986448e-02 -6.770807e-04
-1.608036e-02 -7.103352e-03 -1.829573e-02
8.551092e-03 -2.077377e-02 -6.067697e-03
-1.614168e-02 1.213419e-02 6.190622e-03
8.075986e-03 -4.503302e-03 1.576698e-02
3.219747e-03 -8.680695e-03 1.575877e-02
6.159306e-03 -6.950350e-03 1.568226e-02
3.004472e-03 -9.815441e-03 1.513446e-02
4.884268e-03 -1.683077e-03 -2.641916e-02
-2.818380e-03 -2.342864e-03 -2.709185e-02
1.067340e-04 9.246467e-04 1.653311e-02
-3.895596e-03 -2.142494e-02 2.011418e-03
-8.913291e-03 5.340106e-03 1.490021e-02
-7.023031e-03 -6.043451e-03 1.512883e-02
1.336454e-02 -1.431262e-02 5.505440e-03
1.588242e-02 1.506832e-02 -5.415733e-04
5.109823e-03 7.223602e-03 1.621024e-02
-9.681263e-03 -1.847503e-02 -1.358043e-02
-1.793073e-02 4.557746e-03 -1.706357e-02
-5.606847e-03 1.250690e-06 -2.657744e-02
3.235420e-03 2.523282e-04 -2.494427e-02
-4.101009e-04 6.135520e-04 1.637850e-02
-3.623969e-03 3.566817e-04 -2.698987e-02
-7.493904e-03 -4.971392e-03 1.556685e-02
-6.963427e-03 7.209692e-03 1.535072e-02
4.125162e-03 -2.991242e-03 -2.684395e-02
2.629743e-03 -5.178643e-03 -2.619500e-02
-2.065424e-03 1.103000e-02 -2.438580e-02
3.772102e-03 8.156073e-03 1.586034e-02
1.617527e-02 -1.207755e-02 4.498000e-03
-9.336375e-03 -1.197061e-03 1.540731e-02
1.039018e-02 -8.454475e-04 1.534170e-02
2.323986e-04 7.813637e-05 1.763345e-02
-7.204219e-04 -9.681661e-04 1.719713e-02
-4.844000e-03 7.827613e-03 -2.516579e-02
-6.761554e-03 1.916119e-02 5.285414e-03
1.522079e-02 -1.117198e-02 -1.647295e-02
1.865313e-02 -9.797594e-03 -1.310436e-02
3.542607e-04 -1.188957e-03 -2.743528e-02
-5.942687e-03 1.699934e-02 -1.841814e-02
9.752090e-03 1.317212e-02 -2.038643e-02
4.980538e-03 2.037963e-02 -1.332931e-02
7.402106e-03 -7.425339e-03 1.459919e-02
6.027767e-04 1.567914e-02 -2.163449e-02
6.851280e-04 -2.760956e-04 1.752812e-02
2.295406e-03 -8.996827e-03 1.415879e-02
-1.240846e-02 -1.329316e-02 6.573687e-03
-1.039690e-02 -1.758001e-02 5.060963e-03
2.523983e-03 2.131544e-02 1.701788e-03
7.779789e-03 -5.449879e-03 -2.504606e-02
-7.944411e-03 2.033251e-02 1.051276e-03
-1.259592e-03 -1.019805e-02 1.511618e-02
-1.460576e-02 8.758916e-03 -1.927430e-02
-1.657868e-03 2.241327e-02 -6.992907e-03
-8.100728e-03 -1.080823e-02 -2.291144e-02
1.040955e-04 1.288569e-06 1.774928e-02
7.514559e-03 1.763216e-02 6.624161e-03
1.613256e-02 9.826459e-03 -1.708245e-02
7.917940e-03 4.868448e-03 1.588516e-02
-2.833475e-03 -1.487532e-03 -2.708979e-02
-5.510015e-03 -1.775927e-02 -1.784408e-02
-3.289427e-04 -1.982580e-02 5.299624e-03
8.304518e-03 -1.263521e-03 1.597068e-02
-8.185892e-03 -1.268353e-03 1.594705e-02
-3.629825e-03 8.995275e-03 1.538564e-02
-1.270024e-02 -6.387856e-03 -2.230152e-02
-1.164969e-04 2.699919e-04 1.785067e-02
8.253188e-03 -3.251390e-03 1.570250e-02
1.148549e-02 1.280578e-02 -1.882914e-02
-9.770417e-03 -1.935357e-02 9.480890e-04
-7.993503e-03 -1.862020e-02 5.106765e-03
4.279164e-04 -1.688187e-02 9.870710e-03
-9.238872e-03 -2.406028e-03 1.539719e-02
-5.288702e-03 7.467759e-03 1.560481e-02
-1.368548e-02 1.481822e-02 -1.296161e-02
-6.922482e-03 -5.904877e-03 1.548753e-02
1.229309e-04 2.214284e-02 -7.299329e-03
2.025122e-04 -4.328199e-04 1.766596e-02
-5.784534e-03 6.222884e-03 1.569724e-02