# vtk DataFile Version 2.0
Electric current density generated by TTH
ASCII
DATASET UNSTRUCTURED_GRID
POINTS 2087 double
-7.916625e-06 -1.635732e-05 -4.877664e-22
6.033130e-06 -1.317951e-05 1.059629e-06
-1.521264e-05 -7.475684e-06 -1.836857e-06
-1.668999e-05 2.723840e-06 -1.852877e-06
-1.432315e-05 -5.409187e-07 -7.432892e-07
7.905709e-06 1.617165e-05 -8.090194e-07
-1.433186e-05 -5.287227e-07 7.634734e-07
-1.419953e-05 -1.646974e-06 -6.389352e-07
7.751151e-06 1.503321e-05 -1.851681e-06
-1.417200e-05 1.019811e-05 1.526483e-06
1.404151e-05 3.290372e-06 9.336696e-07
-7.011552e-06 -1.676523e-05 -4.877664e-22
1.404151e-05 -3.290372e-06 9.336696e-07
4.335179e-06 1.553238e-05 -1.990701e-06
-1.776769e-05 -2.876944e-06 8.124347e-07
-1.396460e-05 5.683041e-06 -1.657297e-06
-8.571442e-06 -1.294687e-05 -1.881078e-06
-8.571442e-06 1.294687e-05 -1.881078e-06
4.491436e-06 -1.346518e-05 -1.419349e-07
-1.776879e-05 -2.875826e-06 -8.104182e-07
1.481182e-05 -4.188892e-06 -1.828858e-06
1.481182e-05 4.188892e-06 -1.828858e-06
-6.085553e-06 -1.712311e-05 -4.877664e-22
1.019795e-07 -1.436671e-05 8.221456e-07
-5.659568e-06 1.332822e-05 -1.035876e-06
1.779484e-06 1.427771e-05 -8.671820e-07
-6.376450e-06 -1.467877e-05 -1.983577e-06
-1.665281e-05 2.924907e-06 1.854084e-06
1.302120e-05 7.016848e-06 1.426671e-06
1.302120e-05 -7.016848e-06 1.426671e-06
-8.614224e-06 1.138799e-05 5.906214e-07
-8.614224e-06 -1.138799e-05 5.906214e-07
-1.247323e-06 1.790740e-05 9.129161e-07
-5.141393e-06 -1.742988e-05 -4.877664e-22
-1.188018e-05 1.052028e-05 1.966830e-06
1.258931e-05 9.632101e-06 -1.964015e-06
-1.004829e-05 -1.334735e-05 1.920741e-06
-1.004829e-05 1.334735e-05 1.920741e-06
5.040577e-06 1.331481e-05 -4.324841e-07
-1.169219e-05 -8.040604e-06 -5.039333e-08
9.603023e-06 1.396071e-05 1.839205e-06
7.985021e-06 1.611767e-05 8.385416e-07
-1.078944e-05 -1.445051e-05 -7.290674e-07
-1.078944e-05 1.445051e-05 -7.290674e-07
-4.181889e-06 -1.768464e-05 -4.877664e-22
9.526535e-06 1.525440e-05 -8.438048e-07
3.730283e-06 1.562858e-05 1.988231e-06
1.303601e-05 5.612871e-06 1.191987e-07
1.303601e-05 -5.612871e-06 1.191987e-07
-1.207501e-06 1.792276e-05 -8.880625e-07
-1.181347e-05 -1.061779e-05 1.969172e-06
-1.483023e-05 1.021897e-05 -7.874044e-07
-1.313181e-05 -5.804853e-06 8.009142e-07
6.849793e-07 1.525589e-05 -1.771564e-06
1.240300e-05 -1.150203e-05 1.851055e-06
-3.209904e-06 -1.788662e-05 -4.877664e-22
5.943850e-06 -1.585465e-05 -1.844307e-06
5.162441e-06 1.350027e-05 9.912089e-07
1.738138e-05 4.596223e-06 8.564094e-07
1.738138e-05 -4.596223e-06 8.564094e-07
-1.040552e-06 1.431800e-05 -7.967174e-07
1.608771e-05 -2.206546e-06 1.990629e-06
1.608771e-05 2.206546e-06 1.990629e-06
-1.132495e-05 1.287506e-05 1.741394e-06
-1.132495e-05 -1.287506e-05 1.741394e-06
-2.434010e-06 -1.610709e-05 1.988469e-06
-2.228340e-06 -1.803522e-05 -4.877664e-22
-7.886549e-06 -1.187065e-05 -4.938984e-07
-7.886549e-06 1.187065e-05 -4.938984e-07
6.758185e-06 1.516373e-05 -1.946524e-06
-5.201104e-06 1.619669e-05 -1.810067e-06
-3.198445e-06 -1.767205e-05 8.964918e-07
-6.796153e-06 -1.321179e-05 1.487932e-06
-6.777620e-06 1.320643e-05 1.476053e-06
-4.583922e-06 -1.342897e-05 -3.607899e-08
-1.712784e-05 5.439513e-06 8.729460e-07
4.238991e-06 1.749546e-05 -8.066714e-07
-1.240126e-06 -1.813000e-05 -4.877664e-22
-1.524887e-05 6.125272e-07 -1.766349e-06
-1.521268e-05 7.633256e-07 1.750754e-06
1.716983e-05 -9.992584e-07 1.711615e-06
1.716983e-05 9.992584e-07 1.711615e-06
1.520673e-05 5.631846e-06 1.991146e-06
1.520673e-05 -5.631846e-06 1.991146e-06
-3.979288e-06 -1.514204e-05 -1.921085e-06
-4.554840e-06 -1.413856e-05 1.485125e-06
8.033009e-06 1.373601e-05 -1.973285e-06
1.795504e-05 8.890900e-07 -8.601138e-07
-2.482104e-07 -1.817067e-05 -4.877664e-22
1.795504e-05 -8.890900e-07 -8.601138e-07
9.345264e-06 -1.119052e-05 1.183799e-06
-1.045022e-05 1.165327e-05 1.920121e-06
-1.047101e-05 -1.164969e-05 1.923172e-06
7.908150e-06 -1.616010e-05 -8.296399e-07
1.228754e-05 1.213996e-05 -1.665191e-06
8.676611e-06 1.246428e-05 1.725645e-06
6.379608e-06 -1.437727e-05 -1.939536e-06
1.478089e-05 -1.013121e-05 -9.708059e-07
-4.638588e-06 1.423062e-05 1.579126e-06
7.444459e-07 -1.815711e-05 -4.877664e-22
1.376060e-05 1.065371e-05 -1.572576e-06
1.458453e-05 -1.059628e-05 7.457107e-07
-9.735582e-06 -1.276373e-05 -1.987336e-06
-9.735582e-06 1.276373e-05 -1.987336e-06
1.259521e-05 1.288982e-05 7.595125e-07
9.318931e-06 -1.467270e-05 1.588552e-06
-2.185412e-06 -1.509492e-05 1.761702e-06
4.455552e-06 -1.641753e-05 1.810028e-06
-1.497011e-05 2.405372e-06 1.711137e-06
1.586713e-05 -8.429767e-06 8.800077e-07
1.734880e-06 -1.808936e-05 -4.877664e-22
1.581208e-05 8.543044e-06 8.698416e-07
1.609688e-05 -8.021829e-06 -8.433522e-07
1.706906e-05 -2.176831e-06 -1.706578e-06
1.706906e-05 2.176831e-06 -1.706578e-06
4.985139e-06 -1.517193e-05 -1.980252e-06
-1.343288e-05 5.037215e-06 -7.746336e-07
-1.317669e-05 7.274883e-06 1.640262e-06
-1.344923e-05 -1.048266e-05 1.790874e-06
-1.102215e-05 9.350662e-06 9.920899e-07
5.068130e-06 -1.442459e-05 1.780584e-06
2.720137e-06 -1.796763e-05 -4.877664e-22
7.549352e-06 -1.551201e-05 1.679188e-06
-1.850138e-08 -1.503092e-05 -1.625877e-06
-1.354447e-05 -1.189439e-05 -7.498583e-07
1.140086e-05 1.396393e-05 7.470011e-07
-1.721033e-05 -5.192964e-06 -8.607929e-07
5.895974e-06 1.323378e-05 1.048426e-06
1.723389e-05 -5.257671e-06 -7.686371e-07
1.725849e-05 5.316333e-06 -6.629840e-07
-6.813472e-06 -1.583641e-05 1.686521e-06
-6.826981e-06 1.581235e-05 1.696927e-06
3.697276e-06 -1.779227e-05 -4.877664e-22
9.802455e-06 -1.160324e-05 1.727185e-06
9.631990e-06 1.521618e-05 7.909861e-07
9.180589e-06 -1.455386e-05 -1.706460e-06
6.575922e-06 -1.417089e-05 1.911514e-06
-1.071739e-05 -1.042574e-05 1.566961e-06
-1.446596e-05 -5.129091e-06 1.809072e-06
1.181321e-05 9.099810e-06 1.534600e-06
1.181321e-05 -9.099810e-06 1.534600e-06
-1.708798e-05 5.644643e-06 -8.190402e-07
9.416627e-06 -1.280282e-05 1.970525e-06
4.663381e-06 -1.756382e-05 -4.877664e-22
1.039925e-05 1.469647e-05 -8.022464e-07
-5.739988e-06 -1.311595e-05 7.011663e-07
-5.681547e-06 1.315064e-05 7.233986e-07
1.385316e-05 -1.152251e-05 -7.667650e-07
6.577230e-06 -1.313090e-05 -1.315805e-06
3.486922e-06 -1.413953e-05 1.161354e-06
1.016931e-05 1.154685e-05 1.826153e-06
-1.360442e-05 6.498837e-06 -1.657478e-06
9.028663e-06 1.134725e-05 1.069377e-06
1.340077e-05 1.204495e-05 -7.678835e-07
5.615569e-06 -1.728294e-05 -4.877664e-22
6.559786e-06 1.674260e-05 8.500805e-07
-1.566879e-05 -2.149338e-06 -1.957651e-06
5.406000e-06 1.488447e-05 -1.961325e-06
2.249448e-06 1.632374e-05 1.969171e-06
-6.922114e-07 -1.555009e-05 1.893981e-06
-1.441487e-05 9.626588e-07 -9.794857e-07
-1.640401e-05 -7.476788e-06 -7.454260e-07
-1.760966e-05 3.627198e-06 8.552867e-07
-1.437311e-05 9.286003e-06 -1.760453e-06
1.765498e-05 -3.618048e-06 7.593909e-07
6.550997e-06 -1.695049e-05 -4.877664e-22
1.765498e-05 3.618048e-06 7.593909e-07
5.722345e-07 1.798353e-05 -8.267652e-07
1.514935e-05 8.752583e-07 1.718513e-06
1.515421e-05 -8.400948e-07 1.720183e-06
8.819645e-06 -1.571927e-05 7.531066e-07
3.982883e-06 -1.756691e-05 7.811389e-07
5.978905e-06 1.291224e-05 -3.964536e-07
-1.227201e-05 9.907773e-06 -1.949093e-06
2.965209e-06 1.678884e-05 -1.792446e-06
-2.701142e-06 -1.784215e-05 -6.995242e-07
7.466875e-06 -1.656745e-05 -4.877664e-22
1.270215e-05 7.875430e-06 -1.561923e-06
-1.114299e-05 1.207450e-05 1.975760e-06
-1.114324e-05 -1.207531e-05 1.975663e-06
-6.969665e-07 1.647703e-05 1.967045e-06
-1.358620e-05 -1.049745e-05 -1.728924e-06
-1.662378e-05 6.920529e-06 7.950525e-07
-1.550921e-05 -6.405828e-06 -1.899189e-06
1.341400e-05 -1.056756e-05 -1.778683e-06
-1.421806e-05 -1.029210e-05 1.444084e-06
-9.873490e-07 -1.640774e-05 -1.974867e-06
8.360468e-06 -1.613497e-05 -4.877664e-22
9.686466e-06 1.405919e-05 -1.780452e-06
-7.879095e-07 -1.428069e-05 -6.611870e-07
1.427869e-05 9.806110e-06 -1.632333e-06
-7.619101e-06 -1.633787e-05 -7.466016e-07
-4.371438e-06 1.570788e-05 1.987599e-06
9.157103e-06 1.089488e-05 -4.096728e-07
5.241744e-06 -1.724060e-05 7.643668e-07
-1.671328e-05 1.659617e-07 -1.918749e-06
1.267324e-05 -1.123502e-05 -1.842647e-06
-1.677256e-05 1.654173e-07 1.901285e-06
9.229111e-06 -1.565434e-05 -4.877664e-22
-1.225118e-05 -9.913783e-06 -1.946448e-06
7.354572e-06 1.230145e-05 7.407048e-07
-1.355042e-05 1.049553e-05 -1.745443e-06
9.079770e-06 -1.283081e-05 -1.937035e-06
-3.127780e-06 1.772501e-05 8.129884e-07
1.466156e-05 1.048156e-05 7.569745e-07
-9.759942e-06 1.163031e-05 -1.723341e-06
-9.759942e-06 -1.163031e-05 -1.723341e-06
-1.110345e-06 -1.537592e-05 -1.838686e-06
-2.988089e-06 -1.443541e-05 -1.376156e-06
1.007021e-05 -1.512698e-05 -4.877664e-22
1.398839e-05 2.941664e-06 -6.378211e-07
1.398839e-05 -2.941664e-06 -6.378211e-07
-2.886237e-06 1.780593e-05 -7.182212e-07
-6.261770e-06 -1.601175e-05 -1.715327e-06
-1.004914e-05 -1.494460e-05 7.897887e-07
-1.004914e-05 1.494460e-05 7.897887e-07
1.035970e-05 9.731602e-06 -3.094572e-07
1.191062e-05 1.354640e-05 -7.192158e-07
-6.320001e-06 1.689398e-05 -7.205529e-07
-1.393453e-05 3.182882e-06 6.350556e-07
1.088126e-05 -1.455448e-05 -4.877664e-22
-1.297693e-05 -7.496396e-06 1.593552e-06
-1.763439e-05 -3.699502e-06 7.681003e-07
-3.511337e-06 -1.590121e-05 -1.988772e-06
3.766579e-06 1.386149e-05 8.156103e-07
-1.266287e-05 -1.009613e-05 1.991407e-06
-9.217711e-06 1.081098e-05 -2.650674e-07
-9.284931e-06 -1.075603e-05 -2.800059e-07
-1.718719e-05 -5.181305e-06 9.121167e-07
1.074574e-05 -1.343173e-05 -1.710218e-06
-3.238195e-06 1.383250e-05 -2.599021e-07
1.165983e-05 -1.393855e-05 -4.877664e-22
-1.736904e-05 -2.509290e-06 -1.446802e-06
-1.765312e-05 -3.608394e-06 -7.684364e-07
5.611247e-06 1.402410e-05 -1.675815e-06
3.270086e-06 -1.690119e-05 -1.702148e-06
1.614457e-05 8.087665e-06 -6.677794e-07
-1.736693e-05 -2.513418e-06 1.448212e-06
-2.118477e-06 1.418291e-05 7.602119e-07
1.082045e-05 -1.234914e-05 -1.977174e-06
1.931050e-06 -1.500770e-05 -1.692482e-06
-1.117967e-05 -8.828411e-06 -4.679408e-07
1.240360e-05 -1.328102e-05 -4.877664e-22
[...]
POINT_DATA 2087
VECTORS 10.000GHz_fone_imag double
-2.949242e+10 1.470141e+10 2.478516e+08
-5.300821e+10 -2.642976e+10 2.490289e+09
-1.960262e+10 4.168480e+10 -7.079629e+08
6.657977e+09 3.849186e+10 -8.472463e+08
-2.371023e+09 7.442666e+10 9.803720e+08
3.169806e+10 -1.471459e+10 7.051349e+08
1.961123e+09 4.872322e+10 -4.462637e+08
-9.771576e+09 6.165480e+10 -2.803726e+09
3.295059e+10 -1.656399e+10 1.329521e+09
2.029050e+10 3.252775e+10 1.660261e+08
1.507300e+10 -6.792786e+10 -4.520799e+09
-3.156313e+10 1.326135e+10 -3.933696e+08
-1.275943e+10 -5.500286e+10 -5.888659e+08
4.974490e+10 -1.068736e+10 -4.060574e+09
-4.428975e+09 2.764501e+10 -3.349025e+08
2.820377e+10 6.030275e+10 2.259929e+09
-3.343331e+10 2.164314e+10 -8.123451e+08
4.074375e+10 2.683283e+10 6.405265e+08
-7.169679e+10 -1.856883e+10 1.664378e+09
-5.076070e+09 3.880065e+10 -2.375808e+09
-1.282903e+10 -4.941416e+10 1.284480e+09
1.372634e+10 -5.637888e+10 1.673584e+09
-3.156505e+10 1.133895e+10 -2.204482e+09
-6.133649e+10 -2.746310e+09 9.948505e+07
6.807107e+10 2.787903e+10 3.361593e+09
5.537785e+10 -6.659817e+09 7.281209e+08
-4.703963e+10 2.154452e+10 -1.783931e+09
7.403123e+09 3.964266e+10 1.315521e+09
3.569391e+10 -6.148587e+10 7.612650e+08
-2.692078e+10 -5.212774e+10 2.943969e+09
5.322775e+10 4.136378e+10 5.161305e+09
-4.624282e+10 3.723086e+10 -2.603909e+09
2.836767e+10 4.847000e+09 -1.114696e+09
-2.794434e+10 7.700391e+09 -4.558264e+08
2.820761e+10 3.272031e+10 -8.175004e+08
2.754522e+10 -4.119173e+10 6.416243e+08
-3.759827e+10 2.703084e+10 4.853809e+08
3.430630e+10 2.711552e+10 5.241547e+08
5.255126e+10 -1.757712e+10 -1.684775e+09
-3.938757e+10 5.434604e+10 3.359022e+09
3.207533e+10 -1.776099e+10 -1.991462e+09
2.339812e+10 -1.123152e+10 1.327160e+09
-2.487852e+10 1.923018e+10 -1.209160e+09
2.639795e+10 2.047149e+10 -6.060316e+08
-2.556500e+10 5.400284e+09 2.560144e+09
2.525150e+10 -1.579065e+10 -9.525719e+08
3.934223e+10 -8.781724e+09 1.243090e+09
2.951185e+10 -7.347371e+10 5.963911e+08
-1.973112e+10 -4.952980e+10 -4.449007e+08
2.981634e+10 2.045254e+09 8.427869e+08
-2.697061e+10 3.137095e+10 2.117080e+09
1.799433e+10 2.787713e+10 6.826957e+08
-2.410695e+10 6.045779e+10 1.721458e+09
5.010871e+10 -5.758477e+09 1.846036e+09
-2.317775e+10 -2.530346e+10 -1.045171e+09
-2.502428e+10 3.728576e+09 1.377941e+09
-3.379256e+10 -1.373032e+10 6.030876e+08
6.437418e+10 -2.043253e+10 -5.005270e+07
6.458821e+09 -2.971032e+10 1.226846e+08
-7.154932e+09 -3.035248e+10 -2.070455e+09
5.680649e+10 1.881690e+09 2.935637e+09
-6.121240e+09 -5.300924e+10 -1.251289e+08
2.959730e+09 -4.545261e+10 -1.332028e+08
3.284418e+10 2.590110e+10 1.118946e+09
-3.543504e+10 2.842668e+10 -1.511609e+09
-4.957994e+10 7.963346e+09 -4.045352e+08
-2.272049e+10 3.427335e+09 2.343413e+08
-6.871863e+10 4.756644e+10 -1.158274e+09
6.243568e+10 4.444127e+10 -3.899614e+09
4.494608e+10 -1.780629e+10 1.479209e+09
3.388227e+10 1.230218e+10 2.012618e+09
-2.847386e+10 5.065160e+09 6.716914e+07
-6.226626e+10 2.957376e+10 1.457126e+08
5.631157e+10 2.658810e+10 -3.314772e+09
-6.601047e+10 1.900201e+10 3.598764e+09
9.209370e+09 2.974673e+10 -9.649345e+08
3.430411e+10 -8.512779e+09 1.692614e+08
-2.639884e+10 1.617364e+09 4.853763e+08
1.008287e+09 5.711038e+10 -3.197282e+08
1.784192e+09 5.206219e+10 3.588826e+09
1.602437e+09 -3.576814e+10 -1.972738e+09
6.570328e+09 -3.821771e+10 -1.011077e+09
1.824849e+10 -4.272513e+10 -2.448419e+09
-1.833944e+10 -4.938065e+10 1.191507e+09
-4.536416e+10 1.105931e+10 -2.950292e+08
-6.560941e+10 1.977516e+10 3.060903e+08
4.607365e+10 -2.813929e+10 -4.771722e+08
1.400167e+09 -3.609661e+10 -2.146551e+09
-2.608473e+10 1.201906e+09 3.522169e+07
-1.769311e+09 -3.756574e+10 -2.660026e+08
-4.916396e+10 -4.087910e+10 -6.745287e+08
3.661667e+10 3.668854e+10 -3.350675e+08
-3.393253e+10 2.948566e+10 4.829042e+08
-3.071301e+10 -1.334127e+10 1.266763e+09
2.785107e+10 -2.925372e+10 -1.061701e+08
4.352721e+10 -3.531542e+10 -2.892825e+09
-4.672856e+10 -2.240273e+10 -1.299157e+09
-2.106295e+10 -2.887105e+10 2.596284e+08
6.866400e+10 1.945424e+10 -1.819413e+09
-2.940943e+10 -7.138183e+08 2.218818e+09
2.416080e+10 -2.630279e+10 2.636019e+09
-2.371659e+10 -3.120729e+10 1.318404e+09
-4.087258e+10 3.166967e+10 5.803459e+08
4.144876e+10 3.103036e+10 -1.920909e+09
2.500863e+10 -2.614380e+10 8.595909e+08
-2.491166e+10 -2.023875e+10 -5.818622e+08
-4.641319e+10 7.608714e+09 6.138200e+08
-3.222628e+10 -7.338714e+09 -2.314759e+08
7.242505e+09 4.874981e+10 -1.642179e+09
-1.194103e+10 -2.387651e+10 1.083474e+09
-3.070915e+10 -3.113847e+09 -3.235312e+09
1.223571e+10 -2.939655e+10 2.906722e+09
-1.588294e+10 -3.248929e+10 -7.823666e+08
-4.838207e+09 -3.378383e+10 4.039708e+08
1.650898e+09 -3.890656e+10 8.399409e+07
-4.119627e+10 -1.235888e+10 2.446728e+09
2.085516e+10 5.203205e+10 -1.982071e+09
2.495403e+10 4.737202e+10 1.249811e+09
-2.109550e+10 2.612077e+10 -5.786347e+08
4.958814e+10 6.131784e+10 1.391568e+09
-6.155325e+10 -2.201337e+10 -4.374424e+08
-2.860990e+10 -4.721214e+09 3.266807e+09
-3.885085e+10 -1.652669e+10 2.046336e+09
-5.430815e+10 3.435772e+09 1.920884e+09
-2.404562e+10 2.768174e+10 1.631465e+09
2.521285e+10 -2.061028e+10 2.003497e+09
-9.394062e+09 3.186151e+10 3.173362e+08
4.997290e+10 -2.586232e+10 -2.275298e+09
-1.032286e+10 -2.695732e+10 -1.088817e+09
8.955928e+09 -2.815012e+10 -2.636128e+07
-3.679377e+10 1.451121e+10 2.283307e+08
3.279190e+10 1.359174e+10 4.053605e+08
-2.596729e+10 -4.387231e+09 -1.208239e+09
-3.495318e+10 -2.722451e+10 1.519877e+08
2.914163e+10 -2.113384e+10 2.659890e+09
-2.979983e+10 -1.403929e+10 -2.321349e+09
-5.263407e+10 -2.046757e+10 -1.449206e+09
-3.585655e+10 3.700585e+10 2.642480e+09
-2.101812e+10 6.126981e+10 -3.944527e+08
3.669614e+10 -5.320496e+10 -1.014487e+09
-3.119228e+10 -4.908926e+10 2.794938e+09
9.264206e+09 2.953811e+10 6.443767e+08
-4.844222e+10 -3.313100e+10 9.889276e+07
-3.514165e+10 -9.651353e+09 -3.520123e+08
2.755616e+10 -1.809157e+10 1.658440e+09
-5.584061e+10 2.216166e+10 2.702297e+09
6.701170e+10 2.704228e+10 6.237988e+08
-2.235013e+10 -2.723260e+10 -4.568075e+08
-4.813435e+10 -2.107855e+10 -1.618532e+08
-7.728733e+10 -1.873310e+10 -1.443031e+09
3.734328e+10 -3.245757e+10 3.170331e+09
1.875744e+10 4.797173e+10 -1.410104e+09
5.249648e+10 -4.386232e+10 1.966220e+09
2.084611e+10 -2.198177e+10 3.981812e+09
-2.542878e+10 -8.292002e+09 1.076391e+09
3.283522e+10 -1.209910e+10 -3.328571e+09
1.048382e+09 4.941643e+10 -6.359662e+08
5.123067e+10 -1.693830e+10 -6.317697e+06
4.684336e+10 -4.665002e+09 -6.921912e+08
-4.332368e+10 2.046857e+09 -1.200635e+09
3.610693e+09 6.364715e+10 9.816940e+08
-1.499761e+10 2.936346e+10 2.804359e+09
4.448320e+09 2.373354e+10 9.650787e+08
2.358716e+10 3.387527e+10 -3.053138e+08
-6.566704e+09 -3.255974e+10 9.159560e+08
-3.319921e+10 -1.269931e+10 3.386501e+08
5.715557e+09 -2.429805e+10 -2.519662e+08
3.679029e+10 -1.530898e+09 -2.802734e+09
2.921600e+09 -5.161616e+10 1.361420e+09
-1.009739e+10 -6.283052e+10 -3.105948e+09
-3.178985e+10 -1.741980e+10 1.503575e+09
-3.125539e+10 -5.017818e+09 1.888881e+09
5.053845e+10 -2.604799e+10 2.406499e+09
2.619222e+10 3.390665e+10 -1.983550e+08
3.015274e+10 -5.513194e+09 -1.649885e+09
-2.940772e+10 3.854548e+09 3.109242e+08
-2.848330e+10 -1.412228e+10 1.198348e+09
3.165318e+10 -4.792757e+10 9.199953e+08
2.648844e+10 2.565597e+10 1.235078e+09
-3.248686e+10 3.256306e+10 -1.414641e+09
4.372744e+10 7.910661e+09 -6.638105e+08
-2.553640e+10 3.225572e+10 9.322064e+08
1.228039e+10 3.242866e+10 -7.111871e+08
-1.659586e+10 4.090315e+10 9.445192e+08
-2.025409e+10 -3.445906e+10 2.327816e+09
-2.303935e+10 3.386689e+10 6.479960e+08
-4.054273e+10 6.070630e+09 6.628552e+08
-2.427433e+10 -1.202736e+10 -1.555334e+08
3.316294e+10 -1.874819e+10 2.109018e+09
-6.633187e+10 3.199553e+09 -6.302536e+09
1.635759e+10 -2.403252e+10 1.851452e+09
-2.915576e+10 1.423956e+10 -4.019655e+09
4.248187e+10 7.103510e+09 1.207800e+09
4.686340e+10 -3.620053e+10 -3.116157e+09
-3.200027e+10 -1.126114e+10 -1.809791e+09
1.523737e+09 4.908752e+10 6.699872e+08
-2.211184e+10 -2.658962e+10 -3.100789e+08
5.603262e+08 4.452610e+10 7.430527e+08
-2.679788e+10 -1.682011e+10 -2.020496e+09
-2.813103e+10 3.328960e+10 -4.507551e+08
4.869940e+10 -2.913758e+10 -8.143895e+08
2.867667e+10 3.091975e+10 -5.177049e+09
-4.989188e+10 -3.651579e+10 6.702302e+08
3.060053e+10 4.624699e+09 -1.892102e+09
1.623352e+10 -2.294672e+10 -9.456155e+08
3.819827e+10 3.351053e+10 1.548913e+09
-3.679927e+10 3.110688e+10 -1.225075e+09
-4.611686e+10 3.562132e+09 1.215770e+09
-5.901227e+10 7.339481e+09 -3.800506e+09
-2.097875e+10 -1.439652e+10 9.166930e+08
1.122775e+10 -5.591273e+10 7.666360e+08
-1.769184e+10 -7.547623e+10 2.376858e+09
3.268376e+10 3.733867e+09 -1.983377e+09
-3.033628e+10 1.242668e+10 -1.292213e+09
-2.958663e+10 1.963406e+10 -1.489037e+09
2.709453e+10 1.967375e+10 -1.802496e+09
3.760424e+10 -4.374473e+10 9.728493e+08
1.958143e+10 -1.797662e+10 -6.796177e+08
2.744909e+10 1.190026e+10 -3.546016e+07
1.712536e+10 7.574938e+10 -1.999187e+09
-2.554442e+10 -1.879535e+10 -2.674668e+09
-3.155844e+10 6.181212e+10 -3.326361e+09
-5.757517e+09 2.798408e+10 1.190543e+09
-3.779545e+10 7.479405e+09 -1.228833e+08
5.632364e+10 -1.759909e+10 -1.665304e+09
-3.188975e+10 3.789867e+10 -6.818829e+08
5.010163e+10 4.483034e+10 1.830056e+09
-6.421091e+10 5.515240e+10 -9.444948e+08
-7.734674e+09 2.715493e+10 -1.367574e+09
-3.202647e+10 -2.797349e+10 1.130068e+09
6.561550e+10 1.351289e+10 3.948852e+09
-2.543273e+10 -2.168068e+10 2.854867e+09
-3.502798e+09 3.135034e+10 -4.796158e+08
-8.038827e+09 3.580573e+10 -9.818074e+07
4.984653e+10 -2.512745e+10 3.151968e+09
-3.518809e+10 -6.656153e+09 -9.957218e+07
1.291330e+10 -2.872991e+10 -3.259011e+09
-5.332546e+09 3.436761e+10 -3.353501e+09
7.624921e+10 9.793934e+09 -1.808447e+09
-3.171658e+10 -3.076809e+10 -4.566267e+08
-5.904612e+10 -6.466226e+09 -2.729061e+09
-3.705206e+10 4.842509e+10 8.855454e+08
-2.356422e+10 -2.148841e+10 -3.722721e+09
-2.737735e+10 1.779343e+09 3.862445e+08
-4.026277e+10 1.563438e+10 2.330082e+08
2.092809e+09 3.147308e+10 -2.659582e+09
-2.545918e+10 1.195283e+10 5.883841e+07
-4.222150e+10 -3.602254e+10 -1.714330e+09
-1.222685e+10 5.553268e+10 -4.278090e+08
5.838278e+10 2.581290e+10 -2.921847e+09
4.649956e+10 1.659332e+10 1.793884e+08
3.828637e+10 1.887023e+10 1.374639e+09
3.823486e+10 -1.580425e+10 3.233768e+08
-1.775071e+10 -1.881807e+10 -6.395043e+08
7.209368e+08 2.668895e+10 -6.224746e+08
-2.337337e+10 9.492919e+09 1.551056e+09
3.317779e+10 1.640730e+10 2.622869e+09
-3.156185e+10 1.795677e+10 9.840607e+08
4.023838e+10 5.675031e+10 1.674503e+09
-2.060493e+10 -2.461205e+10 8.795844e+08
2.959583e+10 -6.853624e+09 -1.238834e+09
2.205273e+10 2.570265e+10 -1.698658e+08
-7.716432e+09 3.029411e+10 1.544263e+08
-3.985775e+10 7.088443e+10 -5.199809e+08
-1.720379e+10 -1.978834e+10 -6.652170e+08
-3.563693e+10 -1.910350e+10 -3.818928e+09
1.335690e+10 -4.413926e+10 1.172180e+09
-1.429621e+10 -3.490725e+10 -1.440639e+09
-6.744029e+10 1.254862e+10 4.159860e+09
-2.765111e+10 -6.133011e+09 -9.849747e+08
-6.617571e+10 1.466522e+10 -9.805701e+08
-4.855933e+10 1.407342e+10 4.248027e+08
1.043248e+10 -2.398438e+10 1.232371e+09
-1.413320e+10 -3.303109e+10 1.613896e+09
4.518502e+10 -1.359582e+08 -1.860097e+09
-1.701634e+10 -2.180084e+10 4.087910e+08
-1.550543e+10 5.759348e+10 -5.724130e+09
3.167459e+10 3.658049e+10 -3.325928e+09
-2.825351e+09 -2.642607e+10 3.184946e+06
1.589305e+09 -2.718095e+10 1.003280e+08
-5.412283e+10 8.504490e+09 -1.789518e+09
-8.738470e+09 -2.413602e+10 -1.018287e+09
-7.784853e+10 -1.524651e+10 -2.796378e+09
3.591171e+09 -7.088979e+10 -6.774555e+09
4.818497e+08 -6.453551e+10 8.937855e+08
2.839167e+10 3.537952e+09 -7.397047e+08
-1.725990e+10 -2.517068e+10 3.293523e+09
-3.093679e+10 1.204365e+10 2.178911e+09
2.582681e+10 1.671466e+10 -2.858693e+08
-3.149091e+10 2.269692e+10 -2.178068e+09
-3.575233e+10 1.741439e+10 3.153970e+09
3.717549e+10 2.012815e+10 2.463329e+09
2.114558e+08 -3.058708e+10 -2.273147e+09
-4.380674e+08 -3.205220e+10 2.437457e+08
-1.313575e+10 -3.333664e+10 -2.467392e+09
1.275921e+10 -2.971395e+10 -9.076404e+08
1.007000e+10 5.435237e+10 9.119831e+08
-1.552629e+10 -2.459428e+10 -6.807845e+07
-3.594298e+10 3.524825e+08 1.759672e+09
5.433847e+10 1.877678e+10 -8.317776e+08
-4.312963e+10 1.957845e+10 9.195255e+07
2.905846e+10 -1.305811e+10 -7.994315e+08
5.151824e+10 1.218083e+10 -1.098200e+09
-3.539903e+10 -9.599111e+09 -3.885554e+08
1.467216e+10 2.660004e+10 1.800233e+09
-2.513231e+10 -2.658769e+10 -2.929814e+09
-1.979760e+10 2.105276e+10 8.569724e+08
2.111977e+10 2.655169e+10 -2.717885e+09
-1.556128e+10 -3.021464e+10 1.545274e+07
-2.584483e+10 -1.097409e+10 1.241217e+09
3.367639e+10 -5.487944e+09 4.547797e+08
1.785394e+10 4.991254e+10 -6.993078e+08
3.304233e+10 -5.121302e+10 1.055620e+09
-1.275284e+10 2.558488e+10 -2.800626e+09
-5.913900e+09 4.284428e+10 -4.345080e+08
-4.363061e+10 -3.727105e+10 1.536456e+09
-3.491770e+10 -6.543649e+08 -1.275297e+09
-4.014547e+10 1.938717e+08 -2.129422e+08
2.692645e+10 -4.807662e+08 4.819697e+08
-1.384812e+10 -2.908343e+10 -2.864901e+09
-5.197296e+10 -7.723597e+09 -6.009146e+08
-3.729877e+10 6.897049e+09 2.500899e+09
4.875659e+10 3.306817e+10 -2.261941e+09
-4.479498e+10 3.107495e+10 1.103176e+09
5.857350e+10 1.630319e+10 -1.498682e+09
-2.904418e+10 2.113292e+10 1.301591e+09
2.954789e+10 2.666265e+10 1.849163e+09
7.834968e+09 -3.280639e+10 2.391675e+09
-8.100748e+09 -3.001398e+10 -1.008772e+09
4.609550e+10 -1.811858e+10 -1.518565e+09
-9.337802e+09 -2.483461e+10 -1.413444e+09
-2.349871e+10 2.592169e+10 1.085254e+09
2.919682e+10 3.161898e+10 1.716121e+09
1.728201e+10 -4.808030e+10 1.723115e+09
-2.315558e+10 -5.485134e+10 -4.261419e+08
-2.558331e+10 -4.838866e+10 -3.367172e+08
2.329514e+10 -4.482707e+10 5.316958e+08
3.319788e+10 -1.218137e+10 1.966084e+09
2.391163e+10 2.801977e+10 1.686464e+09
-4.217480e+10 -2.234474e+10 -9.069582e+08
4.809283e+10 -1.424627e+10 1.249852e+09
-9.658898e+09 -2.474288e+10 1.068774e+09
2.687489e+10 1.444551e+10 4.486705e+08
3.524392e+10 1.306376e+10 -8.518808e+08
6.214207e+10 4.192573e+09 -3.860732e+08
-5.619269e+10 3.494558e+10 5.055860e+08
5.104266e+10 3.822358e+10 -5.175338e+08
2.340568e+10 -6.522151e+09 1.077069e+09
2.528130e+10 -1.618843e+10 -1.477592e+09
-7.864947e+10 -8.760053e+09 -1.267647e+09
3.656099e+10 -4.042128e+10 -8.235328e+08
-1.640682e+10 -5.326737e+10 -7.560900e+07
-9.306544e+09 -3.152100e+10 4.088452e+09
1.603990e+10 -4.087477e+10 9.950542e+08
-5.304835e+10 1.476336e+10 -2.475518e+09
-4.047319e+10 -4.248051e+10 8.096562e+07
2.793233e+09 3.005036e+10 1.184740e+09
-2.561435e+10 -7.146406e+10 -2.386521e+09
2.695271e+10 -6.640021e+10 1.069962e+09
4.807629e+10 4.119777e+10 1.368510e+09
2.360637e+10 2.226738e+10 3.632189e+09
-2.240913e+10 2.414629e+10 1.259539e+09
4.190380e+10 -1.496531e+10 -5.159498e+08
-6.341607e+09 -3.009587e+10 -5.860209e+08
-2.742237e+10 -4.289685e+10 -1.426719e+08
2.007354e+10 -3.585491e+10 1.223505e+09
1.575331e+10 5.927790e+10 -3.191529e+09
-1.518737e+10 3.070803e+10 1.704534e+09
3.663697e+10 1.202739e+10 -2.142048e+09
-2.576837e+10 -3.034945e+10 1.325076e+09
-2.925359e+10 4.152644e+10 -7.357255e+08
3.690157e+10 -3.011830e+10 -1.118494e+09
-4.074636e+10 1.002323e+10 -1.429053e+09
-4.587649e+10 -2.904072e+10 1.524630e+09
-5.492813e+09 -3.128929e+10 2.488256e+08
-2.981475e+10 4.792837e+10 -8.988402e+08
-3.810147e+10 -3.082695e+10 9.368312e+08
1.708381e+10 -3.970529e+10 8.605459e+06
-1.220136e+10 -5.086269e+10 -3.528392e+08
2.030892e+10 4.136635e+10 1.688853e+09
2.550046e+10 7.056589e+10 -8.266618e+08
-8.615719e+09 3.440085e+10 1.315269e+09
-2.871247e+10 -1.338759e+10 1.090682e+09
-6.938750e+10 3.098290e+10 -1.315345e+09
3.826566e+10 -9.460974e+09 -1.606877e+09
-3.304380e+09 -3.458234e+10 3.542381e+09
-2.321507e+10 2.321213e+10 -4.121090e+08
2.701685e+10 3.275116e+10 -1.984847e+09
3.185562e+10 -5.145858e+10 -2.088915e+09
-2.913116e+10 -4.908103e+10 -1.082651e+09
-3.806163e+10 1.463450e+10 1.691077e+08
5.460167e+10 -5.222976e+10 3.462481e+09
-4.531920e+10 -9.627581e+09 2.764909e+08
-1.407646e+10 -6.373269e+10 -8.279191e+07
1.577001e+10 -5.388261e+10 4.612069e+08
-3.340438e+10 2.841551e+10 9.845826e+08
-1.677538e+09 -2.821396e+10 4.028011e+08
2.822908e+10 2.703500e+10 -3.406048e+08
3.019027e+10 -3.481000e+10 -7.295697e+08
-3.114178e+10 1.247813e+10 -1.150912e+09
-2.208770e+10 2.911489e+10 -1.278507e+09
1.621510e+10 2.289629e+10 7.641426e+08
-5.024704e+10 -2.483837e+10 -3.295000e+09
1.175419e+10 -3.429565e+10 -2.363369e+09
5.151226e+10 1.107158e+10 2.801172e+09
-2.971497e+10 -2.099455e+09 2.648659e+09
-1.823067e+10 4.029027e+10 -7.106543e+07
5.512128e+08 -3.907505e+10 -7.769865e+07
2.675108e+10 -2.493121e+10 -1.048990e+09
-5.893839e+10 1.084852e+10 5.393218e+09
-1.030845e+10 -6.260875e+10 2.409808e+09
6.276362e+09 -5.789197e+10 -3.558401e+08
2.039227e+10 2.568999e+10 -8.898296e+08
5.427220e+10 -2.763645e+09 -7.094154e+06
2.978298e+10 -2.081808e+10 -7.584928e+08
3.175827e+10 7.184288e+10 3.017475e+09
3.214756e+10 6.241949e+09 2.126221e+09
-1.466041e+10 3.433618e+10 2.915442e+09
-1.576506e+09 -3.393555e+10 5.366199e+08
-4.605679e+10 -9.318107e+09 -5.420560e+08
-4.184567e+10 -1.980081e+10 3.823553e+08
-5.656550e+10 1.320359e+10 9.735762e+08
2.596499e+10 -4.034239e+10 -5.655144e+08
2.486596e+10 7.252909e+10 -1.446720e+09
3.761738e+10 -2.043850e+10 -7.377544e+08
-4.193911e+10 -5.340341e+10 6.407820e+07
-3.329428e+10 -4.197879e+09 1.179223e+09
8.047712e+10 1.459323e+10 -2.508477e+09
1.938505e+10 -3.198001e+10 5.474657e+07
-3.167256e+09 -4.042578e+10 1.172602e+09
-1.546290e+10 -3.211742e+10 -8.160334e+08
1.132833e+10 -2.811939e+10 8.464875e+08
-2.150037e+10 1.694260e+10 -1.324743e+08
2.356831e+10 1.753911e+10 3.760667e+08
3.013128e+10 -2.593045e+10 5.083201e+07
-2.277857e+10 3.090651e+10 -1.672896e+09
5.267753e+10 1.445689e+10 5.150655e+08
-4.292687e+10 -3.124821e+10 -3.507319e+09
-7.630976e+09 -3.473992e+10 3.937969e+09
6.086760e+09 -2.858134e+10 9.052635e+08
-8.294057e+08 -6.150319e+10 -7.105840e+08
-3.272924e+10 3.484599e+10 -8.104204e+08
-2.453256e+10 -2.520843e+10 2.121964e+09
4.073602e+10 -4.126089e+10 -2.918590e+08
2.009371e+10 4.052066e+10 1.602147e+09
-4.812131e+10 -2.126815e+10 3.580515e+08
-1.936342e+10 -4.079477e+10 -1.110507e+09
5.093289e+10 2.239580e+10 -1.871099e+08
4.571096e+10 4.894803e+09 1.010654e+09
-2.734636e+08 -5.172903e+10 1.538722e+09
1.687432e+09 -4.591981e+10 1.441223e+09
1.413836e+09 -5.346806e+10 -1.129715e+09
7.846473e+09 3.190735e+10 1.823183e+09
6.729532e+09 4.800979e+10 8.934620e+08
-3.238516e+10 7.194154e+07 3.707417e+08
4.907179e+10 4.570118e+10 5.234736e+09
-5.294414e+10 -3.357235e+10 1.456469e+08
-5.239112e+10 -2.384257e+10 -7.695235e+08
-7.427350e+10 -3.667408e+09 -3.666489e+09
-3.173714e+10 -2.900494e+10 -5.528913e+08
-3.932243e+10 -1.133252e+10 4.010414e+08
-1.932964e+10 3.422957e+10 3.149103e+08
9.551284e+08 -6.488926e+10 -2.794523e+09
-4.190571e+10 -2.586452e+10 -7.922222e+08
-2.223718e+09 6.188528e+10 7.164380e+08
1.762699e+10 2.901902e+10 -1.827135e+09
2.273516e+10 4.500415e+10 -2.826779e+09
3.911202e+10 6.818763e+10 -3.091541e+09
-1.458324e+10 2.575417e+10 1.760991e+09
3.825673e+10 4.334655e+10 -1.548339e+09
-3.761149e+10 3.040891e+10 2.399522e+09
3.750514e+10 -4.051677e+10 -1.464099e+09
-3.616575e+10 -3.776063e+10 -2.393229e+09
-7.235007e+07 -7.580940e+10 -8.723423e+08
5.163813e+10 -1.134839e+10 6.435908e+08
1.302242e+10 3.779459e+10 2.225132e+08
-1.493875e+10 -2.844940e+10 2.271540e+08
2.814799e+10 8.843662e+09 -9.852708e+08
-3.128907e+10 -4.562137e+10 2.556319e+08
4.413211e+10 5.122714e+10 1.991453e+09
3.213886e+09 3.542000e+10 -1.595446e+09
1.826734e+10 -7.160239e+10 -2.274734e+09
-1.388107e+10 -4.658900e+10 -1.347866e+09
-1.656811e+10 5.529632e+10 5.646458e+09
-2.873221e+08 -6.912675e+10 1.920671e+08
3.186084e+10 3.216407e+10 -7.564298e+08
-2.783918e+10 2.890447e+10 -1.098187e+09
3.436185e+10 2.712708e+10 -2.005076e+09
-3.039102e+10 2.787489e+10 1.102560e+09
2.601107e+10 -3.152210e+10 -9.366118e+08
-4.759625e+10 -4.409434e+10 -1.830408e+09