# vtk DataFile Version 2.0
Electric current density generated by TTH
ASCII
DATASET UNSTRUCTURED_GRID
POINTS 1478 double
6.673339e-06 -1.634497e-21 9.345937e-07
-1.076044e-05 -9.929154e-07 -1.563051e-06
-8.925941e-06 4.733912e-06 2.141559e-06
-8.925941e-06 -4.733912e-06 2.141559e-06
8.360622e-06 2.988052e-06 2.441676e-06
8.360622e-06 -2.988052e-06 2.441676e-06
-1.936488e-06 -6.581309e-06 1.296982e-06
-1.936488e-06 6.581309e-06 1.296982e-06
7.057912e-06 8.029619e-06 1.692172e-06
7.057912e-06 -8.029619e-06 1.692172e-06
2.190541e-06 1.105124e-05 7.104039e-07
6.487437e-06 -1.588964e-21 -7.854750e-22
2.190541e-06 -1.105124e-05 7.104039e-07
2.089866e-06 6.215602e-06 5.809206e-07
2.089866e-06 -6.215602e-06 5.809206e-07
-5.925046e-06 -2.694916e-06 3.247650e-07
1.479745e-06 6.869105e-06 -1.530722e-06
1.479745e-06 -6.869105e-06 -1.530722e-06
-9.793924e-06 4.698869e-06 -1.492427e-06
2.292200e-07 6.606937e-06 -7.667185e-07
2.292200e-07 -6.606937e-06 -7.667185e-07
-1.029100e-05 1.447439e-06 1.955781e-06
6.673339e-06 -1.634497e-21 -9.345937e-07
-5.514307e-06 9.193443e-06 1.660603e-06
-5.514307e-06 -9.193443e-06 1.660603e-06
-1.796052e-06 -8.777074e-06 2.442035e-06
-1.796052e-06 8.777074e-06 2.442035e-06
-7.571647e-06 6.617712e-06 -2.166942e-06
-7.571647e-06 -6.617712e-06 -2.166942e-06
1.005749e-05 5.127090e-06 -6.309894e-07
1.005749e-05 -5.127090e-06 -6.309894e-07
-5.502040e-06 9.407820e-06 -1.444859e-06
-5.502040e-06 -9.407820e-06 -1.444859e-06
7.202744e-06 -1.764164e-21 -1.726904e-06
5.441218e-06 9.866410e-06 7.068243e-07
5.441218e-06 -9.866410e-06 7.068243e-07
-1.103939e-05 -2.447374e-06 -5.573031e-07
-1.039327e-05 -2.522132e-06 -1.687674e-06
5.018623e-06 -7.885274e-06 2.406307e-06
5.018623e-06 7.885274e-06 2.406307e-06
-3.205542e-06 -6.009407e-06 -1.214634e-06
-3.205542e-06 6.009407e-06 -1.214634e-06
-3.914544e-06 -6.640157e-06 -2.114781e-06
-3.914544e-06 6.640157e-06 -2.114781e-06
7.995055e-06 -1.958224e-21 -2.256309e-06
1.003031e-05 5.221449e-06 5.548678e-07
1.003031e-05 -5.221449e-06 5.548678e-07
1.033755e-05 2.883358e-06 1.647855e-06
1.033755e-05 -2.883358e-06 1.647855e-06
-3.589762e-06 6.353385e-06 1.816625e-06
-3.590032e-06 -6.353200e-06 1.816599e-06
-2.062316e-06 -6.291643e-06 -7.966402e-07
-2.062316e-06 6.291643e-06 -7.966402e-07
3.623958e-06 1.030803e-05 -1.406040e-06
3.623958e-06 -1.030803e-05 -1.406040e-06
8.929648e-06 -2.187133e-21 -2.442211e-06
-1.888492e-06 7.860381e-06 -2.291151e-06
-1.888492e-06 -7.860381e-06 -2.291151e-06
2.080015e-06 8.029925e-06 -2.358294e-06
2.080015e-06 -8.029925e-06 -2.358294e-06
1.031068e-05 1.959192e-06 -1.874446e-06
1.030532e-05 -1.956557e-06 -1.879236e-06
-2.447889e-06 1.104171e-05 -5.470572e-07
-2.447889e-06 -1.104171e-05 -5.470572e-07
-5.968055e-06 7.708268e-06 -2.300809e-06
-5.968055e-06 -7.708268e-06 -2.300809e-06
9.864242e-06 -2.416042e-21 -2.256309e-06
1.476371e-06 1.121415e-05 -5.421562e-07
1.476371e-06 -1.121415e-05 -5.421562e-07
-1.121429e-05 1.476390e-06 -5.415429e-07
-5.337502e-06 -6.362294e-06 -2.360892e-06
-5.335248e-06 6.366227e-06 -2.361306e-06
5.423951e-06 -8.908449e-06 -1.927196e-06
5.423951e-06 8.908449e-06 -1.927196e-06
-9.511615e-06 -2.990370e-06 -2.209250e-06
6.346078e-06 -1.379970e-06 1.840676e-07
6.341817e-06 1.404294e-06 1.974906e-07
1.065655e-05 -2.610103e-21 -1.726904e-06
-1.045067e-05 -4.328811e-06 -5.385969e-07
2.899148e-06 -8.534945e-06 -2.440757e-06
2.899148e-06 8.534945e-06 -2.440757e-06
8.317201e-06 -7.659456e-06 -5.600691e-07
8.317201e-06 7.659456e-06 -5.600691e-07
9.831772e-06 -3.344310e-06 1.961213e-06
9.831772e-06 3.344310e-06 1.961213e-06
1.027915e-05 -2.005199e-06 1.892815e-06
1.027790e-05 2.006803e-06 1.893567e-06
2.114565e-06 -9.425309e-06 -2.330572e-06
1.118596e-05 -2.739769e-21 -9.345937e-07
2.114565e-06 9.425309e-06 -2.330572e-06
-6.739595e-06 -6.990764e-06 2.314030e-06
-6.739595e-06 6.990764e-06 2.314030e-06
-7.179399e-06 3.532475e-06 -2.258920e-06
1.078988e-05 -3.402037e-06 -5.306808e-07
1.078988e-05 3.402037e-06 -5.306808e-07
-6.485400e-06 8.208615e-07 -4.902119e-07
9.499554e-06 -1.817093e-06 -2.326721e-06
9.514760e-06 1.811960e-06 -2.322218e-06
-5.224001e-06 1.003521e-05 5.306250e-07
2.968047e-06 -6.954805e-06 2.023113e-06
-5.224001e-06 -1.003521e-05 5.306250e-07
-5.219637e-08 -6.488470e-06 7.791525e-08
-5.219637e-08 6.488470e-06 7.791525e-08
-7.095333e-06 1.028184e-06 -1.692948e-06
-5.281087e-06 -3.894302e-06 5.975407e-07
-5.449206e-06 -3.664846e-06 -6.181357e-07
-7.351119e-06 2.138518e-06 -2.083714e-06
-1.186248e-06 8.133129e-06 2.336586e-06
-1.186248e-06 -8.133129e-06 2.336586e-06
1.906808e-06 -6.312471e-06 -7.141319e-07
2.968047e-06 6.954805e-06 2.023113e-06
1.906808e-06 6.312471e-06 -7.141319e-07
-9.543110e-06 -6.079632e-06 5.231849e-07
-9.543110e-06 6.079632e-06 5.231849e-07
-4.474680e-06 -7.973637e-06 -2.432839e-06
-4.474680e-06 7.973637e-06 -2.432839e-06
-6.191072e-06 -3.204688e-06 1.459237e-06
-1.016231e-05 2.788560e-06 1.837859e-06
-1.016231e-05 -2.788560e-06 1.837859e-06
-6.437294e-06 -8.728486e-07 2.067025e-07
-6.274954e-06 -8.131699e-06 2.040679e-06
-1.081370e-05 -1.413934e-08 1.553928e-06
-6.274954e-06 8.131699e-06 2.040679e-06
-8.149555e-06 -5.000397e-06 2.359102e-06
-8.149330e-06 5.000285e-06 2.359169e-06
1.772187e-06 -9.936692e-06 2.147062e-06
1.772187e-06 9.936692e-06 2.147062e-06
6.825714e-06 6.592519e-07 -1.292478e-06
6.829723e-06 -6.203902e-07 -1.293063e-06
-3.013933e-07 -1.071063e-05 1.666545e-06
-3.013933e-07 1.071063e-05 1.666545e-06
-1.017357e-05 -3.671968e-06 1.551203e-06
-4.859314e-06 4.332373e-06 3.324836e-07
-1.017541e-05 3.684488e-06 1.543894e-06
8.423881e-06 5.166722e-06 -2.248810e-06
8.423881e-06 -5.166722e-06 -2.248810e-06
-2.384236e-06 9.954932e-06 2.063158e-06
-2.384236e-06 -9.954932e-06 2.063158e-06
-4.936449e-07 1.130633e-05 -5.142746e-07
-4.936449e-07 -1.130633e-05 -5.142746e-07
-8.737238e-06 -2.129132e-06 -2.441391e-06
5.535152e-06 -3.427288e-06 3.335029e-07
5.535152e-06 3.427288e-06 3.335029e-07
-4.823594e-06 -4.420009e-06 5.154022e-07
-3.261048e-06 6.919165e-06 -2.079587e-06
-3.261048e-06 -6.919165e-06 -2.079587e-06
8.049033e-06 -4.647003e-06 2.414854e-06
8.049033e-06 4.647003e-06 2.414854e-06
-6.817531e-06 6.165867e-06 -2.428056e-06
-6.817531e-06 -6.165867e-06 -2.428056e-06
-6.219923e-06 3.186418e-06 1.482152e-06
-1.001671e-05 -3.867425e-06 -1.642100e-06
7.953866e-06 6.984228e-07 -2.251896e-06
7.953866e-06 -6.984228e-07 -2.251896e-06
7.053541e-06 6.257967e-06 -2.390521e-06
4.876158e-06 -6.894387e-06 -2.393537e-06
4.876158e-06 6.894387e-06 -2.393537e-06
-1.013240e-05 -4.950565e-06 -6.736093e-07
7.057937e-06 -7.016891e-06 2.217718e-06
7.057937e-06 7.016891e-06 2.217718e-06
-8.620542e-06 -1.890456e-07 -2.422834e-06
1.281906e-06 -7.301027e-06 1.913973e-06
1.281906e-06 7.301027e-06 1.913973e-06
-4.010201e-06 8.023238e-06 -1.072745e-08
-4.121649e-06 -7.980658e-06 -1.013465e-07
7.053541e-06 -6.257967e-06 -2.390521e-06
-7.536946e-06 5.027879e-06 1.733591e-07
-7.177855e-06 -5.323360e-06 2.079297e-08
-8.859594e-06 1.140695e-06 1.579038e-07
5.152437e-06 7.255776e-06 -1.850998e-07
3.074978e-06 8.504259e-06 -1.599109e-07
8.731722e-06 1.199778e-06 6.837318e-08
4.808194e-06 -7.534827e-06 1.673142e-07
2.840057e-06 -8.532817e-06 -1.807802e-08
8.587793e-06 -2.660349e-06 1.309141e-07
7.261353e-06 -5.188684e-06 5.175293e-08
7.754498e-06 -5.323765e-06 2.395285e-06
6.973156e-06 5.784807e-06 -6.886123e-08
-8.518354e-06 -2.891376e-06 1.682119e-09
-1.976568e-06 -8.646695e-06 5.353796e-08
-2.015149e-06 8.678076e-06 -3.717482e-08
6.319934e-07 8.853183e-06 6.381769e-09
-6.043631e-06 6.788554e-06 6.975070e-09
6.232942e-07 -9.156427e-06 -4.729673e-09
9.025595e-06 -1.841305e-07 -2.431762e-07
8.151137e-06 3.760405e-06 -5.131328e-08
-5.476644e-06 -7.038384e-06 -2.264089e-08
7.754498e-06 5.323765e-06 2.395285e-06
-8.529217e-06 2.542178e-06 -9.879711e-08
8.155025e-06 -3.957308e-06 -1.308013e-08
-8.692967e-06 -6.988216e-07 -7.529453e-08
-6.950143e-06 -3.362637e-06 6.111945e-07
6.463246e-06 -7.150648e-06 5.886688e-07
-5.639278e-06 8.394410e-06 -5.773241e-07
-2.626430e-06 7.013763e-06 -1.090417e-07
-2.522067e-06 -7.166094e-06 -2.052228e-07
-7.671254e-06 6.259496e-06 9.626567e-07
-9.138538e-06 -4.762148e-06 -3.531953e-07
1.454995e-06 6.626601e-06 1.167281e-06
4.623614e-06 8.913453e-06 -6.890487e-07
-6.754769e-06 -6.656099e-06 1.257219e-06
4.279583e-06 -9.029372e-06 -3.204493e-07
-9.979827e-06 -1.412478e-06 9.476756e-08
-7.007725e-06 5.944743e-06 -1.516860e-06
-9.825834e-06 -1.458076e-07 8.300275e-07
-6.965335e-06 3.224615e-06 8.364549e-07
-9.543315e-06 2.337168e-06 1.191593e-06
-6.201288e-06 -7.945864e-06 1.086553e-06
3.666243e-06 -7.894089e-06 1.375486e-06
1.454995e-06 -6.626601e-06 1.167281e-06
6.144992e-06 6.451605e-06 1.194951e-06
3.648252e-06 7.401954e-06 -1.113054e-06
1.975574e-06 9.544809e-06 1.204435e-06
7.014872e-06 7.081167e-06 -5.853823e-07
3.902342e-06 7.377990e-06 8.979645e-07
-9.064562e-06 2.105103e-08 -1.272982e-06
7.985692e-06 5.622015e-07 1.039966e-06
-5.641121e-06 -8.485766e-06 -8.915262e-07
-3.411105e-06 9.580180e-06 -2.881955e-07
-3.466494e-06 -9.558988e-06 -3.368417e-07
-6.180949e-06 2.560233e-06 9.743271e-07
7.372428e-06 -4.022996e-06 1.339774e-06
7.055249e-06 -2.792224e-06 1.850455e-07
-8.062117e-06 -3.621983e-06 -1.318060e-06
7.852908e-06 -6.433543e-07 9.631666e-07
1.015124e-05 -1.298042e-06 6.924670e-07
6.413726e-06 3.699209e-06 -3.393133e-08
7.188167e-06 2.841883e-06 -7.239998e-07
1.395749e-06 -8.323719e-06 1.172936e-06
1.898777e-06 -1.003491e-05 -7.041237e-08
1.677888e-06 7.487896e-06 -4.914517e-07
-6.180949e-06 -2.560233e-06 9.743271e-07
-4.374675e-06 -6.547069e-06 8.714228e-07
5.723465e-06 -6.458377e-06 -9.429020e-07
-4.682563e-06 6.843931e-06 1.039367e-06
-4.742485e-06 6.693231e-06 -1.084013e-06
7.879531e-06 4.582598e-06 1.521146e-06
-8.431017e-06 -3.354122e-06 1.424376e-06
7.753375e-06 2.756509e-06 1.211030e-06
4.852078e-06 -6.003911e-06 5.629159e-07
1.473070e-06 -8.057193e-06 -1.085580e-06
-7.521949e-07 9.804978e-06 -3.214948e-07
9.604176e-06 -3.714600e-06 -2.023211e-06
[...]
POINT_DATA 1478
VECTORS 10.000GHz_fone_imag double
8.530562e+09 -1.609646e+11 1.757301e+09
-8.113061e+09 5.193245e+10 4.664155e+09
3.763913e+10 6.182582e+10 6.472413e+09
-3.876571e+10 5.614314e+10 -4.924103e+09
2.515776e+10 -7.301446e+10 -1.106666e+09
-2.090247e+10 -7.782279e+10 -5.181802e+08
-2.155448e+11 6.702368e+10 -8.444641e+09
2.179193e+11 5.629808e+10 -9.309642e+09
4.839505e+10 -4.498752e+10 1.949117e+09
-4.061208e+10 -3.608074e+10 -1.591625e+09
3.881314e+10 -7.944661e+09 1.636028e+09
1.566523e+10 -2.259076e+11 -1.354918e+10
-3.673365e+10 -6.334317e+09 -3.351236e+09
2.133686e+11 -7.586453e+10 -1.338081e+10
-1.667297e+11 -5.792214e+10 -4.429054e+09
-6.266397e+10 1.689407e+11 -5.140585e+09
1.768734e+11 -5.047983e+10 8.386354e+09
-1.409459e+11 -4.134288e+10 -3.528404e+09
1.942042e+10 4.234511e+10 -3.471343e+08
2.047242e+11 -2.379561e+10 6.442911e+09
-1.751021e+11 -8.249023e+09 -9.264660e+09
7.438088e+09 7.679026e+10 -2.101616e+09
1.524012e+10 -2.057897e+11 -3.366361e+09
5.106488e+10 3.065909e+10 -7.508680e+07
-4.403275e+10 2.353346e+10 -2.991728e+09
-9.357447e+10 1.627250e+10 9.557846e+08
9.904511e+10 5.954881e+09 2.879527e+08
3.994290e+10 4.676680e+10 -9.581360e+07
-5.233382e+10 5.988809e+10 -2.529047e+08
1.889791e+10 -3.429194e+10 3.905234e+08
-2.300902e+10 -4.678142e+10 3.530801e+09
4.800653e+10 2.798651e+10 -3.458943e+09
-4.603664e+10 2.549546e+10 1.707235e+09
-2.172906e+09 -1.526242e+11 1.550450e+09
4.095231e+10 -2.264662e+10 -9.825710e+08
-4.194771e+10 -2.398898e+10 -2.515739e+09
-1.063038e+10 4.957371e+10 -1.120917e+09
-1.220627e+10 6.127630e+10 -2.432298e+09
-6.736364e+10 -4.643338e+10 -5.698962e+08
7.873486e+10 -5.588882e+10 -2.118694e+09
-1.384780e+11 7.368622e+10 3.565187e+09
1.970885e+11 1.087349e+11 -4.726396e+09
-1.408917e+11 7.468827e+10 5.656060e+09
1.086144e+11 5.860894e+10 -2.208270e+09
3.093153e+09 -1.583974e+11 -6.090058e+08
2.144543e+10 -4.142988e+10 -1.551863e+08
-2.196695e+10 -4.309496e+10 -4.916765e+09
1.230254e+10 -4.359235e+10 -5.994797e+08
-1.939194e+10 -6.267326e+10 2.136871e+09
1.444507e+11 8.215689e+10 3.665046e+09
-1.187971e+11 7.276398e+10 -5.600851e+09
-1.932832e+11 6.014933e+10 1.847986e+10
1.711782e+11 5.554392e+10 -1.273598e+10
5.390506e+10 -1.463740e+10 4.984207e+09
-5.537362e+10 -1.935825e+10 -5.927941e+08
-1.014760e+09 -9.019216e+10 -1.468817e+09
1.327498e+11 3.882523e+10 -1.799889e+09
-1.093407e+11 2.803781e+10 -1.021460e+09
1.188539e+11 -2.955031e+10 7.786523e+08
-9.422701e+10 -2.244065e+10 5.017048e+09
1.049801e+10 -6.878785e+10 -5.547334e+08
-7.630003e+09 -5.212141e+10 9.694656e+08
5.073240e+10 1.182330e+10 2.520623e+09
-4.456171e+10 8.638344e+09 6.430194e+09
7.730470e+10 5.748468e+10 -6.639516e+08
-6.460133e+10 5.098666e+10 -1.166027e+09
2.339453e+09 -7.252649e+10 4.164136e+08
4.646584e+10 -6.285344e+09 -6.476766e+08
-4.630675e+10 -8.568926e+09 2.721362e+09
3.765126e+09 3.595332e+10 1.597729e+09
-7.275418e+10 6.531124e+10 1.831128e+09
7.916709e+10 5.528429e+10 4.386234e+09
-5.988261e+10 -3.030537e+10 -3.488685e+09
5.825158e+10 -3.728032e+10 -1.668664e+09
-2.738283e+10 7.469721e+10 1.522059e+09
-5.117489e+10 -2.291690e+11 -5.228289e+09
3.030438e+10 -2.137251e+11 -4.184666e+09
2.325172e+09 -5.711519e+10 3.653530e+08
-1.911145e+10 4.893374e+10 -1.883038e+09
-8.133816e+10 -2.992725e+10 1.602020e+07
9.030333e+10 -2.766807e+10 -3.419544e+08
-2.728956e+10 -2.964375e+10 -3.737378e+08
2.537654e+10 -2.626389e+10 -3.388473e+08
-2.765989e+10 -5.778773e+10 5.333718e+09
1.912586e+10 -5.064032e+10 -1.307338e+09
-9.747839e+09 -4.962582e+10 6.597825e+07
1.486765e+10 -6.393370e+10 -2.523558e+09
-8.278543e+10 -1.940282e+10 1.587499e+08
4.395768e+08 -4.370912e+10 -9.419426e+08
6.128274e+10 -9.984567e+09 -1.024846e+09
-6.342612e+10 5.081788e+10 -4.469359e+09
6.735132e+10 6.078983e+10 1.064016e+09
4.083728e+10 9.319094e+10 2.926184e+08
-1.741223e+10 -4.641374e+10 -9.367181e+06
9.991168e+09 -3.804957e+10 1.061727e+09
3.803758e+10 1.967693e+11 -4.989405e+09
-1.678326e+10 -7.813888e+10 2.792214e+08
1.563155e+10 -6.807341e+10 1.228639e+09
4.390439e+10 2.448686e+10 -6.540910e+09
-1.214792e+11 -4.529605e+10 3.570586e+09
-4.035885e+10 2.047711e+10 -1.365420e+09
-1.925338e+11 6.588963e+08 -4.641104e+09
1.708222e+11 -1.826062e+10 -1.757834e+09
1.810234e+10 1.313892e+11 -2.188362e+09
-1.499225e+11 2.000377e+11 1.837798e+09
-1.041381e+11 1.598352e+11 -9.027297e+09
3.818797e+10 1.414510e+11 1.589506e+09
1.379804e+11 1.283036e+10 -2.649053e+09
-1.360203e+11 2.258941e+10 5.186322e+09
-2.216007e+11 -6.958076e+10 4.423254e+09
1.072061e+11 -3.923830e+10 -3.219538e+09
2.014673e+11 -6.375432e+10 -1.621178e+10
-2.516190e+10 3.958845e+10 -7.116646e+08
2.641194e+10 4.179378e+10 2.965165e+08
-9.093485e+10 4.740886e+10 8.635692e+08
9.100943e+10 5.355407e+10 -5.810404e+08
-7.815230e+10 1.386442e+11 -1.052381e+10
1.257163e+10 6.438743e+10 -3.767028e+09
-1.980903e+10 7.182751e+10 1.145913e+09
-1.698266e+10 1.881940e+11 5.740823e+09
-4.734981e+10 3.540790e+10 3.414425e+08
-4.056121e+09 5.252366e+10 -3.512018e+09
5.172245e+10 4.242868e+10 -1.799956e+09
-4.735827e+10 8.038055e+10 -2.674384e+06
4.778311e+10 8.743856e+10 -1.176787e+09
-7.822438e+10 -1.738001e+10 -6.753894e+08
6.962195e+10 -1.354828e+10 7.306336e+08
1.077070e+10 -1.685923e+11 6.510091e+09
-7.469831e+09 -1.852381e+11 -1.741246e+10
-6.487529e+10 3.284615e+09 1.281420e+09
5.335190e+10 1.294092e+09 1.050969e+09
-1.690824e+10 5.748336e+10 5.050407e+09
1.208367e+11 1.192665e+11 -9.380886e+08
2.047095e+10 5.982725e+10 -1.607761e+09
4.586983e+10 -5.885350e+10 3.630783e+09
-3.501623e+10 -5.896272e+10 1.571000e+08
6.890860e+10 1.864354e+10 -1.332892e+09
-6.949295e+10 1.220180e+10 -8.195273e+08
3.806318e+10 3.145359e+09 -6.284541e+08
-5.383503e+10 2.892948e+09 -1.540972e+09
-1.884107e+10 9.970959e+10 3.689541e+09
-1.164205e+11 -1.893775e+11 -1.602712e+10
1.226225e+11 -2.003148e+11 -4.891970e+08
-1.405326e+11 1.829964e+11 -2.725740e+09
1.241197e+11 6.883202e+10 -5.931162e+09
-1.633554e+11 7.937766e+10 -2.031016e+09
-3.250167e+10 -6.225520e+10 1.763900e+09
4.956436e+10 -8.509759e+10 8.153086e+08
6.949432e+10 8.206794e+10 7.538208e+08
-5.091870e+10 5.809795e+10 -3.124467e+08
9.036173e+10 1.809969e+11 1.397690e+10
-2.405301e+10 5.763856e+10 1.330900e+09
2.356212e+10 -1.548731e+11 -7.123841e+09
-2.844948e+10 -1.459305e+11 8.404650e+09
6.080764e+10 -6.918416e+10 -5.874288e+08
-1.051114e+11 -7.482710e+10 -2.156774e+08
7.586126e+10 -6.042568e+10 -5.491095e+08
-2.264305e+10 4.446948e+10 -4.811195e+09
-5.871601e+10 -6.140180e+10 -6.240385e+08
3.374414e+10 -3.917534e+10 1.499965e+09
2.953859e+09 9.025684e+10 -4.250019e+09
-1.521892e+11 -4.379391e+10 -1.109111e+09
1.287360e+11 -1.940333e+10 5.429250e+09
-6.002652e+09 -2.095899e+09 3.312716e+08
5.622385e+09 -2.814657e+09 -1.133641e+08
-6.745316e+10 -8.334438e+10 1.611908e+09
-3.228002e+09 -6.051335e+09 1.754484e+08
3.545241e+09 -5.808676e+09 -3.541059e+08
-8.751472e+08 -5.723654e+09 -4.111561e+07
-6.748971e+09 5.368560e+09 -5.870547e+08
-5.648147e+09 2.072202e+09 6.355781e+07
-9.764670e+08 8.088388e+09 5.463519e+08
5.705863e+09 3.764882e+09 1.695362e+08
6.415643e+09 1.977460e+09 -1.076865e+07
2.187249e+09 6.090485e+09 -4.789904e+07
4.521513e+09 5.425313e+09 -1.459061e+08
-4.880058e+10 -7.944377e+10 -1.095453e+09
-4.580485e+09 5.821415e+09 2.366938e+08
1.718576e+09 -6.242464e+09 8.898702e+08
6.466984e+09 -1.241627e+09 2.749019e+08
-6.946195e+09 -2.132806e+09 6.593634e+07
-7.440148e+09 9.674751e+08 1.750114e+08
-5.599761e+09 -5.283721e+09 -2.349089e+08
6.990364e+09 1.898820e+08 -4.804824e+07
-2.537421e+08 6.051174e+09 -3.282725e+07
-2.300960e+09 6.330305e+09 2.137461e+08
5.397834e+09 -4.113799e+09 -4.523534e+08
5.397519e+10 -8.014695e+10 1.884205e+09
-1.735900e+09 -6.654115e+09 2.069241e+08
3.061301e+09 5.966230e+09 -4.190332e+08
1.151238e+06 -9.032736e+09 -2.203479e+08
-2.794343e+10 5.966211e+10 -6.377629e+09
-4.212980e+09 -3.820605e+09 -1.356938e+09
1.459438e+10 1.004134e+10 6.084853e+07
8.409700e+10 3.098222e+10 3.607186e+07
-7.271100e+10 2.853079e+10 -2.386705e+08
1.514921e+10 1.909162e+10 7.220279e+07
-1.083488e+10 1.896805e+10 -3.488761e+08
2.004252e+11 -4.906228e+10 -5.379873e+09
1.576855e+10 -9.324029e+09 -2.365314e+08
-2.053834e+10 1.829706e+10 -8.706706e+08
-9.765775e+09 -5.091330e+09 1.450978e+09
-1.635165e+09 1.082746e+10 -5.375942e+08
2.832055e+10 3.391028e+10 1.244416e+09
-5.770151e+08 1.532204e+10 1.205109e+07
3.292041e+10 7.446582e+10 6.245652e+09
7.129402e+09 2.922406e+10 -4.801942e+08
-2.263961e+10 1.788040e+10 -2.315298e+07
-4.597611e+10 -1.931535e+10 -8.827724e+07
-1.474456e+11 -3.571878e+10 -1.281096e+09
2.013916e+10 -2.007047e+10 -1.091333e+09
4.119594e+10 -2.001333e+10 1.397155e+09
3.185693e+10 -6.588318e+09 -6.280797e+08
9.971166e+09 -1.030991e+10 5.859653e+08
2.731862e+10 -1.301479e+10 1.785442e+09
1.355904e+09 2.598796e+10 -9.137726e+08
3.514071e+09 -5.902641e+10 -2.665152e+09
-2.308515e+10 1.566556e+10 7.408777e+08
1.751514e+10 5.309657e+09 -2.514968e+08
-1.650006e+10 5.559662e+09 -7.547712e+08
6.462886e+10 1.636392e+11 7.883427e+09
-3.049802e+10 -5.281240e+10 -9.724061e+08
-2.763918e+10 -6.853031e+10 -3.126559e+09
-1.650534e+10 3.730651e+10 -1.266861e+09
-7.012985e+09 -7.239844e+10 1.528696e+08
-3.316227e+09 -2.634233e+10 -2.037357e+08
5.185098e+10 -9.615653e+10 -4.103277e+08
2.594283e+10 -6.195897e+10 9.317293e+08
-4.759014e+10 -1.029903e+10 -1.600715e+09
-1.715152e+10 -3.004899e+09 8.773110e+07
6.165509e+10 -1.810975e+10 9.261890e+07
-6.354660e+10 1.608385e+11 -3.138700e+09
-5.800887e+10 3.592539e+10 4.097807e+09
-1.319140e+10 -1.079823e+10 -1.080601e+09
3.851720e+10 2.804353e+10 1.959102e+09
4.502994e+10 3.273223e+10 -1.556844e+09
2.479551e+10 -4.265260e+10 5.659281e+08
-1.356448e+10 3.066850e+10 -3.268693e+08
1.751026e+10 -5.058828e+10 -6.678368e+08
-5.332286e+10 -4.373240e+10 1.631574e+09
-5.711796e+10 -1.212906e+10 2.961049e+08
6.197630e+09 7.531446e+08 1.477681e+08
-2.868501e+10 -7.612720e+10 1.209653e+08
2.265756e+10 2.360022e+09 -5.680210e+08
-4.796125e+10 1.917185e+10 -2.125798e+08
3.466153e+10 1.498241e+10 -3.421246e+04
-4.585724e+10 5.358324e+09 1.854817e+09
-6.393267e+10 -3.307918e+10 7.886187e+07
5.977130e+10 -1.061773e+08 3.032800e+09
3.344311e+10 -3.027510e+10 -4.583029e+09
-1.024891e+10 4.295942e+10 6.240148e+08
-1.931112e+10 3.082727e+10 -6.510711e+08
-1.377044e+10 1.548650e+10 -7.428139e+08
2.310116e+10 -5.487385e+10 2.340782e+09
1.151867e+10 2.352913e+10 1.044601e+09
-1.284440e+10 -3.222395e+10 5.677560e+08
2.910800e+09 -2.504924e+10 1.285320e+08
-1.270322e+10 -8.962964e+10 -5.310285e+08
5.995237e+09 -7.638016e+10 -7.033822e+08
2.657721e+10 -5.427384e+09 -1.573559e+09
-1.796324e+10 1.200848e+09 -1.079909e+09
2.618034e+10 3.105985e+10 -1.372626e+09
-9.061359e+10 8.119325e+09 -4.727847e+09
2.441912e+10 1.920441e+10 5.505307e+07
1.453499e+11 3.668587e+10 -6.753745e+09
1.782306e+10 6.990561e+10 -2.726166e+09
2.028491e+10 7.691089e+10 -1.828719e+09
-6.492883e+10 3.950529e+10 1.540705e+09
-7.147732e+09 4.568766e+10 8.018026e+08
-2.910856e+10 -4.829038e+10 -7.395401e+08
1.217789e+10 2.363377e+10 8.753128e+08
-6.939233e+09 -3.425352e+10 4.030460e+08
2.840605e+10 6.645307e+10 7.303819e+08
-4.104918e+10 5.051418e+10 4.097083e+09
-3.579065e+10 3.891795e+10 5.722080e+08
-1.392981e+11 3.690654e+10 -2.616393e+09
-9.011028e+09 -1.036371e+10 1.646548e+08
-1.346830e+10 -3.657307e+10 -7.755844e+08
5.991331e+10 -1.367716e+10 -5.501550e+08
1.696448e+10 -9.025063e+10 7.520126e+08
-5.503724e+09 -1.368335e+10 -6.235634e+08
2.173041e+10 -1.050500e+10 4.351527e+08
1.890767e+10 -1.096728e+10 7.190004e+08
6.965319e+09 -2.273215e+10 1.035248e+08
-3.871280e+10 1.272709e+10 6.715195e+07
4.087597e+10 1.724062e+10 2.741096e+08
-1.212096e+11 -1.984679e+11 -1.738249e+10
1.346202e+10 -2.148239e+10 -1.126830e+07
1.968123e+10 -3.000150e+10 3.739151e+08
1.442930e+10 1.630222e+10 -5.055563e+08
4.399966e+08 -2.726528e+10 1.590537e+09
4.360541e+10 -2.802259e+10 -3.413057e+08
7.347077e+09 -2.406581e+10 7.301203e+08
2.597478e+10 -2.081749e+10 5.107095e+08
1.123357e+11 2.755588e+10 3.276726e+09
-1.061986e+11 2.278125e+10 -4.474655e+09
-2.259579e+10 -1.007281e+11 -3.935797e+08
1.018417e+11 -1.725351e+11 2.119102e+10
-4.465041e+10 -3.004018e+10 -3.055888e+08
-2.144077e+10 -2.945544e+10 -7.100378e+08
-4.562364e+10 -2.573541e+10 -1.615795e+09
6.307156e+09 3.047189e+10 3.249776e+08
-3.613009e+10 6.259558e+10 1.821342e+09
8.950222e+10 -3.035709e+10 -1.413782e+08
2.485159e+10 3.997164e+10 -2.516590e+08
1.845867e+10 -1.932757e+10 -2.229380e+08
-1.532798e+10 7.616696e+10 -1.630140e+09
-1.176249e+10 2.896294e+10 -1.218100e+09
1.443075e+10 -7.376813e+10 1.278708e+08
-1.318173e+10 -9.849604e+09 -1.771394e+08
1.467453e+10 1.931747e+10 -5.195669e+08
5.360904e+09 -3.572493e+10 -5.606816e+08
2.461288e+10 1.582341e+10 -1.367205e+09
7.833833e+09 5.119851e+10 2.857345e+09
-4.099332e+10 7.463472e+09 1.183723e+09
-1.169190e+10 -1.808307e+10 -2.182684e+08
-3.855417e+10 1.121863e+10 -9.044818e+08
3.672107e+10 1.215779e+10 -4.334987e+08
4.107789e+10 -1.004062e+09 -4.072247e+08
-1.728648e+10 -8.833368e+10 -2.031880e+09
4.518777e+10 -1.190640e+10 -1.250630e+09
-3.652619e+10 -4.165092e+10 6.294868e+08
-3.244464e+10 5.304897e+09 -5.376048e+08
3.560975e+10 -4.310748e+10 -2.374437e+07
1.667964e+10 -2.114542e+10 -1.308925e+08
-4.198707e+10 -5.772362e+09 -8.012223e+08
-4.519590e+10 -1.320952e+10 7.135134e+08
4.945895e+10 1.169237e+10 1.086090e+09
3.783924e+09 2.258850e+10 -9.364472e+07
-2.175654e+10 1.150677e+10 -3.070071e+08
-1.349454e+11 -4.266304e+10 9.102830e+08
-2.865998e+10 -9.108377e+09 -2.695198e+08
-9.761492e+10 -8.601507e+09 4.158485e+08
6.023072e+10 -7.817893e+09 4.193839e+08
3.061392e+10 1.621013e+10 1.324236e+09
-3.024566e+10 -5.200667e+07 -1.272018e+09
-2.956560e+10 -1.349399e+10 -1.995128e+08
7.123474e+09 -4.084078e+10 -7.157625e+08
-5.697441e+10 -9.291553e+10 3.287127e+09
5.386391e+09 4.020795e+10 2.392210e+08
2.578772e+10 2.374611e+10 1.443991e+09
-2.238776e+11 5.127333e+10 -5.578375e+09
-1.051626e+11 -3.394824e+10 -3.707166e+09
-2.063450e+10 2.651759e+10 9.980401e+07
2.345033e+10 -3.691464e+09 -1.347516e+08
4.239419e+10 7.735251e+10 7.179692e+08
2.983112e+09 5.012628e+10 8.500887e+08
5.387311e+10 -4.001960e+10 -1.224782e+09
4.287155e+10 5.165762e+10 -1.586234e+09
5.081924e+10 -6.445233e+10 -4.369580e+08
-3.203130e+10 4.281889e+10 5.324191e+08
9.582626e+10 4.859904e+10 1.167624e+09
9.423057e+10 -3.511432e+10 2.100754e+09
-5.773684e+10 -6.502124e+10 1.314426e+09
-1.497915e+10 2.020521e+10 1.326298e+09
-8.070360e+09 -2.803300e+10 1.788717e+09
6.840564e+10 -5.145686e+10 6.700318e+09
-2.088902e+09 2.725283e+10 7.752718e+08
-6.631178e+10 9.315587e+10 -3.192604e+09
-1.542053e+10 3.136488e+10 2.597830e+09
5.386798e+09 -2.564543e+10 -3.678161e+08
7.289937e+10 3.246096e+10 -2.216403e+09
-5.387570e+09 2.171776e+10 -9.772197e+08
2.045210e+11 3.379204e+10 2.297898e+10
4.793756e+10 8.105515e+10 2.680276e+09
-2.298975e+10 -3.500788e+10 7.229338e+08
-1.471588e+10 -1.817433e+10 5.942280e+07
-1.114689e+11 5.702398e+10 5.491286e+09
-8.395097e+10 -6.159076e+10 -2.316992e+09
-9.093668e+10 -2.952597e+10 9.102574e+08
-2.522637e+10 6.887716e+09 -6.787638e+08
-2.681313e+10 1.661238e+10 1.372600e+09
2.809543e+10 5.731446e+09 -6.792604e+08
6.073610e+10 1.216731e+10 9.905970e+08
2.028731e+09 1.595998e+11 4.821648e+08
-3.551020e+10 7.611458e+08 1.435281e+08
4.569573e+10 -5.253562e+09 -6.891224e+07
3.382199e+10 -3.845254e+09 1.127976e+09
-2.508238e+10 6.896924e+10 -2.777087e+09
2.145694e+10 3.131681e+10 -1.184369e+09
-1.928309e+10 -1.253113e+10 3.667554e+08
-6.884692e+10 -4.646718e+10 -9.667703e+08
4.984243e+10 -7.264782e+10 9.415021e+08
-2.848306e+10 8.097390e+10 -1.777372e+08
2.260315e+10 -3.071045e+10 8.048323e+08
8.844688e+10 1.438039e+11 -6.458716e+09
-3.269486e+10 -1.908746e+10 -3.412821e+08
-1.624973e+10 -2.832341e+10 -3.573982e+08
8.809293e+10 -7.818289e+08 -2.215037e+09
-1.107215e+10 -4.562344e+10 -9.025905e+08
-3.863928e+10 -7.961730e+09 -2.677365e+07
4.704607e+10 2.506437e+10 -2.935858e+08
2.950486e+10 -1.877010e+10 -1.997419e+08
2.819130e+10 -1.137814e+10 3.896069e+08
1.282280e+10 -6.169641e+10 -1.534687e+09
-4.661799e+10 -3.711969e+10 1.470519e+08
-9.113142e+10 1.667322e+11 4.269657e+09
-3.665046e+10 -3.889154e+09 6.899670e+08
-1.051708e+11 1.969009e+10 -2.300585e+09
1.513679e+10 -3.510045e+10 -8.831042e+08
2.620993e+10 1.076338e+10 -8.084182e+08
-2.516196e+10 -2.668931e+09 7.006524e+08
-5.155411e+08 -3.151864e+10 -1.196324e+09
1.927886e+10 -4.623898e+10 1.308599e+09
1.248845e+10 4.001238e+10 1.985813e+09
1.178039e+08 -3.484520e+10 -4.624238e+08
6.666607e+09 4.593166e+10 -1.215342e+08
-8.188454e+10 5.130597e+10 7.463518e+07
2.547210e+09 -8.373466e+10 -5.667638e+08
-1.577895e+10 1.340256e+10 6.265211e+08
-3.685574e+10 2.246548e+10 -4.455644e+08
-3.391542e+10 -1.387679e+10 -1.019719e+08
7.572091e+10 6.656220e+10 1.532573e+09
-2.081098e+10 -7.791880e+10 2.037344e+09
-7.870280e+10 6.416818e+10 9.269422e+08
-1.746427e+10 5.042246e+10 -9.057261e+08
1.210972e+11 -1.264365e+10 -3.044892e+09
1.106425e+10 2.865098e+10 -7.289568e+07
7.602460e+10 5.199441e+10 -1.814986e+09
4.161072e+10 -3.372816e+10 -6.963861e+08
2.673898e+10 -7.774451e+09 -1.576648e+08
1.551858e+10 2.491316e+10 -7.338245e+07
1.552587e+10 -2.634234e+10 3.008103e+08
4.427127e+10 2.469787e+10 1.604051e+09
-9.262829e+09 1.052276e+11 -7.835781e+09
3.199490e+10 3.564308e+09 -6.390219e+08
9.156388e+10 -9.225927e+10 5.513066e+09
7.776870e+10 6.418367e+10 1.997410e+09
-7.254722e+10 -2.733175e+09 -2.175697e+09
-4.255167e+09 1.207514e+11 2.263992e+09
-8.655493e+10 4.338177e+10 1.002564e+09
-5.165279e+10 -1.850322e+09 -3.195544e+08
8.316463e+10 4.500628e+10 -6.049269e+09
3.104386e+10 -8.770754e+08 1.276800e+09
1.082616e+11 2.529324e+10 -7.429651e+08
-2.848262e+10 1.320347e+10 -6.433062e+08
-6.904991e+09 -2.752281e+10 1.240092e+09
1.776028e+10 5.832395e+10 -5.948717e+08
-6.456890e+10 5.555489e+10 8.797165e+08
5.194386e+10 -1.588191e+10 9.099546e+08
7.644243e+10 -5.360979e+10 -8.997594e+08
1.280899e+10 -3.034470e+10 1.521663e+08
-3.919772e+10 3.058451e+10 -4.360599e+08
-6.773950e+10 -7.716869e+10 -4.803133e+08
1.515469e+10 -7.812877e+10 -1.790797e+08
-6.142534e+09 3.037189e+10 -1.117620e+09
-2.511626e+10 -7.206806e+10 6.284992e+08
4.394943e+10 -2.226011e+10 2.333027e+08
-4.276922e+10 3.903839e+10 -1.078409e+09
3.729953e+10 -7.113568e+10 -1.140473e+09
2.080431e+10 5.407041e+09 7.019435e+08
-6.280792e+10 -5.600354e+10 -1.902596e+09
6.907337e+09 2.725423e+10 4.800543e+08
8.812887e+10 2.584539e+10 -7.186136e+08
3.631412e+10 1.093863e+11 3.099550e+09
-3.392042e+10 1.613395e+10 -1.178155e+09
-4.590795e+10 9.665850e+10 -6.136757e+08
-3.102119e+10 -3.643315e+10 6.075249e+08
9.060643e+10 -1.196117e+10 1.392006e+09
3.558809e+10 -8.793394e+10 -1.573452e+09
-3.261830e+10 -2.853234e+10 1.245157e+09
9.440944e+10 -5.369733e+10 -5.564880e+08
1.653323e+11 -9.657178e+10 -1.413083e+10
9.389092e+09 -3.613745e+10 -1.136519e+08
2.459470e+09 3.059679e+10 -7.098678e+08
-3.370567e+10 3.105622e+10 1.759534e+07
7.680077e+10 -1.323329e+10 1.639298e+09
-9.402650e+10 -4.410324e+10 -2.269606e+09
4.919161e+09 5.144344e+09 -1.609853e+08
-6.796265e+08 -7.564611e+10 2.530935e+06
-2.960753e+09 5.945431e+10 7.344792e+08
-2.437650e+10 -1.346227e+10 -5.250306e+08
-1.476938e+10 2.691710e+10 -3.610597e+08
-1.568720e+11 -9.629350e+10 5.356589e+09
-7.704723e+10 -2.840071e+10 -1.789669e+08
-1.474936e+10 -3.775870e+10 1.187998e+08
-1.668855e+10 -2.726481e+10 4.762959e+07
-3.999413e+09 3.666938e+10 6.489273e+08
-2.651011e+10 -2.067942e+10 1.491528e+09
3.319739e+10 3.213607e+10 -1.364517e+09
-4.108994e+10 1.149259e+11 1.414865e+09
-1.020604e+10 -2.670107e+10 -9.999909e+08
2.216462e+10 1.986034e+10 -2.243030e+09
-1.715916e+10 1.844477e+10 1.814586e+09
3.291368e+10 8.062407e+10 6.176724e+09
-1.265239e+10 -2.296444e+10 -5.056278e+08
-2.538587e+10 3.153612e+10 3.961703e+08
7.873796e+10 -5.500568e+10 1.752752e+09
-1.073821e+10 4.304513e+10 -2.947231e+07
1.041885e+10 4.889721e+10 5.763909e+08
-2.901560e+09 1.095977e+11 -8.229426e+08