# vtk DataFile Version 2.0
Electric current density generated by TTH
ASCII
DATASET UNSTRUCTURED_GRID
POINTS 1126 double
1.137186e-05 -2.785302e-21 -5.981692e-22
8.041119e-06 8.041119e-06 -5.981692e-22
-6.180949e-06 -2.560233e-06 9.743271e-07
-5.514307e-06 -9.193443e-06 1.660603e-06
-1.796052e-06 -8.777074e-06 2.442035e-06
-1.796052e-06 8.777074e-06 2.442035e-06
-7.571647e-06 6.617712e-06 -2.166942e-06
-7.571647e-06 -6.617712e-06 -2.166942e-06
1.005749e-05 5.127090e-06 -6.309894e-07
1.005749e-05 -5.127090e-06 -6.309894e-07
-5.502040e-06 9.407820e-06 -1.444859e-06
-5.502040e-06 -9.407820e-06 -1.444859e-06
5.441218e-06 9.866410e-06 7.068243e-07
9.604176e-06 -3.714600e-06 -2.023211e-06
5.441218e-06 -9.866410e-06 7.068243e-07
-1.103939e-05 -2.447374e-06 -5.573031e-07
-1.039327e-05 -2.522132e-06 -1.687674e-06
5.018623e-06 -7.885274e-06 2.406307e-06
5.018623e-06 7.885274e-06 2.406307e-06
-3.205542e-06 -6.009407e-06 -1.214634e-06
-3.205542e-06 6.009407e-06 -1.214634e-06
-3.914544e-06 -6.640157e-06 -2.114781e-06
-3.914544e-06 6.640157e-06 -2.114781e-06
1.003031e-05 5.221449e-06 5.548678e-07
9.604176e-06 3.714600e-06 -2.023211e-06
1.003031e-05 -5.221449e-06 5.548678e-07
1.033755e-05 2.883358e-06 1.647855e-06
1.033755e-05 -2.883358e-06 1.647855e-06
-3.589762e-06 6.353385e-06 1.816625e-06
-3.590032e-06 -6.353200e-06 1.816599e-06
-2.062316e-06 -6.291643e-06 -7.966402e-07
-2.062316e-06 6.291643e-06 -7.966402e-07
3.623958e-06 1.030803e-05 -1.406040e-06
3.623958e-06 -1.030803e-05 -1.406040e-06
-1.888492e-06 7.860381e-06 -2.291151e-06
-2.210208e-06 7.009883e-06 1.862610e-06
-1.888492e-06 -7.860381e-06 -2.291151e-06
2.080015e-06 8.029925e-06 -2.358294e-06
2.080015e-06 -8.029925e-06 -2.358294e-06
1.031068e-05 1.959192e-06 -1.874446e-06
1.030532e-05 -1.956557e-06 -1.879236e-06
-2.447889e-06 1.104171e-05 -5.470572e-07
-2.447889e-06 -1.104171e-05 -5.470572e-07
-5.968055e-06 7.708268e-06 -2.300809e-06
-5.968055e-06 -7.708268e-06 -2.300809e-06
1.476371e-06 1.121415e-05 -5.421562e-07
-2.210208e-06 -7.009883e-06 1.862610e-06
1.476371e-06 -1.121415e-05 -5.421562e-07
-1.121429e-05 1.476390e-06 -5.415429e-07
-5.337502e-06 -6.362294e-06 -2.360892e-06
-5.335248e-06 6.366227e-06 -2.361306e-06
5.423951e-06 -8.908449e-06 -1.927196e-06
5.423951e-06 8.908449e-06 -1.927196e-06
-9.511615e-06 -2.990370e-06 -2.209250e-06
6.346078e-06 -1.379970e-06 1.840676e-07
6.341817e-06 1.404294e-06 1.974906e-07
-1.045067e-05 -4.328811e-06 -5.385969e-07
5.524965e-06 -3.488936e-06 -4.764517e-07
2.899148e-06 -8.534945e-06 -2.440757e-06
2.899148e-06 8.534945e-06 -2.440757e-06
8.317201e-06 -7.659456e-06 -5.600691e-07
8.317201e-06 7.659456e-06 -5.600691e-07
9.831772e-06 -3.344310e-06 1.961213e-06
9.831772e-06 3.344310e-06 1.961213e-06
1.027915e-05 -2.005199e-06 1.892815e-06
1.027790e-05 2.006803e-06 1.893567e-06
2.114565e-06 -9.425309e-06 -2.330572e-06
2.114565e-06 9.425309e-06 -2.330572e-06
5.524965e-06 3.488936e-06 -4.764517e-07
-6.739595e-06 -6.990764e-06 2.314030e-06
-6.739595e-06 6.990764e-06 2.314030e-06
-7.179399e-06 3.532475e-06 -2.258920e-06
1.078988e-05 -3.402037e-06 -5.306808e-07
1.078988e-05 3.402037e-06 -5.306808e-07
-6.485400e-06 8.208615e-07 -4.902119e-07
9.499554e-06 -1.817093e-06 -2.326721e-06
9.514760e-06 1.811960e-06 -2.322218e-06
-5.224001e-06 1.003521e-05 5.306250e-07
-5.224001e-06 -1.003521e-05 5.306250e-07
9.130551e-06 2.069376e-06 2.403615e-06
-5.219637e-08 -6.488470e-06 7.791525e-08
-5.219637e-08 6.488470e-06 7.791525e-08
-7.095333e-06 1.028184e-06 -1.692948e-06
-5.281087e-06 -3.894302e-06 5.975407e-07
-5.449206e-06 -3.664846e-06 -6.181357e-07
-7.351119e-06 2.138518e-06 -2.083714e-06
-1.186248e-06 8.133129e-06 2.336586e-06
-1.186248e-06 -8.133129e-06 2.336586e-06
1.906808e-06 -6.312471e-06 -7.141319e-07
1.906808e-06 6.312471e-06 -7.141319e-07
9.130551e-06 -2.069376e-06 2.403615e-06
-9.543110e-06 -6.079632e-06 5.231849e-07
-9.543110e-06 6.079632e-06 5.231849e-07
-4.474680e-06 -7.973637e-06 -2.432839e-06
-4.474680e-06 7.973637e-06 -2.432839e-06
-6.191072e-06 -3.204688e-06 1.459237e-06
-1.016231e-05 2.788560e-06 1.837859e-06
-1.016231e-05 -2.788560e-06 1.837859e-06
-6.437294e-06 -8.728486e-07 2.067025e-07
-6.274954e-06 -8.131699e-06 2.040679e-06
-6.274954e-06 8.131699e-06 2.040679e-06
2.772251e-06 -7.689630e-06 -2.322398e-06
-8.149555e-06 -5.000397e-06 2.359102e-06
-8.149330e-06 5.000285e-06 2.359169e-06
1.772187e-06 -9.936692e-06 2.147062e-06
1.772187e-06 9.936692e-06 2.147062e-06
6.825714e-06 6.592519e-07 -1.292478e-06
6.829723e-06 -6.203902e-07 -1.293063e-06
-3.013933e-07 -1.071063e-05 1.666545e-06
-3.013933e-07 1.071063e-05 1.666545e-06
-1.017357e-05 -3.671968e-06 1.551203e-06
-1.017541e-05 3.684488e-06 1.543894e-06
7.309690e-06 8.711350e-06 -5.981692e-22
-1.467861e-06 -6.621095e-06 -1.162482e-06
8.423881e-06 5.166722e-06 -2.248810e-06
8.423881e-06 -5.166722e-06 -2.248810e-06
-2.384236e-06 9.954932e-06 2.063158e-06
-2.384236e-06 -9.954932e-06 2.063158e-06
-4.936449e-07 1.130633e-05 -5.142746e-07
-4.936449e-07 -1.130633e-05 -5.142746e-07
-8.737238e-06 -2.129132e-06 -2.441391e-06
5.535152e-06 -3.427288e-06 3.335029e-07
5.535152e-06 3.427288e-06 3.335029e-07
-3.261048e-06 6.919165e-06 -2.079587e-06
2.772251e-06 7.689630e-06 -2.322398e-06
-3.261048e-06 -6.919165e-06 -2.079587e-06
8.049033e-06 -4.647003e-06 2.414854e-06
8.049033e-06 4.647003e-06 2.414854e-06
-6.817531e-06 6.165867e-06 -2.428056e-06
-6.817531e-06 -6.165867e-06 -2.428056e-06
-6.219923e-06 3.186418e-06 1.482152e-06
-1.001671e-05 -3.867425e-06 -1.642100e-06
7.953866e-06 6.984228e-07 -2.251896e-06
7.953866e-06 -6.984228e-07 -2.251896e-06
4.876158e-06 -6.894387e-06 -2.393537e-06
-1.467861e-06 6.621095e-06 -1.162482e-06
4.876158e-06 6.894387e-06 -2.393537e-06
-1.013240e-05 -4.950565e-06 -6.736093e-07
7.057937e-06 -7.016891e-06 2.217718e-06
7.057937e-06 7.016891e-06 2.217718e-06
-8.620542e-06 -1.890456e-07 -2.422834e-06
1.281906e-06 -7.301027e-06 1.913973e-06
1.281906e-06 7.301027e-06 1.913973e-06
-7.980498e-06 2.682576e-08 -2.250243e-06
-5.727643e-06 3.855228e-06 -1.364610e-06
-5.809479e-06 -3.740899e-06 -1.372708e-06
-4.721401e-06 -7.079672e-06 -2.405818e-06
-4.721401e-06 7.079672e-06 -2.405818e-06
-7.709583e-06 1.116755e-07 2.116083e-06
5.608691e-06 7.402732e-06 2.415850e-06
6.522631e-06 9.315282e-06 -5.981692e-22
5.608691e-06 -7.402732e-06 2.415850e-06
3.404775e-06 5.606865e-06 -5.896241e-07
3.404775e-06 -5.606865e-06 -5.896241e-07
-8.834669e-06 3.134836e-06 2.401381e-06
-6.038220e-06 5.533010e-06 2.327478e-06
-8.834669e-06 -3.134836e-06 2.401381e-06
-6.038220e-06 -5.533010e-06 2.327478e-06
-8.814194e-06 2.779105e-06 -2.422162e-06
-8.806172e-06 -2.879522e-06 -2.419077e-06
-3.274013e-07 9.382410e-06 -2.398791e-06
5.685930e-06 9.848319e-06 -5.981692e-22
-3.274013e-07 -9.382410e-06 -2.398791e-06
4.607660e-07 9.240209e-06 2.420885e-06
4.607660e-07 -9.240209e-06 2.420885e-06
7.097575e-06 -2.640925e-06 -2.030727e-06
7.097575e-06 2.640925e-06 -2.030727e-06
4.834351e-06 4.998420e-06 1.435398e-06
4.834351e-06 -4.998420e-06 1.435398e-06
-4.861501e-06 -8.282550e-06 2.347293e-06
-2.317764e-06 -9.336582e-06 2.342617e-06
-4.861501e-06 8.282550e-06 2.347293e-06
4.805955e-06 1.030640e-05 -5.981692e-22
-2.317764e-06 9.336582e-06 2.342617e-06
-3.046544e-06 -9.150234e-06 -2.335377e-06
-3.046544e-06 9.150234e-06 -2.335377e-06
6.257028e-06 -2.900001e-06 1.352893e-06
6.257028e-06 2.900001e-06 1.352893e-06
2.678370e-06 -9.275536e-06 2.332165e-06
2.678370e-06 9.275536e-06 2.332165e-06
-7.549756e-06 5.834127e-06 -2.364384e-06
-7.549756e-06 -5.834127e-06 -2.364384e-06
5.225119e-06 8.272749e-06 -2.287639e-06
3.889405e-06 1.068605e-05 -5.981692e-22
5.225119e-06 -8.272749e-06 -2.287639e-06
8.706813e-06 -4.532480e-06 2.275730e-06
8.706813e-06 4.532480e-06 2.275730e-06
-2.700923e-06 -6.001349e-06 -6.699430e-07
-2.700923e-06 6.001349e-06 -6.699430e-07
-9.968812e-06 2.054418e-06 2.098871e-06
-9.944577e-06 -1.939369e-06 2.125780e-06
-6.492900e-06 4.055525e-08 -1.651356e-07
-6.552924e-06 -2.164079e-06 -1.359799e-06
4.933909e-07 -6.953619e-06 -1.458934e-06
2.943254e-06 1.098437e-05 -5.981692e-22
4.933909e-07 6.953619e-06 -1.458934e-06
-8.546035e-06 -5.500937e-06 2.107655e-06
-8.546035e-06 5.500937e-06 2.107655e-06
-6.931158e-06 7.602094e-06 2.029930e-06
-6.931158e-06 -7.602094e-06 2.029930e-06
1.080806e-05 -1.874538e-06 -1.343034e-06
1.080806e-05 1.874538e-06 -1.343034e-06
-6.926519e-06 1.736899e-06 -1.662839e-06
1.977123e-06 1.006338e-05 -2.050807e-06
1.977123e-06 -1.006338e-05 -2.050807e-06
1.974703e-06 1.119910e-05 -5.981692e-22
-1.018769e-05 8.289955e-07 -2.072648e-06
-1.030519e-05 -1.422251e-06 -1.947823e-06
5.167119e-06 5.227481e-06 -1.862737e-06
5.167119e-06 -5.227481e-06 -1.862737e-06
-4.265375e-06 5.744614e-06 1.677801e-06
-4.265375e-06 -5.744614e-06 1.677801e-06
-9.306258e-06 -4.653004e-06 -1.946470e-06
-9.080870e-06 4.769775e-06 -2.049790e-06
-6.588773e-06 8.008417e-06 -1.971909e-06
-6.588773e-06 -8.008417e-06 -1.971909e-06
9.911228e-07 1.132859e-05 -5.981692e-22
-4.498437e-06 -5.221329e-06 -1.346089e-06
-4.498437e-06 5.221329e-06 -1.346089e-06
-4.925106e-06 9.252104e-06 -1.885923e-06
-4.925106e-06 -9.252104e-06 -1.885923e-06
1.080485e-05 2.078969e-06 1.290519e-06
1.080485e-05 -2.078969e-06 1.290519e-06
8.789534e-06 5.721447e-06 -1.880696e-06
8.789534e-06 -5.721447e-06 -1.880696e-06
-5.812359e-07 -6.547535e-06 6.418236e-07
-5.812359e-07 6.547535e-06 6.418236e-07
2.089681e-20 1.137186e-05 -5.981692e-22
4.989753e-06 9.256111e-06 1.857376e-06
4.989753e-06 -9.256111e-06 1.857376e-06
3.983121e-06 9.766430e-06 -1.829524e-06
3.983121e-06 -9.766430e-06 -1.829524e-06
6.229694e-06 1.972463e-06 -4.771377e-07
6.229694e-06 -1.972463e-06 -4.771377e-07
8.722726e-06 -1.898911e-06 -2.442210e-06
8.722726e-06 1.898911e-06 -2.442210e-06
-7.309897e-06 3.764067e-06 2.337469e-06
-7.326025e-06 -3.788064e-06 2.344988e-06
1.132859e-05 9.911228e-07 -5.981692e-22
-9.911228e-07 1.132859e-05 -5.981692e-22
7.571783e-06 7.470713e-06 1.746344e-06
7.571783e-06 -7.470713e-06 1.746344e-06
7.503330e-06 -4.591615e-06 -2.438593e-06
[...]
POINT_DATA 1126
VECTORS 10.000GHz_fone_imag double
5.669822e-04 -4.774063e-04 3.376057e-02
-2.363031e-04 1.146792e-03 2.983968e-02
5.548227e-02 1.662442e-02 -1.280910e-01
1.278123e-02 2.223508e-02 2.798982e-02
1.284282e-02 6.426495e-02 -2.011069e-03
9.038198e-03 -6.640295e-02 -6.734355e-03
-3.085190e-02 2.611283e-02 2.169553e-02
-3.511980e-02 -3.029932e-02 2.135613e-02
7.017489e-03 3.493576e-03 2.968093e-02
9.343397e-03 -4.184025e-03 3.179870e-02
-1.075266e-02 2.040053e-02 2.995755e-02
-1.135344e-02 -1.938279e-02 2.964556e-02
-5.390601e-03 -8.022271e-03 3.187673e-02
3.883385e-02 -1.452700e-02 2.464664e-02
-4.285567e-03 7.926983e-03 3.177299e-02
-7.176072e-03 -1.150749e-03 3.190457e-02
-3.026790e-02 -7.238491e-03 2.712946e-02
-3.392960e-02 5.084354e-02 5.858664e-03
-3.515211e-02 -5.231733e-02 7.641740e-03
-2.622215e-02 -4.923378e-02 -1.160806e-01
-2.894080e-02 5.487245e-02 -1.268400e-01
-4.538687e-02 -7.789023e-02 -5.652182e-02
-4.106152e-02 7.445836e-02 -5.042493e-02
-6.772103e-03 -3.647682e-03 3.214450e-02
3.483566e-02 1.452680e-02 2.149771e-02
-8.691434e-03 3.611361e-03 3.169950e-02
-2.361209e-02 -5.685164e-03 2.751646e-02
-2.834555e-02 8.603114e-03 2.819986e-02
4.144275e-02 -7.515033e-02 -8.577506e-02
4.110346e-02 6.730972e-02 -8.143871e-02
-2.274289e-02 -4.130045e-02 -1.395791e-01
-1.942696e-02 4.513259e-02 -1.340232e-01
6.291229e-03 2.177445e-02 2.789923e-02
7.749359e-03 -2.196211e-02 2.926266e-02
-2.157484e-02 8.234630e-02 -3.677575e-02
2.116107e-02 -8.491040e-02 -7.115024e-02
-1.812565e-02 -7.897349e-02 -3.574656e-02
2.012923e-02 7.886362e-02 -3.058509e-02
1.952271e-02 -7.534757e-02 -2.356152e-02
3.511092e-02 6.228821e-03 2.693922e-02
3.019399e-02 -6.010830e-03 2.561378e-02
-2.059675e-03 8.121000e-03 3.304098e-02
1.877769e-04 -9.180182e-03 3.101492e-02
-3.340076e-02 4.360742e-02 1.570971e-02
-3.273506e-02 -4.163983e-02 1.684382e-02
1.107827e-03 8.153409e-03 3.266100e-02
1.910905e-02 8.084904e-02 -7.176055e-02
1.871779e-03 -8.518186e-03 3.188693e-02
-8.784001e-03 1.800450e-04 2.881281e-02
-5.035664e-02 -5.673346e-02 -2.392318e-02
-4.760835e-02 6.037496e-02 -3.081106e-02
1.879195e-02 -3.142272e-02 2.460668e-02
1.886870e-02 3.106460e-02 2.488845e-02
-4.387514e-02 -1.427778e-02 1.990599e-02
-7.233599e-03 1.381378e-03 -1.589302e-01
-1.219114e-02 -3.283785e-03 -1.589079e-01
-6.634417e-03 -2.452011e-03 3.256309e-02
2.776511e-02 -1.656568e-02 -1.522376e-01
2.192942e-02 -6.014753e-02 -3.375009e-03
2.065865e-02 6.526845e-02 -1.910131e-03
6.389381e-03 -6.230954e-03 3.002681e-02
5.374836e-03 5.192897e-03 3.026183e-02
-3.308804e-02 1.329787e-02 2.398459e-02
-3.325404e-02 -1.109151e-02 2.393082e-02
-3.322118e-02 5.874390e-03 2.104878e-02
-3.492224e-02 -6.525814e-03 2.576729e-02
1.255199e-02 -5.569882e-02 1.207360e-02
9.763124e-03 4.963662e-02 1.369648e-02
3.133794e-02 1.080533e-02 -1.468169e-01
3.603989e-02 4.027779e-02 1.402891e-02
3.791408e-02 -3.904384e-02 1.532256e-02
-7.397877e-02 3.377671e-02 -3.489505e-02
7.557208e-03 -1.819824e-03 3.225266e-02
6.523318e-03 2.601192e-03 3.006218e-02
-2.617542e-02 2.062641e-03 -1.514059e-01
5.330746e-02 -1.225301e-02 1.276316e-02
5.093375e-02 1.299618e-02 1.093914e-02
5.275739e-03 -7.363298e-03 3.171805e-02
3.538389e-03 8.278089e-03 3.133938e-02
-5.906339e-02 -1.254975e-02 4.163070e-03
4.362073e-04 7.706366e-03 -1.520277e-01
4.340437e-04 -8.562213e-03 -1.469626e-01
-7.412376e-02 1.217754e-02 -8.670088e-02
3.067054e-02 2.417350e-02 -1.502626e-01
-2.928741e-02 -2.590742e-02 -1.366890e-01
-8.462395e-02 2.314833e-02 -5.626604e-02
1.130918e-02 -8.340418e-02 -2.907086e-02
1.289066e-02 8.286967e-02 -3.003263e-02
1.278037e-02 -4.221105e-02 -1.475795e-01
6.699350e-03 3.275027e-02 -1.436437e-01
-6.076451e-02 1.425128e-02 8.695201e-03
5.722395e-03 3.761493e-03 3.182732e-02
5.868460e-03 -3.885019e-03 3.185614e-02
-3.279323e-02 -5.898832e-02 5.054075e-04
-3.324507e-02 5.950536e-02 1.345138e-03
6.641599e-02 3.015009e-02 -1.030925e-01
3.252762e-02 -7.592152e-03 2.749252e-02
3.307480e-02 8.910742e-03 2.753637e-02
1.253034e-02 4.334935e-03 -1.478867e-01
2.399466e-02 3.087881e-02 1.846833e-02
2.504188e-02 -3.226904e-02 2.367851e-02
2.818315e-02 -7.946602e-02 -2.988344e-02
4.898079e-02 3.004761e-02 1.207788e-02
5.073293e-02 -2.959808e-02 1.018822e-02
-8.541848e-03 4.656308e-02 2.086968e-02
-7.884602e-03 -4.425667e-02 2.075922e-02
6.001395e-02 3.815695e-03 -1.087908e-01
6.362144e-02 2.295869e-03 -1.206486e-01
1.239077e-03 3.034138e-02 2.895705e-02
1.314242e-03 -2.797157e-02 2.803963e-02
2.653591e-02 8.430613e-03 2.794283e-02
2.598930e-02 -9.185198e-03 2.928071e-02
-4.174283e-04 -6.410870e-04 2.914390e-02
-1.368129e-02 -6.209858e-02 -1.330888e-01
3.985433e-02 2.715154e-02 1.867764e-02
4.325687e-02 -2.747459e-02 1.625662e-02
9.438935e-03 -3.856754e-02 2.368571e-02
9.039425e-03 3.975728e-02 2.362730e-02
-8.752746e-04 8.280560e-03 2.993420e-02
-9.521119e-04 -7.746701e-03 3.317236e-02
-6.809317e-02 -1.409843e-02 -1.992863e-03
-1.786682e-02 1.174851e-02 -1.577244e-01
-1.884899e-02 -9.349697e-03 -1.567462e-01
-4.013023e-02 7.633615e-02 -5.431288e-02
2.592112e-02 7.032990e-02 -3.166416e-02
-3.994550e-02 -8.202798e-02 -6.004935e-02
-5.090507e-02 2.934887e-02 3.300677e-03
-5.627820e-02 -3.248453e-02 5.911220e-03
-5.029587e-02 4.431147e-02 2.638429e-03
-4.689056e-02 -4.139700e-02 -1.321804e-03
7.137419e-02 -3.193096e-02 -1.092773e-01
-2.751822e-02 -1.034479e-02 2.706817e-02
8.775858e-02 1.185394e-02 -3.998573e-02
8.525920e-02 -1.264770e-02 -4.012813e-02
4.602939e-02 -6.477659e-02 -2.410163e-02
-1.187117e-02 6.688442e-02 -1.257509e-01
4.251513e-02 5.976142e-02 -2.439253e-02
-9.700787e-03 -4.047199e-03 3.284553e-02
-3.507407e-02 3.509752e-02 1.819895e-02
-3.103573e-02 -3.030037e-02 1.759625e-02
-7.008567e-02 -4.466445e-04 -1.416295e-02
-1.478115e-02 8.463340e-02 -8.041957e-02
-1.405710e-02 -7.963443e-02 -6.732058e-02
-8.753905e-02 2.624332e-04 -3.900041e-02
-5.727645e-02 3.426297e-02 -1.165223e-01
-6.423283e-02 -3.557334e-02 -1.179410e-01
-3.932935e-02 -6.217901e-02 -1.887100e-02
-4.318232e-02 6.079253e-02 -1.700281e-02
8.134504e-02 -2.596459e-03 -5.760492e-02
-3.742654e-02 -5.070132e-02 7.472742e-03
3.093376e-04 2.385796e-04 2.901016e-02
-3.724608e-02 4.628630e-02 9.448655e-03
1.333447e-02 3.535195e-02 -1.411580e-01
1.165161e-02 -3.191834e-02 -1.380563e-01
5.750896e-02 -2.193678e-02 6.858988e-03
6.260032e-02 -5.552333e-02 -3.184827e-02
5.681877e-02 2.324325e-02 7.356025e-03
5.976922e-02 5.506067e-02 -3.238506e-02
-6.209853e-02 1.919121e-02 6.313181e-03
-6.239175e-02 -2.080645e-02 4.203214e-03
-8.919220e-04 6.148078e-02 8.245607e-03
-3.496930e-04 8.039653e-04 2.987847e-02
-3.524141e-03 -6.141512e-02 4.507383e-03
-4.893270e-03 -6.008590e-02 5.715550e-03
-9.806067e-04 6.150691e-02 7.323914e-03
8.048925e-02 -3.121078e-02 -5.920438e-02
7.791601e-02 3.007503e-02 -6.281473e-02
-5.434704e-02 -5.841274e-02 -1.139003e-01
-4.929119e-02 5.126855e-02 -1.025602e-01
3.065566e-02 4.614748e-02 1.111220e-02
1.137693e-02 5.353750e-02 1.271287e-02
2.920003e-02 -4.922869e-02 1.405079e-02
3.228732e-04 1.214141e-03 2.943437e-02
1.451305e-02 -5.479230e-02 1.285897e-02
-1.879556e-02 -5.224634e-02 1.347718e-02
-1.994666e-02 5.174510e-02 1.078741e-02
-5.721361e-02 2.924461e-02 -1.049548e-01
-5.800654e-02 -2.413274e-02 -1.092996e-01
-1.642701e-02 5.456512e-02 1.242235e-02
-1.715037e-02 -5.150887e-02 1.109327e-02
-4.567185e-02 3.598363e-02 1.204945e-02
-4.770717e-02 -3.649776e-02 1.091706e-02
2.588838e-02 4.172806e-02 1.673463e-02
7.407537e-04 -2.667643e-04 3.060845e-02
2.802466e-02 -4.025893e-02 1.604186e-02
-4.672234e-02 2.370028e-02 1.482587e-02
-4.341791e-02 -2.459662e-02 1.692903e-02
-2.045198e-02 -3.931380e-02 -1.375808e-01
-1.077405e-02 3.531195e-02 -1.389050e-01
4.275835e-02 -8.860128e-03 2.201071e-02
4.220269e-02 8.889647e-03 1.775684e-02
-1.696213e-02 -1.093490e-03 -1.424553e-01
-5.769036e-02 -2.282933e-02 -1.140200e-01
7.485892e-03 -6.540431e-02 -1.068748e-01
-2.106799e-04 2.058746e-04 3.342496e-02
6.754388e-04 6.840651e-02 -1.071250e-01
3.304386e-02 2.041466e-02 2.177198e-02
3.641007e-02 -2.274874e-02 2.356737e-02
2.478791e-02 -2.716399e-02 2.263363e-02
2.464057e-02 2.654674e-02 2.294158e-02
2.200917e-02 -2.695592e-03 2.964196e-02
1.833068e-02 1.585177e-03 2.980623e-02
-6.756656e-02 1.675160e-02 -9.581729e-02
6.035148e-03 3.934337e-02 1.966513e-02
7.971105e-03 -4.043347e-02 2.378013e-02
-1.062193e-03 -8.300391e-04 3.300727e-02
-4.257588e-02 3.779550e-03 2.116200e-02
-3.658215e-02 -4.660958e-03 2.564374e-02
5.655820e-02 5.774640e-02 -7.392301e-02
6.142351e-02 -6.332829e-02 -7.731991e-02
5.227547e-02 -5.926082e-02 -9.127636e-02
4.636655e-02 6.957422e-02 -9.614148e-02
-2.938896e-02 -1.622949e-02 2.332259e-02
-3.336027e-02 1.629439e-02 2.154846e-02
-2.219090e-02 3.000102e-02 2.439311e-02
-2.195280e-02 -2.494195e-02 2.470478e-02
1.951933e-03 -4.150114e-04 3.235746e-02
-4.476546e-02 -5.297256e-02 -1.097826e-01
-5.058817e-02 5.615280e-02 -1.180949e-01
-1.706883e-02 3.067949e-02 2.501530e-02
-1.670365e-02 -2.993507e-02 2.450786e-02
-2.019930e-02 -3.607431e-03 2.610003e-02
-2.165967e-02 4.870465e-03 3.094515e-02
2.664034e-02 1.708273e-02 2.492464e-02
2.936197e-02 -1.893846e-02 2.693344e-02
5.652218e-03 3.076898e-02 -1.430045e-01
2.264082e-03 -2.564125e-02 -1.399080e-01
-8.547531e-05 7.696214e-04 3.281470e-02
-1.342810e-02 -2.650928e-02 2.479845e-02
-1.726457e-02 2.797681e-02 2.461474e-02
1.118756e-02 2.844913e-02 2.400968e-02
1.191600e-02 -2.712161e-02 2.570097e-02
3.093524e-02 7.433234e-03 -1.480565e-01
2.710228e-02 -6.786580e-03 -1.374530e-01
6.938242e-02 -1.468577e-02 -5.471416e-03
6.754399e-02 1.456407e-02 -3.248495e-03
7.293526e-02 -4.090896e-02 -3.435560e-02
7.228039e-02 3.833352e-02 -2.600132e-02
1.460529e-03 1.735842e-04 3.320087e-02
-5.063848e-04 -6.140740e-04 3.081317e-02
-2.290217e-02 -2.299768e-02 2.693207e-02
-2.186039e-02 2.121264e-02 2.859149e-02
5.688644e-02 -3.576326e-02 -4.336180e-03
6.182051e-02 3.452044e-02 -1.083694e-02
-6.639617e-02 3.925164e-02 -2.195487e-02
-6.613178e-02 -3.614581e-02 -2.056137e-02
3.164448e-03 -3.346014e-02 2.806874e-02
3.258621e-03 3.392003e-02 2.745269e-02
7.932965e-02 -2.059711e-02 -5.094637e-02
8.472488e-02 2.544287e-02 -6.261599e-02
-1.653716e-05 -1.028944e-03 3.282292e-02
-4.243589e-03 2.675277e-02 2.911444e-02
-5.485263e-03 -2.937719e-02 2.894186e-02
-2.758598e-03 2.690627e-02 2.844684e-02
-4.781702e-03 -3.119682e-02 2.856597e-02
1.047931e-02 3.018080e-02 2.736804e-02
1.190968e-02 -2.860906e-02 2.878285e-02
3.941539e-02 -6.523513e-02 -4.754924e-02
4.513205e-02 6.966794e-02 -4.326893e-02
-2.002306e-02 -8.435130e-02 -3.863450e-02
-2.049010e-02 8.296308e-02 -3.910228e-02
7.388228e-04 -1.290245e-03 3.124222e-02
-2.618582e-02 8.202040e-02 -4.157821e-02
-2.869943e-02 -8.111504e-02 -4.478771e-02
2.001648e-02 2.241559e-02 2.411830e-02
1.713920e-02 -1.888533e-02 2.780621e-02
1.898845e-02 -6.541613e-02 -1.053705e-01
2.233539e-02 7.395934e-02 -1.194330e-01
7.534372e-03 8.248190e-02 -5.259608e-02
4.209427e-03 -8.877945e-02 -6.433033e-02
-1.676315e-02 2.291519e-02 2.972056e-02
-1.728369e-02 -2.354288e-02 2.936325e-02
5.889146e-04 -6.427738e-04 3.304851e-02
8.307890e-03 7.915491e-02 -2.864873e-02
1.187740e-02 -7.733898e-02 -2.585062e-02
-7.620333e-02 1.514880e-02 -6.438964e-02
-9.003227e-02 -1.992683e-02 -6.950395e-02
1.598447e-03 -2.655487e-02 2.850751e-02
9.008928e-04 2.776468e-02 2.948950e-02
-2.826673e-02 7.091406e-03 2.907244e-02
-2.379206e-02 8.225476e-03 2.620080e-02
-2.333330e-02 -9.678010e-03 2.654656e-02
5.990599e-02 3.295023e-03 9.876625e-03
2.637713e-04 2.010999e-04 3.326114e-02
-6.096293e-02 5.645411e-02 -2.399868e-02
-5.428229e-02 -4.959899e-02 -2.634145e-02
-5.618979e-02 5.286224e-02 -2.310636e-02
-5.424709e-02 -5.126025e-02 -2.076502e-02
2.660710e-02 1.375561e-02 2.821244e-02
2.670859e-02 -1.405748e-02 2.842810e-02
-2.647195e-02 -8.297019e-03 2.619644e-02
-1.245290e-02 -8.032531e-02 -4.395074e-02
-1.278896e-02 8.968871e-02 -4.740057e-02
6.038651e-03 2.242681e-02 2.619790e-02
-1.058031e-04 1.058065e-03 3.045549e-02
4.696177e-03 -2.499807e-02 2.668619e-02
-1.968015e-02 1.770509e-02 2.864727e-02
-1.789183e-02 -1.677858e-02 2.521264e-02
-7.346236e-02 3.006789e-02 -2.358551e-02
-7.015470e-02 -2.962257e-02 -2.324272e-02
5.893048e-02 1.074516e-02 -1.360223e-01
2.003231e-02 1.576339e-02 2.987499e-02
2.037423e-02 -1.620633e-02 2.992907e-02
1.664520e-02 -2.094255e-02 2.821473e-02
1.530265e-02 2.097985e-02 2.796134e-02
5.856446e-05 -2.067934e-04 3.038231e-02
-2.180394e-02 -1.463073e-02 2.898727e-02
-1.864892e-02 1.187568e-02 2.747675e-02
-2.967609e-02 -5.162088e-02 -1.373146e-01
-2.517826e-02 5.136446e-02 -1.315249e-01
-8.192285e-02 -1.911678e-02 -4.109628e-02
-4.805121e-02 7.381188e-02 -5.017588e-02
-5.169702e-02 -7.137909e-02 -5.945453e-02
1.957590e-02 1.641845e-02 2.981197e-02
1.947726e-02 -1.576579e-02 2.882660e-02
2.522567e-03 4.719762e-03 -1.454979e-01
-2.717698e-05 3.791335e-04 3.328627e-02
8.327349e-03 -3.108518e-03 -1.530691e-01
-2.933203e-02 6.319794e-02 -4.155673e-03
-3.482446e-02 -6.520509e-02 -3.905880e-03
7.047110e-02 -4.559264e-02 -1.001266e-01
6.842709e-02 4.621004e-02 -9.873179e-02
2.951328e-02 7.206922e-02 -1.302776e-02
3.042558e-02 -6.921943e-02 -1.662203e-02
6.777838e-02 -8.263648e-03 -5.794714e-03
5.097081e-02 6.372752e-02 -2.459367e-02
4.382635e-02 -6.144443e-02 -1.828794e-02
-6.504112e-04 -1.961206e-04 3.004671e-02
6.674850e-02 -8.786474e-03 -1.320080e-01
-7.176475e-02 5.159902e-02 -5.816380e-02
-7.102527e-02 -4.868559e-02 -5.104776e-02
-7.207876e-03 2.347476e-02 2.773795e-02
-9.587631e-03 -2.180344e-02 2.890345e-02
-7.309979e-02 1.053276e-02 -5.609480e-03
-7.545717e-03 2.147778e-02 2.726447e-02
-8.916692e-03 -2.150164e-02 2.887113e-02
-3.054208e-02 1.372022e-02 -1.566963e-01
5.179275e-03 -1.397450e-02 -1.606785e-01
8.027897e-04 -1.067327e-03 2.932051e-02
1.323985e-02 1.393489e-02 -1.474789e-01
6.939958e-02 -4.567017e-02 -8.953727e-02
7.120234e-02 5.036293e-02 -8.693190e-02
-7.487296e-02 -8.807044e-03 -1.145927e-01
-1.864710e-02 -1.349815e-02 2.938922e-02
-2.016885e-02 1.284800e-02 2.930850e-02
1.317828e-02 1.946290e-02 3.041204e-02
1.177212e-02 -2.016813e-02 3.029653e-02
1.945034e-02 -2.536126e-03 2.758492e-02
2.148354e-02 2.784850e-03 3.120838e-02
1.919522e-04 4.054306e-04 3.300577e-02
1.120927e-03 1.133750e-03 3.132131e-02
1.990364e-02 -3.242175e-02 -1.434538e-01
2.134612e-02 3.121708e-02 -1.459309e-01
4.852529e-02 5.886899e-02 -8.772625e-03
4.342131e-02 -5.529167e-02 -1.069076e-02
5.846205e-02 1.268200e-02 -1.059190e-01
6.631497e-02 -1.663098e-02 -1.214576e-01
-4.764077e-02 -2.209599e-02 -1.317341e-01
-4.693102e-02 2.658630e-02 -1.286543e-01
-2.467422e-02 4.514722e-04 2.913608e-02
-2.225670e-02 7.962028e-03 2.993076e-02
-8.322054e-04 -1.709471e-03 3.130957e-02
-5.009396e-02 1.203244e-02 -1.385232e-01
-5.143407e-02 -8.252300e-03 -1.366925e-01
-3.808889e-02 -7.283769e-02 -9.599633e-02
-4.036726e-02 7.654796e-02 -9.314790e-02
4.032369e-02 3.647730e-02 1.093563e-02
3.863682e-02 -3.322100e-02 1.110589e-02
-2.654043e-04 2.039292e-02 3.037633e-02
-1.907945e-03 -1.973340e-02 2.825986e-02
8.679231e-02 1.026470e-02 -4.310400e-02
8.213820e-02 -1.234523e-02 -3.826932e-02
1.183034e-03 9.749621e-04 3.028525e-02
-5.940549e-02 -3.553921e-06 6.494996e-03
1.879560e-02 -5.388898e-03 2.877491e-02
1.846902e-02 5.655787e-03 2.847967e-02
6.613241e-02 2.450769e-02 -4.722634e-03
6.419672e-02 -2.495449e-02 -4.589071e-03
-7.673824e-02 3.271901e-02 -4.137811e-02
8.386181e-03 6.905092e-02 -3.056700e-03
8.755227e-03 -6.483707e-02 -1.102438e-03
-7.260137e-02 -2.828871e-02 -4.813977e-02
6.561688e-04 -8.088375e-03 -1.608196e-01
-1.924889e-04 3.860537e-04 2.972925e-02
9.161640e-04 4.607693e-03 -1.596288e-01
4.798405e-03 -3.436152e-03 -1.498379e-01
1.662907e-02 9.532905e-03 3.049637e-02
1.756321e-02 -7.515466e-03 2.748289e-02
-1.223188e-02 1.837306e-02 2.985413e-02
-1.195655e-02 -1.817391e-02 3.078866e-02
6.899471e-03 2.521239e-04 -1.586886e-01
9.119840e-03 1.417001e-02 -1.448938e-01
5.696643e-03 1.964060e-02 2.984951e-02
5.898669e-03 -2.052729e-02 3.006622e-02
-5.478953e-04 -1.921724e-04 3.350870e-02
-2.440943e-02 -5.604595e-02 7.143378e-03
-2.498909e-02 5.803413e-02 6.878571e-03
4.431561e-02 5.088075e-03 2.165087e-02
4.035392e-02 -6.261689e-03 2.331328e-02
-1.101572e-02 6.147148e-02 -1.263448e-03
-8.701895e-03 -6.650475e-02 -1.447661e-03
6.131152e-02 -4.934383e-02 -3.017451e-02
6.343894e-02 4.471649e-02 -3.931795e-02
-2.046333e-02 -5.385962e-03 -1.554867e-01
-1.886374e-02 1.761549e-03 3.046654e-02
-5.142508e-04 7.591122e-04 3.308643e-02
-4.129561e-02 -4.482010e-03 2.290583e-02
-3.733389e-02 4.509762e-03 2.193154e-02
9.578670e-03 -4.032893e-03 -1.576326e-01
-8.183699e-03 5.577189e-02 3.918161e-03
-6.000554e-03 -5.605847e-02 7.165158e-03
-1.535409e-02 9.430423e-03 2.865659e-02
-1.877191e-02 -9.333572e-03 3.092745e-02
-7.244537e-02 5.625643e-02 -5.314326e-02
-7.250982e-02 -5.058812e-02 -5.289209e-02
2.809308e-02 -5.347396e-02 7.393841e-03
-2.489787e-03 4.989375e-04 3.072446e-02
2.688312e-02 5.611706e-02 8.769066e-03
7.359899e-02 1.250963e-02 -1.035490e-02
-5.230979e-02 1.795698e-02 1.205339e-02
-5.222582e-02 -1.955478e-02 1.386492e-02
4.956482e-02 -6.458550e-02 -9.057718e-02
5.739311e-02 5.864061e-02 -9.971287e-02
1.587950e-02 1.027993e-02 3.088420e-02
1.621419e-02 -1.025529e-02 3.039219e-02
1.819110e-02 4.909077e-03 3.094871e-02
1.710409e-02 -8.097791e-03 2.950257e-02
2.346306e-04 -2.113841e-03 3.162503e-02
8.784348e-03 -1.657045e-02 2.980284e-02
8.367367e-03 1.619034e-02 2.891107e-02
-6.569717e-03 -8.306912e-02 -8.749306e-02
-7.579048e-04 7.455742e-02 -8.524178e-02
1.683541e-02 -5.561292e-02 1.175224e-02
1.366468e-02 5.279514e-02 9.616063e-03
-6.479509e-02 -1.153467e-02 2.490666e-03
4.633750e-02 -3.745213e-03 2.115496e-02
5.447553e-02 3.864417e-02 -9.230608e-03
5.402513e-02 -3.697508e-02 -9.462158e-03
4.160100e-04 1.550856e-03 3.217612e-02
-2.015919e-02 -3.353589e-03 3.038570e-02
-2.767898e-03 -1.927995e-02 2.910914e-02
-3.559550e-03 1.918477e-02 2.905747e-02
-3.104919e-02 4.964934e-02 1.282536e-02
-3.185305e-02 -4.788761e-02 1.234517e-02
1.299187e-03 -1.655621e-02 2.785347e-02
2.338025e-03 2.123876e-02 2.965570e-02
-1.813184e-02 -6.651866e-03 3.069382e-02
5.995318e-03 -6.177601e-02 8.295035e-03
7.752766e-03 5.754511e-02 1.094334e-02
2.186853e-04 -7.018751e-04 3.091762e-02
-6.167471e-03 2.026086e-02 2.776440e-02
-4.119636e-03 -1.928574e-02 2.768834e-02
-3.999699e-02 -4.500709e-02 1.133705e-02
-4.031085e-02 4.053074e-02 1.216800e-02
1.206421e-02 -1.134644e-02 3.153529e-02
1.048538e-02 1.225779e-02 3.109677e-02
-9.371591e-04 -1.924716e-02 2.763781e-02
-1.143835e-03 1.885716e-02 2.905091e-02
-6.018815e-02 1.205033e-02 -1.280337e-01
-3.161786e-02 -2.534820e-02 -1.338962e-01
-2.591602e-04 -1.526957e-04 3.290420e-02
-2.022154e-03 6.209853e-04 3.115246e-02
-2.709656e-02 2.487469e-02 -1.374434e-01
6.860240e-02 -3.273127e-02 -1.209913e-01
6.098422e-02 2.547036e-02 -1.119694e-01
4.024761e-02 9.625947e-03 1.829680e-02
4.018687e-02 -9.646890e-03 2.241717e-02
4.556991e-02 2.251811e-02 1.227993e-02
4.788584e-02 -2.588757e-02 1.179481e-02
5.277869e-02 2.630674e-02 6.024363e-03
5.329871e-02 -2.407812e-02 9.276144e-03
-1.051168e-02 1.200765e-02 3.032306e-02
3.226257e-04 -5.905932e-04 2.975710e-02
-1.252250e-02 -1.282709e-02 2.884683e-02
3.898576e-02 7.148879e-02 -4.179985e-02
3.902882e-02 -7.224503e-02 -3.775371e-02
9.400329e-03 1.528404e-02 3.206085e-02
9.890595e-03 -1.478868e-02 3.043682e-02
-4.394792e-02 3.762906e-02 4.785985e-03
-4.866350e-02 -4.170069e-02 5.867722e-03
4.852618e-02 -6.729476e-02 -1.089386e-01
4.637121e-02 6.597067e-02 -1.105462e-01
-5.792447e-02 2.644417e-02 6.892550e-03
1.159573e-03 4.583071e-05 3.055691e-02
-5.633097e-02 -2.463280e-02 9.486669e-03
1.830565e-02 -7.334146e-02 -2.821397e-02
2.187416e-02 8.065929e-02 -2.780580e-02
-9.968418e-03 -1.439038e-02 3.182342e-02
-8.893543e-03 1.336576e-02 3.016973e-02
-9.613411e-03 -8.307519e-05 -1.577518e-01
-1.083965e-02 -1.246711e-02 3.227381e-02
-1.099301e-02 1.175466e-02 2.821385e-02
-1.443992e-02 1.289048e-02 2.707057e-02