# vtk DataFile Version 2.0
Electric current density generated by TTH
ASCII
DATASET UNSTRUCTURED_GRID
POINTS 2423 double
-2.298699e-05 1.361522e-05 -3.490551e-22
-2.345317e-05 -8.914057e-06 1.410825e-06
1.451038e-05 1.921371e-05 7.462492e-07
-3.493539e-06 2.612234e-05 -9.487056e-07
-2.073803e-05 -1.181259e-05 -9.421936e-09
-7.826276e-06 2.516692e-05 -9.477918e-07
1.038845e-05 -2.423736e-05 -9.316793e-07
6.021859e-06 -2.569009e-05 -9.121534e-07
2.541794e-05 -7.060275e-06 -9.194879e-07
2.541794e-05 7.060275e-06 -9.194879e-07
-2.123988e-05 -1.299542e-05 1.370329e-06
-2.342911e-05 1.283950e-05 -3.490551e-22
-6.256469e-06 2.404929e-05 -1.354958e-06
-2.631405e-05 -1.614285e-06 9.389661e-07
2.418036e-05 1.067312e-05 8.556341e-07
2.418036e-05 -1.067312e-05 8.556341e-07
-1.770296e-05 -1.733769e-05 1.329735e-06
4.864199e-06 2.598741e-05 8.454423e-07
9.567347e-06 -2.317467e-05 -1.408110e-06
-7.192038e-06 -2.539728e-05 9.005775e-07
5.480793e-06 2.583543e-05 -8.826023e-07
-5.950680e-06 -2.411385e-05 1.350802e-06
-2.384505e-05 1.204945e-05 -3.490551e-22
-4.462338e-06 2.446092e-05 -1.359700e-06
-5.380148e-06 -2.403165e-05 -1.260502e-06
-1.285786e-05 -2.093605e-05 -1.228516e-06
1.066720e-05 -2.236916e-05 -1.331117e-06
-2.382928e-05 -8.911817e-06 -1.417236e-06
2.809831e-06 2.517718e-05 -1.424506e-06
-1.792928e-05 -1.688588e-05 -1.261844e-06
1.509407e-05 1.851354e-05 2.410247e-07
6.205260e-06 2.562783e-05 9.333989e-07
-7.717328e-06 2.395454e-05 1.419679e-06
-2.423437e-05 1.124594e-05 -3.490551e-22
1.618465e-05 -1.912700e-05 -1.405480e-06
-2.160732e-05 -1.013860e-05 6.251437e-08
2.221340e-05 1.122215e-05 -1.366580e-06
2.221340e-05 -1.122215e-05 -1.366580e-06
-1.853203e-06 2.548061e-05 1.401861e-06
1.522372e-05 2.160815e-05 8.539041e-07
1.238517e-05 -2.052777e-05 5.448847e-07
-1.583086e-05 1.919004e-05 1.363580e-06
2.062811e-05 1.209882e-05 3.671704e-07
2.062811e-05 -1.209882e-05 3.671704e-07
-2.459662e-05 1.042987e-05 -3.490551e-22
5.721557e-06 2.459941e-05 -1.424685e-06
2.337693e-05 5.017139e-06 -3.471271e-07
2.337693e-05 -5.017139e-06 -3.471271e-07
9.701180e-07 2.515594e-05 -1.420330e-06
-2.449289e-05 9.964994e-06 -8.403710e-07
1.751691e-05 1.785999e-05 1.398334e-06
-2.581261e-05 5.778494e-06 -8.278139e-07
1.477811e-05 1.928084e-05 -1.016761e-06
-3.611583e-06 2.612033e-05 9.328762e-07
-2.033455e-05 -1.460426e-05 1.401960e-06
-2.493140e-05 9.602148e-06 -3.490551e-22
2.496480e-06 -2.488771e-05 1.397580e-06
2.016715e-05 1.474719e-05 -1.391535e-06
2.016715e-05 -1.474719e-05 -1.391535e-06
-2.530863e-05 1.519292e-06 -1.423744e-06
-1.771052e-05 1.956253e-05 9.096127e-07
-5.880560e-06 2.353263e-05 9.794568e-07
-2.454616e-05 -9.865379e-06 8.236161e-07
9.839631e-07 -2.403409e-05 7.072746e-07
-2.198019e-06 -2.495322e-05 1.404494e-06
4.004020e-06 2.493193e-05 -1.424563e-06
-2.523833e-05 8.763703e-06 -3.490551e-22
9.690771e-06 2.458243e-05 8.655753e-07
4.328144e-06 -2.464554e-05 1.399554e-06
1.930480e-06 -2.404572e-05 -8.160282e-07
-1.571300e-05 1.944480e-05 -1.394997e-06
-2.365333e-05 3.398648e-06 2.904891e-07
1.624650e-05 1.916436e-05 -1.415268e-06
-2.231128e-05 -8.480059e-06 7.827937e-08
2.287710e-05 -6.800641e-06 2.256387e-08
2.287710e-05 6.800641e-06 2.256387e-08
-1.506510e-05 -1.854896e-05 2.895212e-07
-2.551708e-05 7.915471e-06 -3.490551e-22
1.771063e-05 -1.755250e-05 -1.379839e-06
1.756630e-05 1.769762e-05 -1.379964e-06
2.088993e-05 -1.261981e-05 1.116600e-06
2.088993e-05 1.261981e-05 1.116600e-06
1.141027e-05 -2.384460e-05 8.517432e-07
2.604945e-05 -4.326461e-06 -8.877691e-07
2.604945e-05 4.326461e-06 -8.877691e-07
-2.297703e-05 -6.834495e-06 -5.383963e-07
-2.418944e-05 7.503849e-06 1.424692e-06
2.246542e-05 8.358606e-06 -5.336367e-07
-2.576732e-05 7.058398e-06 -3.490551e-22
2.246542e-05 -8.358606e-06 -5.336367e-07
-9.928848e-06 -2.454851e-05 -7.857530e-07
4.424850e-07 -2.647684e-05 -7.855423e-07
-2.550720e-05 -6.853304e-06 -8.807589e-07
-1.596132e-05 -2.112849e-05 -7.867349e-07
3.223376e-06 -2.389063e-05 7.926463e-07
-1.572436e-05 -2.120420e-05 8.976296e-07
-2.145424e-05 -1.087849e-05 7.080111e-07
2.419435e-05 -7.384226e-06 1.425118e-06
2.419435e-05 7.384226e-06 1.425118e-06
-2.598879e-05 6.193442e-06 -3.490551e-22
-2.050076e-05 1.675300e-05 -7.933363e-07
2.457977e-05 5.293554e-06 -1.417406e-06
2.457977e-05 -5.293554e-06 -1.417406e-06
2.133033e-05 1.556858e-05 -8.860692e-07
2.133033e-05 -1.556858e-05 -8.860692e-07
-1.942565e-06 2.393498e-05 -6.310905e-07
-1.701880e-05 2.017361e-05 9.036612e-07
-8.327681e-06 2.253614e-05 -6.546035e-07
7.632965e-06 2.274948e-05 5.936286e-07
-2.127498e-05 -1.559860e-05 9.189905e-07
-2.618123e-05 5.321569e-06 -3.490551e-22
-1.464107e-05 1.923094e-05 -8.794201e-07
-2.569858e-06 -2.625575e-05 9.183750e-07
-2.048851e-05 -1.456748e-05 -1.416993e-06
-1.037590e-05 -2.154698e-05 3.695979e-07
-2.396411e-05 -7.041193e-06 1.390029e-06
-2.401109e-05 -9.970827e-06 -1.237061e-06
1.833473e-05 1.707011e-05 -1.404687e-06
1.833473e-05 -1.707011e-05 -1.404687e-06
-5.620539e-06 2.336214e-05 -6.606914e-07
2.394661e-05 -2.500491e-06 -7.453924e-07
-2.634443e-05 4.443752e-06 -3.490551e-22
2.394661e-05 2.500491e-06 -7.453924e-07
-9.065986e-06 -2.267542e-05 -1.128111e-06
-1.779828e-05 -1.951471e-05 -8.803376e-07
1.187227e-06 -2.524165e-05 -1.424957e-06
-7.722976e-06 -2.525754e-05 -8.806974e-07
2.157720e-05 1.102515e-05 9.517780e-07
2.157720e-05 -1.102515e-05 9.517780e-07
1.182577e-05 -2.241833e-05 -1.424073e-06
1.177615e-05 2.244792e-05 -1.423951e-06
-2.289120e-05 -1.053528e-05 -1.422135e-06
-2.647820e-05 3.560972e-06 -3.490551e-22
-2.337437e-05 -5.207685e-06 -4.740021e-07
1.147349e-05 -2.108869e-05 6.190087e-07
-2.555560e-05 7.460234e-08 1.400412e-06
-2.431302e-05 -6.071298e-06 1.406138e-06
-2.343086e-05 9.228621e-06 1.420976e-06
-1.473968e-05 -2.057767e-05 -1.424977e-06
1.016677e-05 -2.197751e-05 9.341129e-07
1.211310e-05 -2.218882e-05 1.425078e-06
9.096784e-06 2.207955e-05 1.974685e-07
1.858394e-05 1.564869e-05 -1.018798e-06
-2.658241e-05 2.674215e-06 -3.490551e-22
1.858394e-05 -1.564869e-05 -1.018798e-06
1.591755e-05 1.826918e-05 9.518272e-07
-2.444897e-05 -2.095373e-06 1.210034e-06
-8.937323e-06 2.286106e-05 1.214579e-06
1.991501e-05 -1.324189e-05 -3.714335e-07
1.991501e-05 1.324189e-05 -3.714335e-07
-1.153868e-05 -2.089294e-05 -5.689502e-08
6.273928e-06 2.318416e-05 6.398805e-07
-4.842875e-06 -2.604883e-05 7.628970e-07
-1.994445e-05 -1.744174e-05 7.628970e-07
-2.665692e-05 1.784471e-06 -3.490551e-22
-1.643746e-05 1.863503e-05 1.354581e-06
1.697489e-05 2.008224e-05 1.011568e-06
-1.894453e-05 -1.451813e-05 6.456357e-08
1.339377e-05 2.171386e-05 1.407888e-06
-2.629574e-05 2.999253e-06 -8.067758e-07
2.372059e-05 -3.509982e-06 5.550804e-07
2.372059e-05 3.509982e-06 5.550804e-07
2.120927e-05 -1.575178e-05 8.718633e-07
2.120927e-05 1.575178e-05 8.718633e-07
6.949206e-06 -2.413194e-05 1.413855e-06
-2.670166e-05 8.927340e-07 -3.490551e-22
-1.327692e-06 -2.646184e-05 -7.629942e-07
1.300756e-05 -2.042356e-05 -9.327940e-07
1.124550e-05 -2.392426e-05 -8.498958e-07
2.540216e-05 -2.508064e-06 -1.405747e-06
2.540216e-05 2.508064e-06 -1.405747e-06
3.931513e-06 2.391084e-05 9.530638e-07
-2.473790e-05 -4.310203e-06 1.413602e-06
-5.348822e-06 -2.492089e-05 1.411447e-06
-2.161621e-05 -1.118209e-05 -1.058485e-06
-1.710025e-05 2.011309e-05 -8.957266e-07
-2.671658e-05 1.337818e-19 -3.490551e-22
7.156300e-06 2.543807e-05 -8.630743e-07
-1.993988e-05 -1.322072e-05 -4.033276e-07
2.611942e-05 -4.152548e-06 8.334600e-07
2.611942e-05 4.152548e-06 8.334600e-07
7.861205e-09 2.393994e-05 -4.520990e-07
-1.977044e-05 -1.683045e-05 -1.256399e-06
-1.870145e-05 -1.732686e-05 1.410603e-06
-2.841535e-06 -2.369885e-05 8.028634e-08
2.185315e-05 -1.245971e-05 1.418636e-06
2.185315e-05 1.245971e-05 1.418636e-06
-2.670166e-05 -8.927340e-07 -3.490551e-22
1.262448e-05 2.321037e-05 -8.682454e-07
-7.468018e-06 2.285682e-05 -6.925160e-07
5.882106e-06 -2.313186e-05 6.920236e-08
-2.075095e-06 -2.513530e-05 -1.423373e-06
-2.138974e-05 1.386794e-05 -1.410949e-06
-2.563273e-05 -4.956705e-07 -1.382469e-06
5.295909e-06 2.343904e-05 6.628852e-07
-2.515344e-05 3.253875e-06 -1.423327e-06
-2.388218e-05 -4.179233e-06 -9.675284e-07
2.323441e-05 1.064196e-05 1.400431e-06
-2.665692e-05 -1.784471e-06 -3.490551e-22
2.323441e-05 -1.064196e-05 1.400431e-06
-1.013504e-05 2.181016e-05 -6.998115e-07
-1.249008e-06 -2.388769e-05 -3.885292e-07
2.457809e-05 -9.866038e-06 7.797183e-07
2.457809e-05 9.866038e-06 7.797183e-07
2.144643e-06 2.638204e-05 8.026322e-07
1.866224e-05 1.510722e-05 6.247473e-07
1.866013e-05 -1.511053e-05 6.256531e-07
-2.494926e-05 -3.006401e-06 -1.415921e-06
-1.973127e-05 -1.428007e-05 -1.075643e-06
-2.658241e-05 -2.674215e-06 -3.490551e-22
7.080068e-06 2.414861e-05 1.419514e-06
-1.252345e-05 -2.275449e-05 -1.251519e-06
2.277392e-06 -2.375815e-05 4.542902e-08
-1.735121e-05 -1.849630e-05 -1.423431e-06
-2.418124e-05 1.080739e-05 -7.765180e-07
1.625558e-05 -1.767397e-05 -6.292275e-07
-7.068738e-06 -2.434550e-05 -1.423884e-06
-4.397666e-06 -2.561179e-05 -1.244091e-06
-2.291191e-05 7.785443e-06 9.145967e-07
5.116007e-07 2.646502e-05 8.013192e-07
-2.647820e-05 -3.560972e-06 -3.490551e-22
6.603677e-06 2.441296e-05 -1.425125e-06
-5.116097e-07 2.646506e-05 8.012613e-07
-1.093565e-05 2.297057e-05 -1.417277e-06
-2.192334e-05 -1.473046e-05 -8.799300e-07
6.558926e-06 2.313038e-05 -6.860599e-07
3.156752e-06 2.628192e-05 8.000507e-07
-2.380794e-05 9.244250e-06 -1.403346e-06
-2.154710e-05 1.537552e-05 -8.006115e-07
1.907114e-05 1.443573e-05 -3.823586e-07
1.907114e-05 -1.443573e-05 -3.823586e-07
-2.634443e-05 -4.443752e-06 -3.490551e-22
-2.537355e-05 2.031546e-06 1.415739e-06
1.370560e-05 -2.111282e-05 1.420051e-06
-1.779179e-06 2.432447e-05 1.103340e-06
2.395847e-05 -4.496476e-06 1.092849e-06
2.395847e-05 4.496476e-06 1.092849e-06
-1.994832e-05 1.745479e-05 -7.444196e-07
2.584854e-05 5.775774e-06 7.772528e-07
2.584854e-05 -5.775774e-06 7.772528e-07
-1.059953e-05 -2.425302e-05 8.040812e-07
-2.363569e-05 -3.406579e-06 1.963497e-07
-2.618123e-05 -5.321569e-06 -3.490551e-22
[...]
POINT_DATA 2423
VECTORS 10.000GHz_fone_imag double
1.278517e+10 2.029875e+10 2.182635e+08
-7.627969e+09 2.399874e+10 -6.196240e+07
2.338010e+10 -1.669321e+10 4.196967e+08
2.013592e+10 3.319680e+09 -1.403746e+09
-1.513341e+10 2.796946e+10 3.958036e+08
2.012697e+10 5.662779e+09 2.067401e+09
-2.154144e+10 -1.121852e+10 -2.180245e+09
-1.988228e+10 -5.234408e+09 -1.295937e+09
-5.598897e+09 -2.391006e+10 9.131267e+08
5.596400e+09 -2.397527e+10 -9.102416e+08
-1.331751e+10 2.154598e+10 -1.365608e+09
1.296264e+10 2.324015e+10 -6.967512e+08
2.708866e+10 6.809413e+09 -5.041191e+08
-1.432422e+09 2.114656e+10 1.310669e+09
7.673731e+09 -1.924066e+10 3.602226e+08
-7.936477e+09 -1.982996e+10 5.420356e+08
-1.920322e+10 1.928615e+10 3.887535e+08
2.022194e+10 -4.190750e+09 2.129779e+08
-3.421834e+10 -1.336901e+10 9.200549e+08
-2.115581e+10 7.029263e+09 -5.199139e+08
2.177149e+10 -5.400089e+09 -8.307654e+08
-3.059320e+10 6.195627e+09 8.570630e+08
7.957664e+09 1.944168e+10 -9.966255e+08
2.542961e+10 4.730579e+09 1.478664e+09
-2.790634e+10 5.515485e+09 9.572627e+08
-2.297350e+10 1.402332e+10 1.072469e+09
-2.464727e+10 -1.128589e+10 2.932696e+08
-8.905315e+09 2.298656e+10 3.258191e+08
2.500002e+10 -2.996621e+09 -1.052133e+09
-1.978509e+10 2.034878e+10 -5.484899e+08
2.229916e+10 -2.072145e+10 -5.996552e+08
2.088190e+10 -4.687811e+09 4.036289e+08
2.559401e+10 6.823592e+09 5.589671e+08
7.767023e+09 1.822334e+10 -9.128555e+06
-1.981023e+10 -1.719796e+10 -6.253410e+08
-1.412485e+10 2.668640e+10 -8.645472e+08
1.219441e+10 -2.427985e+10 -5.036860e+08
-1.339514e+10 -2.429555e+10 -1.129520e+09
2.468112e+10 2.595869e+09 3.274756e+08
1.722231e+10 -1.258911e+10 -2.434731e+08
-2.323193e+10 -1.369726e+10 -1.058603e+09
2.067207e+10 1.569172e+10 1.457769e+09
1.530509e+10 -2.534488e+10 -8.864372e+08
-1.692627e+10 -2.856960e+10 -9.518123e+06
8.033533e+09 1.832838e+10 -9.256697e+07
2.362955e+10 -5.579158e+09 2.331484e+08
6.484718e+09 -3.048302e+10 -2.700887e+09
-6.127528e+09 -3.220876e+10 1.633304e+09
2.576357e+10 -2.079730e+09 1.220963e+08
7.866915e+09 1.929464e+10 4.076157e+08
1.918586e+10 -1.888608e+10 -9.882258e+08
4.167110e+09 2.127292e+10 6.089068e+08
2.356488e+10 -1.666506e+10 -1.068276e+09
2.301296e+10 2.425035e+09 2.931471e+08
-1.927077e+10 2.633485e+10 9.117454e+08
7.259335e+09 1.829836e+10 1.103960e+09
-3.163648e+10 -3.106948e+09 -5.857846e+08
1.548051e+10 -2.114782e+10 1.355672e+08
-1.455198e+10 -2.134391e+10 -5.045006e+08
7.373621e+08 2.644445e+10 6.709781e+08
1.525722e+10 1.494630e+10 7.843343e+08
2.823149e+10 6.873188e+09 -1.548852e+09
-8.885240e+09 1.849295e+10 1.148106e+09
-2.870149e+10 -1.304172e+08 3.627867e+08
-2.536807e+10 2.246227e+09 2.220451e+08
2.704569e+10 -5.824088e+09 -1.509079e+07
6.410560e+09 1.870163e+10 -5.214928e+08
1.979942e+10 -9.003862e+09 -9.571479e+08
-2.448614e+10 -4.065886e+09 4.135332e+08
-2.896072e+10 -3.896160e+09 -7.078864e+08
1.949164e+10 1.742598e+10 -6.730378e+08
4.031514e+09 2.971126e+10 7.859705e+08
2.009875e+10 -1.749167e+10 -7.743567e+07
-1.043651e+10 2.866483e+10 1.083099e+09
-8.724484e+09 -2.851813e+10 5.675073e+08
8.723642e+09 -2.851107e+10 -6.013019e+08
-2.476281e+10 1.992347e+10 7.708378e+08
7.034326e+09 1.868649e+10 1.209355e+09
-1.816137e+10 -1.915328e+10 2.321798e+09
2.017908e+10 -2.008788e+10 4.253402e+08
-1.459821e+10 -2.391328e+10 -2.908771e+08
1.308631e+10 -2.342536e+10 -1.256653e+09
-1.918521e+10 -9.795988e+09 5.157204e+08
-4.063423e+09 -2.488242e+10 4.726786e+08
5.048237e+09 -2.138328e+10 -8.740143e+07
-7.613038e+09 2.859685e+10 5.286451e+08
7.711107e+09 2.668151e+10 1.439343e+07
1.222886e+10 -2.822831e+10 1.007514e+09
6.418321e+09 2.235073e+10 -1.472385e+09
-1.240147e+10 -2.873527e+10 -1.139141e+09
-1.970552e+10 7.914759e+09 -6.920058e+07
-2.050714e+10 3.081383e+08 3.667033e+08
-4.654717e+09 2.164796e+10 8.619477e+08
-1.612034e+10 1.361286e+10 6.959600e+08
-3.142434e+10 -2.556689e+09 5.043399e+08
-1.695327e+10 1.481144e+10 5.046176e+08
-1.348518e+10 2.749920e+10 -4.189120e+08
-7.634539e+09 -2.295871e+10 -7.323561e+08
7.642340e+09 -2.293025e+10 7.143634e+08
3.473574e+09 1.985214e+10 -6.634631e+08
1.327483e+10 1.639033e+10 -4.241042e+08
4.963831e+09 -2.504739e+10 9.510231e+08
-3.964690e+09 -2.492469e+10 -5.531965e+08
1.286175e+10 -1.713300e+10 -2.865125e+08
-1.307569e+10 -1.595100e+10 -4.610508e+08
2.916722e+10 2.526553e+09 8.341829e+07
1.757093e+10 1.584958e+10 -9.404763e+08
2.714304e+10 1.007206e+10 1.148688e+09
3.189002e+10 -9.425512e+09 -6.356278e+07
-1.470014e+10 2.121307e+10 1.994075e+09
4.982916e+09 1.961832e+10 6.911970e+08
2.628598e+10 1.626307e+10 2.299652e+08
-2.214631e+10 2.445692e+09 -1.646651e+09
-1.581129e+10 2.292907e+10 1.355109e+08
-3.180666e+10 1.598006e+10 -1.569700e+07
-6.319147e+09 2.487361e+10 4.548130e+08
-7.928224e+09 2.191438e+10 2.253126e+08
1.802676e+10 -1.846909e+10 1.282923e+08
-2.485769e+10 -2.602380e+10 1.863393e+08
3.085820e+10 7.325658e+09 -4.903975e+08
-3.880069e+09 -2.979594e+10 1.296996e+07
3.482380e+09 2.084970e+10 8.946351e+08
2.824835e+09 -2.864443e+10 3.543504e+08
-2.499602e+10 1.044139e+10 3.971730e+08
-1.600914e+10 1.441607e+10 -6.425751e+08
-2.565361e+10 8.919368e+08 3.237675e+08
-2.060930e+10 5.737866e+09 2.462235e+07
1.422776e+10 -2.828686e+10 1.205107e+08
-1.350971e+10 -2.438686e+10 -9.935185e+08
-2.170232e+10 -1.263626e+10 -3.135001e+08
2.015639e+10 -1.108468e+10 -1.602715e+09
-1.009984e+10 2.475053e+10 4.697172e+07
2.286609e+09 1.975379e+10 -1.925094e+08
-5.748113e+09 3.291198e+10 3.282169e+08
-2.922694e+10 -1.708860e+10 1.655850e+09
-5.020168e+08 2.340859e+10 -7.904405e+08
-4.451657e+09 2.776468e+10 2.333017e+09
9.008217e+09 2.377260e+10 3.126356e+08
-2.002252e+10 1.625618e+10 1.129234e+09
-2.672334e+10 -1.164774e+10 4.074380e+08
-2.127267e+10 -1.059604e+10 -6.654511e+08
2.789019e+10 -1.344112e+10 8.168052e+08
1.860771e+10 -2.081362e+10 1.303974e+09
2.938704e+09 1.986535e+10 3.133309e+08
-2.120437e+10 -2.253678e+10 -2.043381e+09
2.218764e+10 -1.869122e+10 1.775928e+09
-2.542930e+09 2.895827e+10 6.582399e+08
2.586933e+10 1.013813e+10 -9.176844e+07
-1.847509e+10 -2.848971e+10 2.997979e+08
1.544637e+10 -2.551651e+10 4.817377e+07
-2.553851e+10 1.445502e+10 -4.124658e+08
2.957716e+10 -1.124680e+10 1.143237e+09
-1.947609e+10 3.235179e+09 -8.464643e+08
-1.275009e+10 1.532643e+10 7.331929e+08
1.311314e+09 2.160350e+10 1.154089e+08
1.883424e+10 1.777993e+10 -6.722092e+08
1.640567e+10 -1.382641e+10 7.247824e+08
-1.662523e+10 2.498267e+10 2.452915e+09
2.053102e+10 -1.150016e+10 1.561833e+08
1.601094e+09 2.083369e+10 3.139636e+06
-5.047222e+09 -2.919204e+10 -7.758450e+06
5.727117e+09 -2.784361e+10 -3.913750e+08
-1.310475e+10 -1.805580e+10 -9.356000e+07
1.289957e+10 -1.641081e+10 -6.527666e+07
-2.492304e+10 -7.223339e+09 2.866618e+07
-4.421373e+08 2.060622e+10 -2.658489e+08
-2.014449e+10 9.898735e+08 5.300894e+08
-2.715843e+10 -1.961161e+10 2.534682e+09
-1.847547e+10 -9.120463e+09 8.651954e+08
-2.818084e+09 -2.313883e+10 -8.318758e+08
1.580768e+09 -2.398345e+10 4.339987e+08
3.058480e+10 -5.509089e+09 -5.923801e+07
-5.670825e+09 2.604181e+10 -1.836103e+09
-2.461486e+10 4.277149e+09 1.010693e+09
-1.341906e+10 2.775630e+10 -8.996009e+07
1.697113e+10 1.457456e+10 -1.321793e+08
1.118591e+09 2.031974e+10 -1.047621e+09
2.112092e+10 -5.662309e+09 7.036098e+08
-1.628851e+10 2.605743e+10 5.937591e+08
-3.112239e+09 -2.405002e+10 -8.074828e+08
3.169164e+09 -2.051322e+10 -2.811689e+08
3.478802e+10 7.763841e+08 -1.029175e+09
-1.464525e+10 1.709889e+10 -1.177594e+09
-1.590575e+10 1.802191e+10 4.210354e+08
-3.001378e+10 3.466896e+09 5.955312e+08
-1.419814e+10 -2.406424e+10 1.943812e+08
1.225234e+10 -2.167181e+10 -3.961068e+08
-4.639024e+08 2.083204e+10 -1.064441e+09
1.790869e+10 -1.010374e+10 2.598268e+06
2.772440e+10 8.074734e+09 7.796801e+08
-3.041614e+10 -8.707705e+09 1.723354e+08
-2.472770e+10 1.349821e+09 -1.331608e+08
1.510053e+10 2.264622e+10 1.785666e+08
-1.652394e+09 2.395458e+10 -1.055642e+09
2.822886e+10 -6.363214e+09 3.914239e+08
2.818912e+09 2.396888e+10 -3.666902e+08
-6.654535e+09 3.125351e+10 -8.604260e+08
9.643987e+09 -2.358681e+10 1.165084e+08
-1.350570e+09 2.041428e+10 -4.322785e+08
-1.226671e+10 -2.420700e+10 2.249879e+08
2.637715e+10 1.159583e+10 1.334320e+08
-3.060374e+10 1.440647e+09 2.253718e+09
-8.434019e+09 -1.849213e+10 -6.092280e+08
8.426170e+09 -1.888069e+10 6.707768e+08
2.037536e+10 -2.202258e+09 1.062842e+08
1.733472e+10 -2.349528e+10 -7.873912e+08
-1.796483e+10 -2.424975e+10 1.488673e+09
-4.953413e+09 2.446364e+10 4.720373e+08
-1.797429e+10 2.474635e+10 3.197616e+08
-1.703681e+09 2.219306e+10 -3.873879e+08
2.470653e+10 -8.345153e+09 7.981799e+08
-1.952037e+10 1.123156e+10 -1.391148e+09
-3.582537e+10 -2.982564e+09 -1.553171e+09
-1.871415e+10 1.626831e+10 -2.453535e+08
8.246260e+09 1.888906e+10 -2.381077e+08
-2.224937e+10 -1.888016e+10 -4.584725e+08
-2.766666e+10 7.206670e+09 -4.541104e+08
-2.183146e+10 3.603689e+09 4.397968e+07
9.001173e+09 2.795270e+10 -2.811892e+08
2.079807e+10 -5.274527e+08 5.263490e+07
-4.500032e+09 1.936932e+10 4.424575e+07
2.415636e+10 -5.099688e+09 -2.990663e+08
2.127302e+10 -3.028140e+08 -1.369484e+09
2.106227e+10 9.740384e+09 -1.303313e+09
-1.280899e+10 1.802986e+10 1.907946e+09
3.015575e+10 -9.763749e+09 -8.530120e+08
2.010959e+10 -2.005132e+09 6.867209e+08
8.864929e+09 2.233794e+10 2.542953e+08
1.259352e+10 1.894020e+10 6.714759e+08
1.985344e+10 -2.630804e+10 -9.313988e+08
-1.966712e+10 -2.620592e+10 6.578578e+08
-2.153726e+09 2.271557e+10 -3.067156e+08
1.455928e+09 2.449730e+10 4.677120e+08
-2.144600e+10 -1.534138e+10 1.438728e+09
2.823390e+10 2.633725e+09 9.742352e+08
-6.642117e+09 -3.068319e+10 1.827545e+09
7.063602e+09 -2.889459e+10 -1.547349e+09
1.463505e+10 1.705227e+10 -3.117527e+08
5.207396e+09 -2.250712e+10 -3.580658e+08
-5.094411e+09 -2.276145e+10 1.019846e+08
-1.967432e+10 8.971936e+09 -2.073811e+08
-5.150633e+09 3.369034e+10 2.669338e+08
-5.204732e+09 2.712233e+10 -1.757763e+09
9.494146e+08 2.064539e+10 -8.527939e+08
-2.440636e+10 -1.856645e+10 -1.483504e+08
9.392286e+09 2.091224e+10 5.399644e+08
2.383734e+10 -1.909325e+10 2.899431e+08
1.329533e+10 1.750973e+10 -1.314346e+09
2.268615e+10 -5.076967e+09 9.727216e+08
3.717457e+09 2.540396e+10 -3.049496e+08
-1.687275e+10 -1.355333e+10 8.839489e+08
4.118346e+09 2.552657e+10 5.410570e+08
-2.248369e+09 2.315237e+10 -9.067230e+08
-6.862087e+09 2.159475e+10 -8.381442e+08
-2.422721e+10 -3.497474e+09 -6.607773e+08
-2.386341e+10 -3.123409e+09 -4.056184e+08
2.473082e+10 -1.676458e+10 1.498763e+09
3.209916e+09 3.125365e+10 -1.476448e+08
-2.958365e+10 -5.547671e+09 -8.728584e+08
1.617888e+10 -2.066212e+10 5.205415e+08
-1.667074e+10 -1.939251e+10 -3.855547e+08
-2.205737e+10 -1.533625e+10 -1.245933e+07
-1.538275e+10 -1.531863e+10 2.648448e+08
1.630590e+10 -1.652758e+10 -5.840611e+08
-5.037420e+09 2.023126e+10 -7.847512e+08
2.417043e+10 -6.887718e+09 3.267419e+08
-2.670617e+10 1.805974e+09 -1.069701e+09
-1.283796e+09 2.322705e+10 -1.278799e+08
-1.618869e+10 -1.309300e+10 -1.670148e+08
1.668053e+10 -1.468322e+10 -2.523737e+09
-1.961373e+10 1.806344e+10 8.944242e+07
-2.018281e+10 2.210404e+10 2.134545e+09
-1.157328e+10 -1.695692e+10 3.556441e+07
1.197281e+10 -1.699385e+10 2.327747e+08
-1.556679e+10 1.278235e+10 1.049974e+09
-6.119085e+09 2.036723e+10 -1.735260e+09
1.673358e+10 2.370184e+10 -8.898795e+06
2.433485e+10 -5.674137e+09 -4.300014e+08
-2.293505e+10 5.622771e+09 -6.633357e+07
5.425950e+09 2.316063e+10 8.635052e+08
-1.127050e+10 2.204747e+10 2.640763e+08
-2.170313e+10 -1.360841e+10 1.585555e+08
-1.165793e+10 1.906794e+10 1.797024e+08
-1.038652e+10 -2.429416e+10 3.606190e+08
9.474928e+09 -2.438332e+10 -3.786352e+08
7.251330e+09 2.903102e+10 -4.503972e+08
-7.268259e+09 1.918014e+10 -8.214078e+08
-2.724484e+10 7.777371e+09 -1.345403e+08
2.816216e+10 6.607953e+09 1.051490e+09
-2.016785e+10 -9.768696e+09 -4.400534e+08
1.082921e+10 -2.745973e+10 2.406204e+08
-1.088857e+10 -2.777278e+10 -3.122567e+08
1.912247e+10 -2.155387e+10 -1.967162e+07
-2.172248e+10 -2.129885e+10 -2.314825e+09
1.375281e+10 2.702627e+10 -2.732302e+09
2.653907e+10 -1.166759e+10 7.701331e+08
-1.186307e+09 2.898782e+10 -4.763848e+08
-6.839494e+09 1.901496e+10 -4.533362e+08
-1.662355e+10 -1.957905e+10 -1.549207e+09
1.514934e+10 -1.981470e+10 -7.734153e+08
1.892509e+10 9.184371e+09 -1.439894e+09
-2.092732e+10 -5.051236e+09 1.188955e+09
2.889189e+10 4.590070e+09 -1.949020e+09
-1.203302e+10 -2.254803e+10 -3.932623e+08
1.407256e+10 -2.251130e+10 -4.840491e+07
1.921409e+10 1.136773e+10 -1.666775e+09
-1.475385e+10 -2.195283e+10 -2.698990e+08
1.345073e+10 -2.103852e+10 1.321209e+09
-8.758677e+09 1.905792e+10 -1.070080e+09
-9.594301e+09 2.631459e+10 -8.288751e+08
-5.909667e+09 2.083481e+10 -7.142954e+08
-2.305988e+10 -1.675662e+10 1.997992e+09
1.045020e+10 -1.888255e+10 -2.042208e+08
-1.016838e+10 -1.846550e+10 -1.323016e+08
-6.483757e+09 2.187387e+10 -1.196043e+09
2.014797e+10 -1.052492e+10 -5.974438e+08
8.574966e+09 -1.845714e+10 9.235127e+08
-1.096614e+10 -1.831530e+10 -4.051748e+08
-2.282448e+10 -1.265679e+10 3.569422e+08
-8.368665e+09 1.896854e+10 -7.053077e+08
-2.088578e+10 1.500581e+10 -2.089149e+08
1.899191e+10 8.141913e+09 9.177834e+08
-2.432357e+10 -3.113327e+09 -7.599683e+08
-3.097903e+10 1.033109e+10 6.144898e+08
2.407796e+10 1.520202e+10 1.733145e+08
-2.096453e+10 1.241957e+10 2.247037e+08
-2.092017e+10 8.060001e+08 1.376988e+09
-1.818979e+10 -7.269471e+09 -4.627119e+08
2.674973e+10 1.206120e+10 -3.055549e+08
7.715254e+09 1.923718e+10 -8.784561e+08
-9.294730e+09 1.776498e+10 -2.545108e+08
2.227233e+10 9.776119e+09 -1.199383e+08
-5.248337e+08 2.332404e+10 2.699611e+08
-8.702307e+09 2.856615e+10 3.190819e+08
-1.541388e+10 -1.357509e+10 5.832590e+07
2.768583e+10 -1.427361e+10 4.956959e+08
-1.072228e+10 2.673654e+10 -6.429165e+08
2.375053e+10 2.308505e+09 1.354236e+09
-2.192798e+10 1.116650e+10 1.874919e+09
2.282426e+10 6.529377e+09 -7.283522e+06
-2.373267e+10 -8.746407e+09 -2.395042e+08
-8.767650e+09 1.766542e+10 1.788613e+08
1.301041e+10 2.198228e+10 8.292093e+08
8.765752e+09 2.063388e+10 -9.158522e+08
1.454862e+10 -1.507431e+10 -1.009466e+09
-1.730980e+10 2.246719e+10 2.864909e+09
-2.326462e+10 -1.605349e+10 -2.375899e+09
-2.644265e+10 3.075044e+09 -8.777477e+07
-2.301223e+10 1.768036e+09 -9.618535e+08
-2.428638e+10 -2.470557e+08 -3.470237e+07
-1.464807e+10 1.498016e+10 2.495999e+08
8.528569e+09 -1.945508e+10 -4.751316e+07
-1.054522e+10 1.846816e+10 -1.897766e+09
-7.934419e+09 -1.947047e+10 -1.265165e+08
-1.131014e+10 -1.765228e+10 -1.942512e+08
1.284239e+10 -1.742321e+10 -3.785515e+08
-2.795455e+10 -1.016009e+10 2.725446e+08
1.833466e+10 1.264840e+10 1.151691e+09
-1.100207e+10 2.893175e+10 7.965934e+07
-1.824601e+10 -1.984533e+10 -4.342491e+08
4.068712e+09 2.060967e+10 -6.951430e+08
-3.773095e+09 -2.915543e+10 -5.109918e+08
2.631756e+09 -2.940020e+10 4.298239e+07
-1.123844e+10 1.704932e+10 2.422412e+07
1.957522e+10 2.298873e+10 -1.073760e+09
-2.552643e+10 -1.621977e+10 -4.449386e+08
-2.366736e+10 2.035995e+10 1.021852e+09
1.580445e+10 2.626939e+10 4.300650e+07
2.823793e+10 1.161914e+10 -3.367231e+08
1.065019e+09 2.582947e+10 -5.307010e+08
1.675141e+10 -1.249829e+10 -9.950073e+07
-7.648120e+09 2.395214e+10 -7.593167e+08
1.959760e+10 1.854605e+10 -2.749628e+08
-2.911732e+10 6.010423e+09 3.170996e+08
-9.788616e+09 1.808399e+10 -3.445629e+08
-4.448507e+09 2.211980e+10 -2.578840e+08
-2.750137e+09 -2.993183e+10 -1.550747e+08
2.787158e+09 -3.035111e+10 -1.310760e+08
-1.642369e+10 -1.102357e+10 -3.758438e+08
1.786004e+10 -1.382014e+10 1.380171e+09
5.621366e+09 -1.962804e+10 7.118059e+08
-5.633219e+09 -1.955830e+10 -7.213310e+08
-1.333582e+10 2.805969e+10 -1.096756e+09
-3.054198e+10 -1.219748e+10 -9.218063e+08
-2.267822e+10 2.246506e+10 -2.577180e+08
-1.508339e+10 2.057595e+10 1.312774e+09
-1.974638e+10 1.473175e+10 7.369565e+07
-2.905086e+10 -1.464336e+10 9.878041e+08
-6.856094e+09 2.618668e+10 -4.730691e+07
2.124855e+10 -1.267578e+10 1.016340e+09
2.857398e+10 1.260347e+10 8.693697e+08
-2.639001e+10 1.912227e+10 -3.093383e+08
2.417915e+09 2.024216e+10 -2.234602e+08
1.586795e+10 1.642668e+10 -8.356901e+08
2.994339e+10 5.704658e+09 -8.871321e+08
2.144461e+09 -2.786091e+10 -7.466659e+07
-1.487391e+10 1.455654e+10 2.145260e+09
-2.808127e+09 -2.619951e+10 2.749558e+08
-7.659749e+09 -2.608841e+10 -7.370621e+08
7.647284e+09 -2.606104e+10 7.180425e+08
-9.623329e+09 2.165840e+10 -5.231702e+08
1.480351e+10 1.191465e+10 5.703334e+07
-2.697520e+10 1.068705e+10 -1.761629e+08
-2.410722e+10 -1.671151e+10 1.796590e+09
3.369209e+09 2.069127e+10 1.849883e+08
2.582055e+09 2.123639e+10 1.235763e+09
-9.447089e+09 1.794097e+10 7.511636e+08
-1.282674e+10 1.510527e+10 -2.522744e+08
2.519356e+10 -1.686438e+10 -4.322885e+08
-2.614167e+10 1.372720e+10 -1.422488e+09
2.952156e+10 -4.177589e+09 2.147179e+08
-1.789923e+10 1.678750e+10 -5.531616e+07
-1.019938e+10 2.491772e+10 -9.562367e+08
-8.732361e+09 -1.887682e+10 -3.851748e+08
8.731856e+09 -1.916332e+10 3.084946e+08
2.658598e+10 2.169728e+10 -1.258930e+09
-9.341719e+08 2.983897e+10 9.751505e+07
1.435344e+10 1.519355e+10 -7.693407e+08
-1.358628e+10 1.460699e+10 5.859939e+08
-1.703910e+10 1.114877e+10 1.242416e+09
-2.480262e+10 -1.028551e+10 1.552858e+08
-1.768872e+10 -1.848382e+10 4.524968e+08
1.517538e+10 -1.735695e+10 -1.175677e+09
-1.786241e+10 9.381789e+09 2.802698e+08
-2.399803e+10 -2.212037e+09 5.636772e+08
-1.725285e+10 -1.564751e+10 -1.934453e+08
1.704138e+10 -1.540057e+10 2.572090e+09
2.312615e+10 -3.836020e+09 -6.790424e+08
2.153566e+10 -1.045410e+10 1.042158e+09
-1.370290e+10 1.500852e+10 4.545138e+08
-6.165843e+09 -2.515551e+10 -1.351675e+09
6.150738e+09 -2.467320e+10 1.181940e+09
2.374015e+10 -1.878819e+09 -5.648677e+07
2.350038e+09 -2.626068e+10 3.270923e+08
-4.041770e+09 -2.605105e+10 -1.300766e+09
-2.746014e+10 -1.355140e+10 2.375047e+09
-1.469522e+10 1.638209e+10 8.575336e+08
1.673732e+10 2.164455e+10 2.628476e+08
-3.053059e+10 9.369167e+09 1.988780e+09
8.222540e+09 -2.826130e+10 2.105746e+08
-1.489516e+10 1.369984e+10 -4.373223e+08
-8.259137e+09 -2.852871e+10 -3.818050e+08
-1.986600e+10 2.411843e+10 -1.564549e+09
2.340295e+10 3.456710e+09 -1.004920e+09
2.357333e+10 8.801292e+08 -1.946452e+09
2.471454e+10 -5.480001e+08 3.030572e+08
-3.060567e+10 5.323152e+09 -9.066571e+08
1.229586e+10 -2.481885e+10 -6.890380e+07
-1.217191e+10 -2.238034e+10 2.964387e+08
1.420251e+10 2.363856e+10 4.781997e+08
1.641495e+10 2.035014e+10 4.271278e+08
-1.518677e+10 1.422536e+10 -1.241955e+09
-2.488313e+10 -7.824817e+09 4.039870e+07
-2.080529e+10 -2.036297e+10 -1.593907e+09
-1.631672e+09 2.457450e+10 1.291624e+09
-2.316283e+10 -7.231863e+09 -8.848698e+08
2.709439e+10 1.583033e+10 -5.715290e+08
1.698605e+10 1.714570e+10 1.945226e+08
-9.215681e+09 -2.193238e+10 7.220410e+08
9.147016e+09 -2.237376e+10 -9.644566e+08
2.757996e+10 1.009997e+10 9.762249e+08
2.908640e+10 -6.295619e+09 -2.025667e+08
-1.637594e+10 1.159495e+10 5.297635e+08
8.096671e+09 2.602825e+10 4.417309e+08
2.618359e+09 2.368715e+10 7.833167e+08
-6.091473e+09 2.006519e+10 -1.212226e+08
-1.055561e+10 1.710935e+10 1.806934e+08
2.174952e+10 -1.496626e+10 -1.160696e+09
-2.640185e+10 9.700575e+09 -8.295645e+07
1.958090e+10 -1.669973e+10 1.895129e+07
-2.881204e+10 2.019885e+10 -1.680532e+07
2.018170e+10 9.587804e+09 -1.364404e+09
1.069278e+10 -2.829822e+10 -2.331004e+07
-1.411936e+10 1.210767e+10 2.036705e+08
-1.375907e+10 -3.255153e+10 1.357055e+09
-1.125509e+10 2.312533e+10 9.439535e+08
1.682239e+10 2.052375e+10 5.980708e+08
-2.862505e+09 2.501119e+10 -2.916143e+09
2.532232e+10 1.415082e+09 -5.321209e+07
1.157915e+10 2.491043e+10 3.455551e+08
-2.318870e+10 6.874925e+09 -2.091356e+05
-1.997654e+10 -2.179034e+09 -9.951097e+08
3.216567e+10 1.411275e+08 -1.602728e+09
2.158375e+10 7.447752e+09 7.596646e+08
-1.714874e+10 1.494548e+10 1.594230e+09
-1.584800e+10 -1.554556e+10 -5.445470e+08
-3.105791e+10 1.527936e+10 4.883083e+08
2.438295e+10 1.351573e+10 4.153614e+07
-2.274718e+10 6.525260e+09 1.519634e+09
-7.300771e+09 2.232248e+10 5.770029e+08
-1.831797e+10 7.559833e+09 -3.456136e+08
-5.367654e+09 -1.986396e+10 1.119789e+09