# vtk DataFile Version 2.0
Electric current density generated by TTH
ASCII
DATASET UNSTRUCTURED_GRID
POINTS 1703 double
1.886985e-05 -4.621780e-21 -4.764430e-22
1.677910e-05 8.633245e-06 -4.764430e-22
9.290754e-06 -1.642416e-05 -4.764430e-22
-1.387893e-05 -8.982663e-06 1.905227e-06
-1.067617e-05 1.070814e-05 -7.286100e-07
-1.863895e-05 1.201870e-06 -8.430761e-07
1.341819e-05 -7.625777e-06 -1.249471e-06
1.341819e-05 7.625777e-06 -1.249471e-06
-1.152836e-05 -9.607635e-06 -3.264754e-07
6.157624e-06 -1.472676e-05 1.690493e-06
6.157624e-06 1.472676e-05 1.690493e-06
-9.224828e-06 1.451838e-05 -1.925465e-06
1.836888e-05 8.606127e-07 1.280397e-06
1.014460e-05 -1.591095e-05 -4.764430e-22
1.836888e-05 -8.606127e-07 1.280397e-06
8.922803e-06 -1.357349e-05 -1.822133e-06
8.922803e-06 1.357349e-05 -1.822133e-06
-6.524456e-06 -1.750604e-05 8.332694e-07
2.078367e-06 -1.753724e-05 1.800881e-06
1.436041e-06 -1.643908e-05 -1.898691e-06
-8.791763e-06 -1.213707e-05 -1.693333e-07
-1.070789e-05 -1.254091e-05 -1.896143e-06
-1.097359e-05 -1.094746e-05 -1.325098e-06
5.217712e-06 -1.432990e-05 9.901690e-07
1.097017e-05 -1.535339e-05 -4.764430e-22
5.283998e-06 1.431890e-05 1.010981e-06
-1.963527e-06 1.486975e-05 2.742482e-07
-6.583628e-06 -1.749669e-05 -8.074748e-07
3.152272e-06 1.843288e-05 -7.938895e-07
-1.318453e-05 -1.214543e-05 -1.667645e-06
-1.314557e-05 -7.921802e-06 1.139366e-06
-1.832599e-05 3.443560e-06 9.045931e-07
-1.832599e-05 -3.443560e-06 9.045931e-07
6.943361e-06 1.735551e-05 8.106448e-07
6.943361e-06 -1.735551e-05 8.106448e-07
1.176516e-05 -1.475304e-05 -4.764430e-22
1.484862e-05 -3.654009e-06 -1.056963e-06
1.484862e-05 3.654009e-06 -1.056963e-06
-4.642794e-06 -1.812221e-05 7.780194e-07
3.129575e-06 -1.848031e-05 -6.898151e-07
4.558764e-06 -1.429777e-05 -3.262385e-07
-1.348613e-05 -9.276682e-06 -1.864079e-06
-6.510079e-06 1.753553e-05 -7.837484e-07
-1.731074e-05 -1.223106e-06 -1.897269e-06
-3.408847e-06 1.481222e-05 -8.986290e-07
6.931009e-06 1.391395e-05 1.371004e-06
1.252736e-05 -1.411157e-05 -4.764430e-22
6.931009e-06 -1.391395e-05 1.371004e-06
1.332196e-06 -1.798362e-05 -1.598636e-06
-1.447721e-05 -1.186116e-05 7.589597e-07
-5.041315e-06 1.430586e-05 -8.358689e-07
1.293461e-05 -1.198368e-05 -1.811770e-06
1.293461e-05 1.198368e-05 -1.811770e-06
-1.179499e-05 -1.449743e-05 8.180047e-07
-5.687180e-06 1.404985e-05 8.125980e-07
9.913842e-06 1.290649e-05 1.833395e-06
9.913842e-06 -1.290649e-05 1.833395e-06
1.325464e-05 -1.343077e-05 -4.764430e-22
-1.676011e-05 -6.215187e-06 1.697036e-06
-9.452060e-06 -1.386423e-05 1.939820e-06
-2.510277e-06 -1.675674e-05 -1.945132e-06
9.555768e-06 1.606872e-05 8.052304e-07
9.555768e-06 -1.606872e-05 8.052304e-07
1.534251e-05 -2.035353e-06 -1.299264e-06
1.534808e-05 2.030952e-06 -1.304754e-06
1.277752e-07 1.763121e-05 1.812178e-06
-3.721862e-07 -1.776720e-05 -1.751394e-06
4.638308e-06 -1.566124e-05 1.853284e-06
1.394499e-05 -1.271254e-05 -4.764430e-22
4.638308e-06 1.566124e-05 1.853284e-06
-1.424869e-05 -6.341704e-06 -1.421014e-06
7.041308e-06 -1.732588e-05 -7.903937e-07
7.041308e-06 1.732588e-05 -7.903937e-07
-9.573857e-06 -1.164439e-05 -6.018025e-07
-1.104889e-06 -1.616412e-05 1.805958e-06
8.784996e-06 -1.653387e-05 7.418121e-07
8.784996e-06 1.653387e-05 7.418121e-07
-1.847426e-05 -2.773938e-06 -8.353378e-07
-1.113456e-05 -1.166198e-05 1.772782e-06
1.459646e-05 -1.195887e-05 -4.764430e-22
1.772877e-05 -2.110080e-06 1.708902e-06
1.772877e-05 2.110080e-06 1.708902e-06
-1.611384e-05 8.617558e-07 -1.778577e-06
-1.066643e-06 1.621357e-05 1.823985e-06
-1.476617e-05 2.519821e-06 -2.970716e-08
-1.707157e-05 7.672869e-06 7.567671e-07
-4.038524e-06 -1.463089e-05 -8.563424e-07
1.413922e-05 -1.064083e-05 -1.785788e-06
1.413922e-05 1.064083e-05 -1.785788e-06
-7.525574e-06 1.302276e-05 -4.849934e-07
1.520725e-05 -1.117187e-05 -4.764430e-22
6.201653e-06 1.364372e-05 1.723596e-07
6.201653e-06 -1.364372e-05 1.723596e-07
5.476420e-07 1.866046e-05 -8.618623e-07
6.071013e-06 1.768388e-05 -8.016702e-07
1.417296e-05 -5.392173e-06 8.272098e-07
1.417296e-05 5.392173e-06 8.272098e-07
-1.364958e-05 1.127958e-05 -1.780927e-06
-3.620512e-06 1.729961e-05 -1.794918e-06
-9.597001e-06 -1.193137e-05 1.087947e-06
-6.809840e-07 1.511535e-05 -7.521213e-07
1.577566e-05 -1.035373e-05 -4.764430e-22
1.357395e-06 1.641430e-05 1.891435e-06
-1.418677e-05 7.329919e-06 -1.694012e-06
-1.080592e-05 1.434859e-05 1.645232e-06
-7.590517e-06 -1.389965e-05 -1.612874e-06
1.479055e-05 -1.147898e-05 7.429687e-07
1.479055e-05 1.147898e-05 7.429687e-07
-1.717693e-05 -3.594581e-06 -1.842292e-06
7.265938e-06 1.364383e-05 -1.277795e-06
7.265938e-06 -1.364383e-05 -1.277795e-06
-2.834248e-06 1.701537e-05 1.917854e-06
1.630010e-05 9.506737e-06 -4.764430e-22
1.630010e-05 -9.506737e-06 -4.764430e-22
-1.588752e-05 7.286689e-06 1.864611e-06
-5.891521e-06 -1.416242e-05 -1.126781e-06
-7.413337e-07 -1.871080e-05 7.353934e-07
-1.761856e-05 -9.969648e-07 1.806225e-06
-1.507287e-05 -9.003749e-06 -1.839461e-06
-1.868039e-05 8.732486e-07 7.931808e-07
-1.868039e-05 -8.732486e-07 7.931808e-07
-1.215913e-05 8.749876e-06 5.399730e-08
1.116441e-05 -1.368106e-05 -1.801564e-06
1.116441e-05 1.368106e-05 -1.801564e-06
1.677910e-05 -8.633245e-06 -4.764430e-22
2.985619e-07 1.784014e-05 -1.714979e-06
-1.483973e-05 8.416616e-06 1.940482e-06
-1.566987e-05 -1.024421e-05 -7.454455e-07
-1.128035e-05 1.006621e-05 -7.228413e-07
-1.746550e-05 3.600097e-06 1.720275e-06
-1.746550e-05 -3.600097e-06 1.720275e-06
-5.390697e-06 -1.453347e-05 1.325604e-06
-1.178706e-05 -1.332885e-05 1.740609e-06
3.524824e-07 1.870295e-05 7.807832e-07
-1.372526e-05 -6.311267e-06 -6.923684e-07
1.721134e-05 -7.735691e-06 -4.764430e-22
-1.511501e-05 -6.775219e-06 1.911511e-06
1.690402e-05 7.992516e-06 7.987468e-07
1.690402e-05 -7.992516e-06 7.987468e-07
-6.167714e-06 -1.677588e-05 -1.697960e-06
-8.031474e-06 1.692160e-05 7.220917e-07
-9.819930e-06 -1.589709e-05 -8.265413e-07
-1.315491e-05 -1.332971e-05 -7.295405e-07
4.606282e-06 1.427286e-05 -2.665698e-07
-1.164469e-05 1.048674e-05 1.487128e-06
1.805888e-05 4.999526e-06 7.035579e-07
1.759561e-05 -6.816576e-06 -4.764430e-22
1.805888e-05 -4.999526e-06 7.035579e-07
1.082391e-05 -1.037995e-05 -2.586944e-07
1.082391e-05 1.037995e-05 -2.586944e-07
-1.614046e-05 7.421121e-06 -1.754434e-06
-1.683401e-05 6.180678e-06 1.663589e-06
6.658853e-06 1.641662e-05 1.777108e-06
6.658853e-06 -1.641662e-05 1.777108e-06
-1.183917e-05 -1.451024e-05 -7.308486e-07
-8.245585e-06 -1.485657e-05 1.944080e-06
-1.578139e-05 8.245381e-06 1.734307e-06
1.793084e-05 -5.878462e-06 -4.764430e-22
-2.602966e-07 1.872270e-05 7.377818e-07
8.431041e-06 -1.666604e-05 -8.439375e-07
8.431041e-06 1.666604e-05 -8.439375e-07
-8.921591e-06 -1.553335e-05 -1.675347e-06
-3.037123e-06 -1.839492e-05 -9.098372e-07
-1.601105e-05 9.142316e-07 1.730972e-06
-1.764059e-05 9.490009e-07 1.798364e-06
-1.514645e-05 -2.183669e-07 -7.922153e-07
-1.729652e-05 4.689864e-06 1.670635e-06
-1.733635e-05 -4.574181e-06 1.665485e-06
1.821609e-05 -4.923964e-06 -4.764430e-22
-5.271579e-06 -1.540248e-05 -1.835178e-06
-1.142009e-05 9.748018e-06 3.691138e-07
1.126963e-05 -1.060553e-05 1.297339e-06
1.126963e-05 1.060553e-05 1.297339e-06
-1.482634e-05 9.794220e-06 -1.752275e-06
-1.771466e-05 5.894636e-06 8.595273e-07
-1.375951e-05 7.417832e-06 1.453312e-06
8.512784e-06 1.233199e-05 1.454674e-07
8.512784e-06 -1.233199e-05 1.454674e-07
7.058770e-06 1.517798e-05 -1.936359e-06
1.845056e-05 -3.955741e-06 -4.764430e-22
7.058770e-06 -1.517798e-05 -1.936359e-06
1.536465e-05 1.069454e-05 -7.482263e-07
1.536465e-05 -1.069454e-05 -7.482263e-07
-1.550394e-05 1.756161e-06 -1.427393e-06
2.996666e-06 1.634464e-05 1.920761e-06
5.154875e-06 -1.720241e-05 1.647938e-06
5.159991e-06 1.718274e-05 1.658705e-06
-1.710084e-05 -7.587514e-06 -7.756144e-07
-4.179307e-06 1.634575e-05 1.944503e-06
-1.808624e-07 1.628616e-05 -1.837812e-06
1.863362e-05 -2.976494e-06 -4.764430e-22
-7.765819e-06 1.515401e-05 -1.942478e-06
3.333276e-06 1.493005e-05 -1.066194e-06
-1.194401e-05 -1.340646e-05 -1.649738e-06
4.251787e-06 1.502003e-05 -1.433964e-06
-1.514523e-05 6.806467e-06 1.918687e-06
-1.083432e-05 -1.090919e-05 1.175930e-06
-1.498139e-06 -1.547619e-05 -1.374871e-06
-6.349697e-06 1.483341e-05 1.777894e-06
4.294791e-06 -1.821119e-05 7.704533e-07
-1.528087e-05 -2.024609e-09 1.040178e-06
1.876474e-05 -1.988950e-06 -4.764430e-22
1.671549e-05 -6.038625e-06 -1.750570e-06
1.671549e-05 6.038625e-06 -1.750570e-06
-1.832406e-05 -3.794805e-06 -7.655382e-07
2.533395e-06 -1.774124e-05 -1.670546e-06
-1.450788e-05 1.182076e-05 -7.632085e-07
-6.788583e-06 1.745537e-05 7.267708e-07
-1.378803e-05 6.518465e-06 9.918106e-07
4.064281e-06 -1.740055e-05 -1.700663e-06
-1.539639e-05 -1.958005e-06 -1.346120e-06
8.664297e-06 1.250282e-05 9.215264e-07
1.884355e-05 -9.958628e-07 -4.764430e-22
8.664297e-06 -1.250282e-05 9.215264e-07
-7.429861e-06 -1.720082e-05 -7.068076e-07
-1.326857e-07 -1.517888e-05 -8.592553e-07
-1.330750e-05 1.015087e-05 1.936164e-06
4.311100e-06 1.820699e-05 7.712457e-07
-1.719971e-05 9.474753e-07 -1.921772e-06
9.354317e-06 1.224807e-05 -1.222608e-06
9.354317e-06 -1.224807e-05 -1.222608e-06
-4.965075e-06 -1.727954e-05 1.634863e-06
-1.246352e-05 1.156801e-05 1.943579e-06
1.577566e-05 1.035373e-05 -4.764430e-22
1.864704e-05 -4.567206e-21 9.039917e-07
-1.300460e-05 7.732308e-06 -7.497975e-07
-4.018500e-06 -1.454389e-05 6.432815e-07
-1.160480e-05 1.375363e-05 -1.624006e-06
9.072981e-06 1.527573e-05 -1.753361e-06
9.072981e-06 -1.527573e-05 -1.753361e-06
-1.703194e-05 -7.755512e-06 7.615795e-07
-1.142924e-05 -9.991283e-06 8.617317e-07
1.366308e-05 -6.140591e-06 2.365928e-08
1.366308e-05 6.140591e-06 2.365928e-08
-1.666755e-05 8.575846e-06 -6.872757e-07
1.802964e-05 -4.415988e-21 1.600890e-06
-3.397553e-06 -1.760968e-05 1.662582e-06
-1.622182e-05 -3.900961e-06 -1.930321e-06
-1.181236e-05 1.451721e-05 7.586683e-07
9.784725e-07 -1.494748e-05 -1.654523e-08
-6.044925e-06 -1.710911e-05 1.514307e-06
-3.447824e-06 1.517415e-05 1.387165e-06
-8.140676e-06 -1.267831e-05 -5.767241e-07
[...]
POINT_DATA 1703
VECTORS 10.000GHz_fone_imag double
-4.211047e-04 -5.395840e-04 2.159885e-02
-1.389096e-04 -6.491925e-04 2.184118e-02
-1.196571e-04 2.321032e-04 2.192386e-02
2.545752e-02 1.657500e-02 -7.930564e-03
-1.218526e-02 1.131257e-02 -3.948012e-02
-1.069141e-02 8.929878e-04 1.992689e-02
2.075377e-02 -1.159075e-02 -3.441952e-02
2.070293e-02 1.161678e-02 -3.424071e-02
-3.897799e-03 -5.918912e-03 -4.504383e-02
-1.330748e-02 3.044692e-02 -2.125147e-02
-1.211833e-02 -3.068760e-02 -2.115316e-02
-1.689958e-02 2.464624e-02 3.366824e-03
-1.729390e-02 -1.013042e-03 1.688423e-02
-2.974332e-04 -5.252713e-04 2.157846e-02
-1.481772e-02 4.534359e-04 1.580195e-02
1.866963e-02 -2.885442e-02 -1.421407e-02
1.855564e-02 2.871562e-02 -1.425541e-02
3.154138e-03 9.191057e-03 2.027455e-02
-2.374445e-03 2.453656e-02 7.803961e-03
4.410310e-03 -3.212503e-02 -9.321231e-03
-2.308988e-03 -2.135094e-03 -4.430141e-02
-2.090842e-02 -2.329662e-02 -1.048003e-02
-2.026097e-02 -2.093934e-02 -3.110419e-02
-6.283870e-03 1.947018e-02 -3.361806e-02
5.199108e-04 9.447078e-06 2.108677e-02
-7.058022e-03 -1.974780e-02 -3.876175e-02
8.091019e-04 -4.690628e-03 -4.271775e-02
-3.291596e-03 -9.639042e-03 2.028058e-02
1.963922e-03 9.002284e-03 1.859419e-02
-1.681795e-02 -1.606145e-02 1.316188e-02
2.242246e-02 1.292569e-02 -3.667977e-02
1.126494e-02 -2.244661e-03 2.008189e-02
9.642493e-03 2.171153e-03 1.817642e-02
-3.524829e-03 -7.088711e-03 1.986459e-02
-3.828646e-03 8.813199e-03 2.049030e-02
-2.276075e-04 -4.053422e-04 2.200198e-02
2.046332e-02 -5.266993e-03 -3.335692e-02
2.061782e-02 5.240680e-03 -3.293908e-02
2.418583e-03 8.923960e-03 2.033178e-02
2.181428e-03 -8.552515e-03 2.084983e-02
2.076968e-03 -7.411527e-03 -4.575284e-02
-2.766730e-02 -1.952459e-02 -1.089269e-02
-3.419610e-03 9.136065e-03 2.048222e-02
-2.818970e-02 -2.609839e-03 5.009798e-03
-5.355543e-03 1.979366e-02 -3.686996e-02
-1.292138e-02 -2.332458e-02 -3.047634e-02
7.279945e-04 6.622943e-05 2.020226e-02
-1.194958e-02 2.406100e-02 -2.875372e-02
1.696162e-03 -2.194128e-02 1.426334e-02
7.428684e-03 5.763718e-03 2.083536e-02
-5.604712e-03 1.837961e-02 -4.123428e-02
1.779518e-02 -1.580014e-02 8.105713e-03
1.826078e-02 1.565952e-02 9.012914e-03
7.255175e-03 7.929643e-03 1.934156e-02
5.883409e-03 -1.545263e-02 -3.651091e-02
-1.927980e-02 -2.461376e-02 -1.204313e-02
-2.126961e-02 2.433596e-02 -1.428077e-02
-8.024666e-04 5.735279e-04 2.078043e-02
2.074840e-02 8.870132e-03 1.278061e-02
1.737185e-02 2.603786e-02 -4.693381e-03
-3.784793e-03 -3.102869e-02 -6.361539e-04
-5.427687e-03 -8.965835e-03 1.772828e-02
-4.075079e-03 7.428871e-03 1.838470e-02
2.828751e-02 -4.212901e-03 -3.196844e-02
2.807671e-02 4.161579e-03 -3.178861e-02
-8.199795e-04 -2.711633e-02 8.329726e-03
-7.893971e-04 -2.525104e-02 1.050622e-02
-9.965805e-03 3.308070e-02 -1.321583e-02
-2.892593e-04 1.906596e-04 2.180699e-02
-9.164074e-03 -3.303491e-02 -1.276019e-02
-2.395222e-02 -1.082894e-02 -2.860014e-02
1.964038e-03 -7.544862e-03 1.975816e-02
4.320345e-03 8.287562e-03 1.888132e-02
-1.074419e-02 -1.078340e-02 -4.407953e-02
1.043497e-03 3.146671e-02 -1.322232e-02
-4.475370e-03 7.473543e-03 1.871252e-02
-3.109749e-03 -8.423085e-03 1.970810e-02
-9.632245e-03 -1.349151e-03 2.037395e-02
2.353633e-02 2.501731e-02 -1.717437e-02
-1.358043e-04 2.197818e-04 2.159942e-02
-2.199637e-02 2.938926e-03 1.105865e-02
-2.388463e-02 -3.752521e-03 1.192826e-02
-3.135793e-02 1.525988e-03 -1.511273e-02
1.776925e-03 -3.194921e-02 -1.182796e-02
-3.723529e-04 -6.013196e-04 -4.623943e-02
8.359572e-03 -3.677813e-03 2.024075e-02
-4.712843e-03 -1.677208e-02 -3.587885e-02
2.002806e-02 -1.544290e-02 9.038056e-03
2.117303e-02 1.555185e-02 9.194676e-03
-6.762304e-03 9.931767e-03 -4.579127e-02
-5.795890e-04 5.951630e-04 1.965905e-02
-2.350035e-03 -5.389347e-03 -4.576018e-02
-3.182691e-03 2.912177e-03 -4.553290e-02
4.911484e-04 1.042617e-02 2.073628e-02
1.964192e-03 8.587039e-03 1.946396e-02
-1.399946e-02 7.058640e-03 -3.649306e-02
-1.413549e-02 -7.116030e-03 -3.637965e-02
-1.818254e-02 1.576605e-02 7.479553e-03
-5.791060e-03 2.328400e-02 1.042735e-02
1.365774e-02 1.653751e-02 -3.399586e-02
-7.870333e-04 1.646887e-02 -4.371962e-02
-4.240592e-05 -4.544488e-04 2.012439e-02
-2.794546e-03 -3.357177e-02 -9.379427e-03
-2.729187e-02 1.580190e-02 -2.056824e-02
1.306584e-02 -1.681784e-02 1.112074e-02
-1.555255e-02 -2.599528e-02 -2.329196e-02
-6.902785e-03 4.194130e-03 1.850129e-02
-6.687695e-03 -4.001275e-03 1.857275e-02
-2.513801e-02 -4.961243e-03 8.589114e-03
1.056395e-02 2.255104e-02 -3.084925e-02
1.096084e-02 -2.518083e-02 -3.211055e-02
4.512951e-03 -2.880705e-02 3.519230e-03
2.477168e-04 5.618303e-05 2.175366e-02
1.989643e-04 -8.831379e-05 2.175935e-02
2.567263e-02 -1.167213e-02 7.893200e-03
-9.853109e-03 -2.220033e-02 -3.564560e-02
5.450257e-04 8.410235e-03 2.097707e-02
2.577231e-02 9.611431e-04 5.143490e-03
-2.162202e-02 -1.280288e-02 5.243812e-03
8.004331e-03 -1.008695e-03 1.873238e-02
9.103936e-03 5.342164e-04 2.055483e-02
1.066645e-03 -5.733875e-04 -4.745711e-02
1.571799e-02 -2.010431e-02 9.939894e-03
1.573891e-02 2.015630e-02 9.987701e-03
-1.933618e-04 6.910008e-04 2.180863e-02
7.723782e-05 2.198505e-02 1.081138e-02
2.661277e-02 -1.408469e-02 -9.163106e-04
-6.810952e-03 -4.207680e-03 1.977322e-02
-1.053886e-02 1.254537e-02 -3.933162e-02
2.126934e-02 -4.723319e-03 1.051088e-02
2.350383e-02 5.398746e-03 1.161564e-02
9.284027e-03 2.608451e-02 -3.281916e-02
1.658809e-02 1.890085e-02 1.099158e-02
-3.445376e-04 -9.016877e-03 2.005335e-02
-1.403882e-02 -6.381069e-03 -4.024996e-02
-4.290976e-04 -6.224594e-04 2.096199e-02
2.955080e-02 1.511038e-02 -5.947991e-03
-8.688823e-03 -4.206147e-03 1.784797e-02
-8.618648e-03 4.135061e-03 1.782755e-02
-8.618351e-03 -2.158847e-02 1.224567e-02
3.201718e-03 -7.727374e-03 1.999260e-02
-4.709464e-03 -8.741597e-03 2.015628e-02
-6.563416e-03 -6.422737e-03 2.015664e-02
1.735423e-03 4.998667e-03 -4.326504e-02
2.152401e-02 -2.080409e-02 -2.425643e-02
-7.482837e-03 -1.188174e-03 1.998779e-02
8.509048e-05 -9.840842e-05 2.161152e-02
-7.281181e-03 2.095736e-03 2.097500e-02
4.411531e-03 -4.470816e-03 -4.591775e-02
4.494563e-03 4.447003e-03 -4.581178e-02
-2.075411e-02 9.354900e-03 1.126318e-02
2.043606e-02 -8.315710e-03 1.179857e-02
-1.045060e-02 -2.399969e-02 8.985610e-03
-8.007678e-03 2.161487e-02 1.001024e-02
-6.418610e-03 -6.560758e-03 1.903486e-02
1.452198e-02 2.851309e-02 -3.948996e-04
2.240439e-02 -1.028413e-02 1.124268e-02
-6.290778e-04 3.936675e-04 2.027612e-02
4.743633e-04 -8.535558e-03 2.026755e-02
5.045340e-03 -9.391760e-03 1.864888e-02
3.743338e-03 9.147169e-03 1.934223e-02
-1.192413e-02 -2.091262e-02 1.179030e-02
-2.162311e-03 -1.187189e-02 1.899131e-02
3.288855e-02 -1.768234e-03 -1.799438e-02
2.686766e-02 -1.504061e-03 8.898821e-03
-1.605635e-02 -6.091006e-04 -4.261226e-02
2.199559e-02 -5.821310e-03 1.308417e-02
2.244456e-02 4.987152e-03 1.282323e-02
1.094389e-03 -5.467503e-04 2.017449e-02
-1.060588e-02 -3.089100e-02 -1.246485e-02
4.993415e-03 -5.502434e-03 -4.531688e-02
-1.819408e-02 1.974921e-02 -3.162108e-02
-1.828544e-02 -1.985821e-02 -3.174184e-02
-2.068945e-02 1.382036e-02 1.073894e-02
9.298113e-03 -3.375611e-03 2.013554e-02
2.477930e-02 -1.535687e-02 -2.909573e-02
-2.174794e-03 -2.154435e-03 -4.358631e-02
-4.070236e-03 2.753903e-03 -4.573117e-02
1.391690e-02 2.948269e-02 -5.703134e-03
-1.561718e-04 7.112575e-04 2.201737e-02
1.381310e-02 -2.981047e-02 -4.901501e-03
6.445882e-03 4.835538e-03 2.068301e-02
6.487753e-03 -4.786371e-03 2.090734e-02
-2.812664e-02 2.991493e-03 -2.719513e-02
-6.565585e-03 -3.175571e-02 -7.281337e-03
-5.885987e-03 1.948745e-02 1.173514e-02
-7.143451e-03 -2.136627e-02 1.092676e-02
-9.147848e-03 -4.278301e-03 1.797038e-02
8.114739e-03 -2.951715e-02 -1.490462e-03
-1.343719e-03 3.239340e-02 -1.470457e-02
-4.328586e-04 -6.762905e-04 2.188573e-02
-1.321987e-02 2.684758e-02 7.004928e-05
6.916116e-03 2.277694e-02 -3.716045e-02
-1.513516e-02 -1.715257e-02 1.278784e-02
6.792328e-03 2.780170e-02 -2.526693e-02
3.095342e-02 -1.266051e-02 -8.318228e-03
1.535759e-02 1.516856e-02 -3.275094e-02
-2.926875e-03 -2.894944e-02 -3.168551e-02
1.374228e-02 -3.162124e-02 -1.636299e-02
-1.111010e-03 8.477698e-03 1.935307e-02
2.193574e-02 -5.363661e-04 -3.839183e-02
1.442887e-03 3.601811e-04 2.089837e-02
2.279463e-02 -8.973101e-03 1.075809e-02
2.273749e-02 8.993285e-03 1.071354e-02
-9.232191e-03 -1.566754e-03 2.062599e-02
2.770487e-03 -2.204957e-02 9.710459e-03
-6.688689e-03 5.536862e-03 2.056038e-02
2.922900e-03 -7.656437e-03 1.886471e-02
1.927442e-02 -8.000994e-03 -3.604583e-02
6.264380e-03 -2.315454e-02 1.143487e-02
-2.945783e-02 -4.177086e-03 -3.078974e-02
-1.063606e-02 -1.653974e-02 -4.071432e-02
6.449746e-04 4.449575e-05 2.100101e-02
-1.270339e-02 1.688622e-02 -3.899604e-02
-3.288233e-03 -7.773967e-03 2.104465e-02
6.149864e-04 -1.756684e-02 -4.131333e-02
2.513974e-02 -1.872840e-02 -4.674849e-03
-1.613016e-03 -8.627437e-03 1.973611e-02
-3.038855e-02 1.839283e-03 3.417406e-03
1.532662e-02 2.221186e-02 -3.104485e-02
1.487306e-02 -2.155643e-02 -3.109445e-02
6.299815e-03 2.040220e-02 1.216233e-02
2.402035e-02 -2.126298e-02 -6.562215e-04
1.539166e-04 5.423357e-04 2.010974e-02
-1.115921e-02 -3.122315e-04 1.880178e-02
-1.171505e-02 9.162854e-03 -3.867684e-02
4.540757e-03 1.455366e-02 -4.394820e-02
-1.271496e-02 1.566511e-02 1.144444e-02
1.239425e-02 1.830448e-02 9.659624e-03
1.204299e-02 -1.914599e-02 9.385165e-03
8.445636e-03 4.060674e-03 2.069131e-02
1.416384e-02 1.290653e-02 -4.077922e-02
-3.371472e-03 -2.942491e-04 -4.611942e-02
-3.396016e-03 3.604400e-04 -4.614039e-02
-7.205729e-03 3.964258e-03 2.032102e-02
-2.205842e-02 8.174348e-04 1.348234e-02
4.312256e-03 2.266531e-02 1.307545e-02
-3.264127e-02 -7.823453e-03 -5.905123e-03
5.655602e-03 -7.112584e-03 1.995685e-02
-7.062820e-04 -4.983600e-04 -4.673835e-02
6.781638e-03 1.952597e-02 1.490261e-02
5.585771e-03 -2.576663e-02 -2.665457e-02
-6.159915e-03 -1.034364e-02 -4.430670e-02
2.567650e-02 -2.066958e-02 -2.228892e-02
1.891383e-02 -1.324538e-02 1.009775e-02
1.046946e-02 1.192669e-02 -4.264524e-02
-2.886462e-02 -6.907271e-04 1.832854e-03
-1.924941e-02 5.471050e-03 1.302240e-02
-7.426058e-03 -5.142446e-03 1.915897e-02
-3.177694e-02 -1.070969e-02 -4.760594e-03
-3.167535e-02 1.060168e-02 -4.673678e-03
1.767126e-03 9.341425e-03 2.048032e-02
2.007434e-02 6.585385e-03 -3.849319e-02
-2.487747e-04 4.515258e-04 -4.345157e-02
-6.072379e-04 8.589231e-04 -4.468347e-02
-5.302690e-04 9.961043e-03 1.943536e-02
-7.116909e-03 4.683876e-03 1.914795e-02
-3.259921e-02 -2.251151e-04 -1.323576e-02
-7.051849e-03 -4.730014e-03 1.920377e-02
2.957516e-02 1.563524e-02 -1.970236e-02
-2.489915e-02 2.080559e-02 -1.388308e-02
-2.480220e-02 -2.094217e-02 -1.376419e-02
-1.457981e-02 1.933126e-02 1.009466e-02
-1.476462e-02 -1.921828e-02 1.022037e-02
-1.430938e-03 8.422100e-03 2.048984e-02
1.120204e-02 2.137104e-02 9.143846e-03
-1.347329e-02 2.847144e-02 -1.638804e-02
1.762053e-02 1.412356e-02 1.163063e-02
-2.769290e-02 4.620898e-04 -3.360707e-02
-6.653002e-03 3.172411e-02 -2.054895e-02
-9.255721e-03 -2.041346e-02 1.079761e-02
1.269475e-02 -2.170218e-02 8.829854e-03
1.266592e-02 2.178189e-02 8.699383e-03
2.821172e-02 8.138475e-03 -2.761164e-02
-4.491970e-03 8.050309e-03 2.014494e-02
-2.177637e-02 -3.469082e-03 1.333309e-02
-2.348856e-03 -3.307458e-02 -1.245795e-02
-3.268024e-02 9.212862e-03 -1.457769e-02
-3.276785e-02 -8.894983e-03 -1.495182e-02
-7.419634e-03 1.326693e-04 -4.211782e-02
2.078784e-02 1.157375e-02 1.201714e-02
-1.359304e-02 2.779055e-02 -2.011221e-02
-3.126542e-02 3.681825e-03 -2.359224e-04
-9.007790e-03 -1.795384e-02 1.454271e-02
-8.917057e-03 1.646181e-02 1.394832e-02
-2.019089e-02 1.476903e-02 1.107910e-02
-2.022987e-02 -1.479139e-02 1.114198e-02
1.010552e-02 -2.122228e-02 1.048034e-02
9.079348e-03 2.250428e-02 1.171211e-02
-1.402332e-02 1.452250e-02 -3.731247e-02
6.842486e-03 -1.557981e-03 -4.387503e-02
-1.598241e-02 2.671081e-02 -1.409444e-02
-1.681998e-02 -2.988299e-02 -1.342308e-02
7.343143e-03 5.126155e-03 2.075118e-02
-2.454640e-02 -1.208846e-02 7.883900e-03
-2.454790e-02 1.208236e-02 7.887415e-03
-1.557734e-02 2.638260e-02 -1.365857e-02
-1.846522e-02 -2.776857e-02 -1.706515e-02
-6.984548e-03 -2.918131e-02 2.895245e-03
-6.565713e-03 6.986487e-03 2.096265e-02
1.813573e-02 1.603363e-02 -3.102283e-02
2.768170e-02 -5.017187e-05 -3.344326e-02
-1.902853e-02 -1.972533e-02 -2.742482e-02
-1.897195e-02 1.985144e-02 -2.732993e-02
-2.020745e-02 2.313800e-02 3.090520e-03
-7.369952e-03 1.890579e-03 2.037308e-02
-1.185974e-02 2.682291e-02 -2.977444e-02
-2.312466e-02 -2.268456e-02 -1.973881e-03
1.650280e-02 2.781321e-02 -1.693430e-02
2.947674e-02 -9.366803e-03 -2.782345e-02
-2.942364e-02 -9.401157e-03 -9.418690e-03
1.768995e-02 -2.117265e-02 3.467359e-03
3.337171e-02 1.322403e-03 -1.348639e-02
1.770830e-02 2.119956e-02 3.462742e-03
-2.338231e-02 1.791399e-02 -2.984824e-02
-2.347761e-02 -1.792358e-02 -3.003720e-02
-2.891434e-02 -6.238369e-03 -1.917452e-02
3.609797e-03 -6.745652e-03 1.953715e-02
-4.630334e-03 1.428615e-02 -4.225088e-02
-1.205898e-02 1.531833e-03 -4.141599e-02
-3.355031e-03 8.745114e-03 2.074504e-02
-3.228418e-03 -7.719563e-03 1.881631e-02
9.991194e-03 3.123065e-02 -3.526842e-03
2.824927e-02 -1.108043e-03 -3.701051e-05
-1.915211e-02 1.142338e-02 -3.715061e-02
1.627401e-02 -2.088441e-02 -3.094384e-02
1.647146e-02 2.093720e-02 -3.104381e-02
3.792320e-03 -5.669055e-03 -4.365573e-02
6.555550e-03 -2.044921e-02 1.358197e-02
1.835801e-02 2.721077e-02 -5.862308e-03
1.819157e-02 -2.697328e-02 -4.111658e-03
1.718121e-02 1.432840e-02 1.068607e-02
-1.520631e-02 1.423754e-02 1.151544e-02
-3.229089e-02 1.375797e-03 -2.309459e-02
-5.119598e-04 -4.355139e-04 1.955643e-02
2.247282e-02 -2.106724e-04 1.408910e-02
-3.230271e-02 -1.186270e-03 -2.415205e-02
-8.109121e-04 -5.399786e-03 -4.625956e-02
3.924546e-03 3.325722e-02 -1.981923e-02
-5.473757e-03 -4.730350e-03 1.849014e-02
5.659996e-03 1.706107e-02 1.635687e-02
2.102639e-02 2.296778e-03 1.433070e-02
2.115581e-02 -2.521125e-03 1.395139e-02
-1.805051e-02 -2.274927e-02 -3.175850e-02
-1.710073e-02 2.145020e-02 -2.825867e-02
-1.217514e-02 2.876185e-02 -4.129913e-04
1.029085e-02 9.332196e-04 1.899024e-02
-1.402702e-02 -2.759478e-02 5.157103e-04
1.399902e-02 5.296456e-03 -4.062965e-02
-8.140351e-03 -3.240353e-03 1.890044e-02
-8.906935e-03 -3.809041e-03 1.975486e-02
-9.000951e-03 3.269427e-03 2.003718e-02
4.364315e-03 2.285859e-02 9.864605e-03
-9.897066e-03 2.643103e-02 7.124431e-03
3.222625e-03 7.634264e-03 2.035802e-02
-1.868021e-02 -1.396500e-02 1.328086e-02
4.726504e-03 8.552904e-03 2.066060e-02
7.345060e-04 -1.398695e-03 -4.344980e-02
4.620672e-03 -8.130689e-03 2.031068e-02
2.584965e-02 -3.349002e-03 -2.855020e-02
-5.387419e-03 5.056109e-03 2.010351e-02
-2.356200e-02 -6.075936e-03 1.084058e-02
5.307136e-03 -5.381116e-03 1.868446e-02
1.904605e-02 3.946309e-04 1.606322e-02
-2.031021e-02 9.726900e-03 9.157881e-03
-2.348699e-03 -7.380885e-03 2.065976e-02
-4.180416e-03 1.619609e-02 -4.211269e-02
-2.021894e-02 -8.192662e-03 1.224913e-02
1.408349e-03 -2.232302e-03 -4.314202e-02
-7.398492e-04 9.039755e-04 -4.651564e-02
5.212861e-04 -5.957185e-04 -4.547416e-02
-1.264237e-02 -2.163168e-02 1.004646e-02
-1.311878e-02 2.236757e-02 9.709245e-03
-3.641234e-04 -8.859564e-03 2.011112e-02
-3.037956e-02 1.561170e-02 -1.779498e-02
-3.039138e-02 -1.562862e-02 -1.781273e-02
-1.225640e-02 2.611717e-02 3.107539e-04
1.796371e-02 -1.057360e-03 1.638996e-02
6.356172e-03 -3.345281e-02 -1.419251e-02
4.386658e-03 4.202919e-04 -4.194506e-02
1.456118e-02 2.722612e-02 -2.640131e-02
5.131421e-03 6.060279e-03 2.043489e-02
5.111437e-03 -5.916049e-03 2.046768e-02
-7.505696e-03 -1.544297e-04 1.933187e-02
-7.507297e-03 1.043660e-03 2.119834e-02
-2.418952e-02 2.414401e-02 -6.310746e-03
4.088771e-03 1.656642e-04 -4.519325e-02
1.325595e-03 4.301455e-04 -4.745363e-02
1.654090e-02 -2.377720e-02 -3.046962e-02
5.535121e-03 2.180644e-02 1.118061e-02
2.122494e-02 -2.217235e-02 -2.847419e-03
-3.160696e-02 6.058589e-03 -2.053043e-02
3.273636e-02 -4.920965e-03 -1.667403e-02
6.560518e-03 -2.281895e-02 1.187319e-02
8.856308e-03 2.340387e-02 6.647551e-03
-2.997406e-02 -8.919987e-03 9.294178e-05
-2.809203e-02 8.675589e-03 9.980462e-04
1.164502e-02 -2.679726e-02 1.326289e-04
-1.612233e-04 -8.985935e-03 1.840244e-02
-1.727922e-03 1.258535e-04 -4.238614e-02
-2.290398e-03 2.623734e-04 -4.220230e-02
2.117518e-02 2.223803e-02 -2.912833e-03
-1.590499e-02 -1.920605e-02 1.114516e-02
1.485918e-02 -2.557010e-02 1.089696e-03
1.752135e-03 2.594692e-02 9.386016e-03
9.848639e-04 -2.443996e-02 1.117437e-02
-5.072902e-03 -5.742404e-03 1.881474e-02
-5.047429e-03 5.740830e-03 1.873700e-02
-1.703060e-02 1.647570e-02 1.273373e-02
-1.720296e-02 -1.670795e-02 1.258345e-02
1.864962e-02 9.221974e-03 1.175098e-02
2.005771e-02 -9.246827e-03 1.185987e-02
5.944651e-03 8.857979e-03 1.783040e-02
1.445509e-02 -1.505703e-02 -3.932775e-02
1.451916e-02 1.495452e-02 -3.939792e-02
6.841333e-03 1.550869e-02 -4.187052e-02
-2.607321e-02 2.087938e-02 -1.761134e-02
2.748264e-02 1.633122e-02 -2.308731e-02
-3.072248e-02 -8.147335e-03 -1.467664e-03
-3.687541e-03 -2.165762e-02 1.400043e-02
7.659890e-03 -1.334273e-03 2.059971e-02
8.460113e-03 1.397490e-03 2.112236e-02
-6.150937e-03 2.644860e-03 2.014877e-02
2.690137e-02 1.674520e-02 -1.477188e-02
-6.951900e-03 1.699354e-02 1.543007e-02
-6.822284e-03 -1.721269e-02 1.651861e-02
-1.877736e-02 -9.517531e-03 1.394787e-02
1.428771e-02 3.199384e-02 -1.231213e-02
-6.581586e-03 -1.856658e-03 1.919920e-02
4.651374e-03 7.398539e-03 1.805921e-02
2.100301e-03 1.763172e-02 1.632671e-02
-4.900186e-03 2.127831e-02 1.388773e-02
2.441747e-04 -2.040136e-02 -3.813652e-02
2.875244e-02 -1.711824e-02 -1.558942e-02
6.132672e-03 -9.825601e-03 1.807422e-02
2.265873e-03 -6.539010e-03 1.873987e-02
7.380261e-03 2.357946e-03 2.049052e-02
1.531515e-02 -1.306234e-02 1.383512e-02
-3.653430e-03 3.322654e-02 -1.044463e-02
-6.644058e-03 -2.632250e-03 2.012026e-02
-6.662290e-03 2.862532e-03 2.035036e-02
1.364511e-02 2.764013e-02 2.211552e-03
1.157947e-02 -1.608578e-02 1.484723e-02
1.149691e-02 1.576404e-02 1.484180e-02
-3.273685e-02 7.869665e-03 -7.101235e-03
-1.383585e-04 -2.786068e-04 2.156774e-02
2.811540e-02 -1.721182e-02 -1.422555e-02
4.437033e-03 1.595147e-02 -3.888614e-02
1.816243e-02 -8.529932e-03 1.215250e-02
3.371290e-02 5.420977e-03 -1.383509e-02
-2.163604e-02 -1.744662e-02 7.631801e-03
-2.154110e-02 1.745072e-02 7.582206e-03
1.030504e-04 2.653125e-02 -3.270469e-02
-1.177045e-02 9.663059e-03 -4.047686e-02
-1.148652e-02 -9.375219e-03 -4.058168e-02
-2.572846e-03 5.942918e-03 1.955828e-02
-1.449942e-03 -2.227403e-02 1.117142e-02
-2.885368e-02 -1.493503e-02 -5.208544e-03
-2.579383e-02 -1.495380e-02 -3.037473e-02
9.534955e-03 -1.584776e-02 1.582904e-02
2.303445e-02 -1.580031e-02 5.912928e-03
2.306902e-02 1.570361e-02 6.190745e-03
1.233109e-02 -3.234120e-02 -1.262024e-02
7.204082e-03 4.060488e-03 2.009611e-02
-2.719243e-02 -5.182444e-03 -3.270997e-02
-2.658447e-02 6.360188e-03 -3.182632e-02
-2.671711e-02 -1.782913e-02 -1.481914e-02
-2.668693e-02 1.781316e-02 -1.481922e-02
-2.884192e-02 1.492032e-02 -5.207858e-03
-2.678594e-02 1.775706e-02 -1.201459e-03
-2.682711e-02 -1.777400e-02 -1.196676e-03
3.626615e-03 -2.156346e-02 1.323368e-02
-1.522774e-02 8.935761e-03 1.617078e-02
-1.520275e-02 -8.961475e-03 1.622438e-02
5.048671e-03 -1.514463e-02 -3.626499e-02
1.807074e-02 -2.032929e-02 8.654251e-03
-7.931209e-04 -7.364940e-03 2.088596e-02
-7.276474e-04 7.824582e-03 1.897439e-02
-5.152527e-04 -1.412697e-03 -4.708664e-02
2.437310e-02 1.087245e-02 9.260295e-03
3.072626e-04 -2.218701e-02 -3.915909e-02
-3.304810e-02 -3.150079e-03 -1.168524e-02
-3.095540e-02 4.092690e-03 -1.210299e-02
-1.154483e-02 3.194746e-02 -7.514570e-03
-1.096210e-02 -3.128954e-02 -6.693823e-03
-2.092464e-02 2.097273e-02 -2.433106e-02
3.295798e-03 3.389750e-02 -9.805147e-03
1.440468e-02 -1.307396e-02 1.461725e-02
1.436091e-02 1.235869e-02 1.298368e-02
2.230286e-02 5.311606e-03 -3.287912e-02
2.428048e-02 -1.084701e-02 9.253094e-03
2.234551e-02 -5.382594e-03 -3.306922e-02