# vtk DataFile Version 2.0
Electric current density generated by TTH
ASCII
DATASET UNSTRUCTURED_GRID
POINTS 6652 double
2.048577e-05 3.081668e-05 -1.820354e-22
-2.928759e-05 -2.167644e-05 7.222311e-07
3.326777e-05 1.471442e-05 7.342155e-07
-2.612076e-05 -2.524604e-05 7.403001e-07
3.458799e-05 1.146379e-05 -7.218400e-07
3.591440e-05 -6.177054e-06 7.209826e-07
3.591440e-05 6.177054e-06 -7.209826e-07
-3.133328e-05 1.861740e-05 7.196517e-07
-2.901910e-05 -2.209886e-05 -7.116598e-07
-3.111569e-05 -1.720070e-05 -2.266231e-07
9.987182e-06 3.505188e-05 7.196640e-07
2.009534e-05 3.107269e-05 -1.820354e-22
9.987182e-06 -3.505188e-05 -7.196640e-07
-3.511892e-05 -9.786967e-06 7.169502e-07
-3.511892e-05 9.786967e-06 7.169502e-07
3.541433e-05 2.713131e-06 -5.321631e-09
3.541433e-05 -2.713131e-06 5.321631e-09
1.277484e-05 -3.413326e-05 7.200240e-07
1.277484e-05 3.413326e-05 -7.200240e-07
-2.918376e-05 2.025161e-05 -7.706392e-08
-2.971138e-05 1.954674e-05 2.587954e-07
2.540150e-05 -2.606420e-05 7.311356e-07
1.970171e-05 3.132375e-05 -1.820354e-22
-2.827463e-05 2.149828e-05 4.483580e-08
3.448755e-05 -8.545611e-06 -1.353869e-07
3.448755e-05 8.545611e-06 1.353869e-07
3.561382e-05 -7.999814e-06 -7.034184e-07
3.561382e-05 7.999814e-06 7.034184e-07
3.459536e-05 -1.155002e-05 -7.125842e-07
3.399021e-05 -1.034488e-05 -1.301410e-07
3.398231e-05 1.036924e-05 1.275665e-07
-3.226131e-05 -1.703201e-05 7.099262e-07
-1.219206e-05 -3.439483e-05 7.065764e-07
1.930495e-05 3.156982e-05 -1.820354e-22
-1.309445e-05 -3.365448e-05 7.280982e-07
-1.686987e-05 3.235982e-05 7.061255e-07
-1.044146e-05 3.496609e-05 7.065718e-07
-9.276069e-06 3.490048e-05 7.280986e-07
1.082999e-06 -3.649331e-05 -7.005947e-07
2.760897e-05 2.386792e-05 -7.053037e-07
-3.544773e-05 2.839760e-06 2.497097e-07
-3.714608e-06 -3.630805e-05 7.046632e-07
-7.768095e-06 3.566012e-05 7.050524e-07
-1.476025e-05 -3.337849e-05 7.050472e-07
1.890511e-05 3.181087e-05 -1.820354e-22
-2.404212e-05 -2.745844e-05 7.050438e-07
-2.462483e-05 -2.640932e-05 7.273693e-07
-2.545733e-05 -2.602067e-05 7.296573e-07
2.448619e-05 2.659054e-05 7.344261e-07
-3.408098e-05 -1.217869e-05 -7.399425e-07
-3.408098e-05 1.217869e-05 -7.399425e-07
1.643132e-05 3.260340e-05 7.004216e-07
1.643132e-05 -3.260340e-05 -7.004216e-07
1.556421e-05 -3.300376e-05 -7.072766e-07
1.556421e-05 3.300376e-05 7.072766e-07
1.850226e-05 3.204686e-05 -1.820354e-22
1.842297e-06 -3.647374e-05 -6.966520e-07
-2.695036e-05 2.451361e-05 -7.235160e-07
-2.692936e-05 -2.458883e-05 -7.143467e-07
4.600006e-06 3.625045e-05 -6.885224e-07
4.600006e-06 -3.625045e-05 6.885224e-07
8.225707e-06 3.561631e-05 -6.832209e-07
8.225707e-06 -3.561631e-05 6.832209e-07
-2.849713e-05 -2.282412e-05 -7.001437e-07
-3.610505e-05 -5.260633e-06 7.083480e-07
-2.881695e-05 2.217969e-05 -7.360590e-07
1.809647e-05 3.227774e-05 -1.820354e-22
3.010968e-05 -2.065581e-05 6.990223e-07
3.010968e-05 2.065581e-05 -6.990223e-07
2.796920e-05 -2.347308e-05 6.989931e-07
3.477594e-05 -9.725440e-06 -7.277040e-07
3.477308e-05 9.731319e-06 7.274592e-07
3.339926e-05 1.208561e-05 -2.816286e-08
2.773405e-05 2.219105e-05 -4.229700e-08
2.773405e-05 -2.219105e-05 4.229700e-08
3.330352e-05 -1.494880e-05 7.022403e-07
-3.557865e-05 -7.209322e-06 -7.421169e-07
1.768780e-05 3.250348e-05 -1.820354e-22
3.540533e-05 5.363277e-06 5.899269e-07
3.540533e-05 -5.363277e-06 -5.899269e-07
-8.335264e-06 3.507830e-05 7.140118e-07
-1.395905e-05 -3.324321e-05 7.140195e-07
6.768724e-06 3.503050e-05 -4.611370e-07
6.768724e-06 -3.503050e-05 4.611370e-07
1.982820e-05 2.958613e-05 -3.686417e-07
-3.537449e-05 -5.392921e-06 -5.690324e-07
5.271693e-06 -3.525722e-05 4.214741e-07
5.271693e-06 3.525722e-05 -4.214741e-07
1.727631e-05 3.272406e-05 -1.820354e-22
2.501074e-05 2.526414e-05 -2.159760e-07
-3.536809e-05 -4.415236e-06 -4.118187e-07
-3.552090e-05 -2.869268e-06 -4.026245e-07
-2.986901e-05 2.090604e-05 -7.165855e-07
-3.489749e-05 6.664537e-06 -1.219708e-07
-3.014914e-05 1.886331e-05 -2.570525e-07
-3.463074e-05 1.148923e-05 7.081654e-07
-3.463074e-05 -1.148923e-05 7.081654e-07
3.327583e-06 -3.537030e-05 1.113791e-07
3.327583e-06 3.537030e-05 -1.113791e-07
1.686207e-05 3.293942e-05 -1.820354e-22
2.048036e-05 -3.022937e-05 -6.990000e-07
1.353006e-05 3.388518e-05 -7.082637e-07
1.353006e-05 -3.388518e-05 7.082637e-07
2.010149e-06 3.633202e-05 7.324093e-07
-2.805045e-05 2.320196e-05 -7.296362e-07
3.639075e-05 3.812229e-06 6.666350e-07
3.639075e-05 -3.812229e-06 -6.666350e-07
-4.371789e-07 3.651276e-05 6.984401e-07
3.562911e-05 7.897687e-06 -7.058725e-07
3.562911e-05 -7.897687e-06 7.058725e-07
1.644515e-05 3.314954e-05 -1.820354e-22
3.174665e-05 -1.595052e-05 -1.234955e-07
-2.641681e-05 2.522133e-05 -6.954468e-07
-3.012754e-05 -1.882313e-05 -9.622013e-08
3.158838e-05 -1.803158e-05 7.348412e-07
3.158504e-05 1.804008e-05 -7.346412e-07
-4.389483e-06 3.601189e-05 7.430190e-07
-2.364405e-06 3.621803e-05 -7.424464e-07
2.235189e-05 -2.761556e-05 1.198580e-07
-2.735997e-05 2.415783e-05 7.042196e-07
-8.905042e-06 -3.517018e-05 -7.429799e-07
1.602561e-05 3.335438e-05 -1.820354e-22
-1.937567e-05 -3.067256e-05 -7.429864e-07
-2.308130e-05 2.799064e-05 -7.429864e-07
-6.876361e-06 -3.562759e-05 7.428348e-07
-1.758939e-05 -3.173677e-05 7.428349e-07
-2.144314e-05 2.927116e-05 7.428349e-07
-2.308172e-05 -2.799064e-05 -7.429798e-07
-2.136999e-05 -2.932685e-05 7.427745e-07
-2.489044e-05 2.640467e-05 7.427745e-07
-1.964226e-05 3.050276e-05 -7.429816e-07
-1.564785e-05 -3.273196e-05 -7.429816e-07
1.560352e-05 3.355391e-05 -1.820354e-22
-6.776092e-06 3.564681e-05 -7.428342e-07
3.092073e-05 -1.944822e-05 -6.935585e-07
3.092073e-05 1.944822e-05 6.935585e-07
2.798970e-05 2.341179e-05 7.070884e-07
2.234187e-05 2.763302e-05 -1.580653e-07
-2.642075e-05 -2.524218e-05 -6.886954e-07
9.139851e-06 -3.527095e-05 -7.224104e-07
9.139851e-06 3.527095e-05 7.224104e-07
-2.306121e-06 -3.622584e-05 -7.422513e-07
-1.124101e-05 3.448735e-05 -7.431225e-07
1.517894e-05 3.374810e-05 -1.820354e-22
-1.339281e-05 -3.371009e-05 -7.431225e-07
-1.549134e-05 3.279873e-05 -7.431225e-07
-1.763554e-05 3.170671e-05 -7.429489e-07
-1.340258e-05 3.369812e-05 -7.432038e-07
-1.126403e-05 -3.447984e-05 -7.431225e-07
-2.491940e-05 -2.635833e-05 -7.431225e-07
-9.067930e-06 3.512137e-05 -7.431225e-07
1.413968e-05 3.365551e-05 7.020865e-07
1.413968e-05 -3.365551e-05 -7.020865e-07
3.227128e-05 1.696387e-05 -7.166313e-07
1.475195e-05 3.393692e-05 -1.820354e-22
-2.662468e-05 -2.350972e-05 3.087278e-08
-2.654196e-05 2.360542e-05 5.717660e-08
2.852613e-06 3.637109e-05 7.094478e-07
-3.449491e-05 9.814157e-06 -6.280166e-07
-3.449491e-05 -9.814157e-06 -6.280166e-07
-3.261144e-05 -1.413814e-05 -1.954147e-07
-3.263813e-05 1.408584e-05 -2.086313e-07
3.231569e-05 -1.706072e-05 6.878703e-07
3.629569e-05 4.012452e-06 -6.979190e-07
3.629569e-05 -4.012452e-06 6.979190e-07
1.432261e-05 3.412034e-05 -1.820354e-22
3.391244e-05 -1.344519e-05 7.101573e-07
-3.468939e-05 -1.154528e-05 -6.804708e-07
-3.468939e-05 1.154528e-05 -6.804708e-07
-3.591013e-05 1.816163e-06 -6.776256e-07
-3.603747e-05 5.580477e-06 7.141901e-07
-3.590661e-05 6.496114e-06 7.073155e-07
-2.727578e-05 -2.276485e-05 -1.182070e-07
-2.721893e-05 2.283326e-05 -1.200195e-07
2.571204e-05 2.461592e-05 -3.306258e-07
-3.304540e-05 -1.337586e-05 -4.224904e-07
1.389099e-05 3.429832e-05 -1.820354e-22
-3.304540e-05 1.337586e-05 -4.224906e-07
-2.799896e-05 -2.350247e-05 -6.824922e-07
-3.568054e-05 -8.093493e-06 -6.680702e-07
2.679816e-05 2.361254e-05 -5.058984e-07
3.488287e-05 6.689528e-06 2.484935e-08
3.488287e-05 -6.689528e-06 -2.484935e-08
2.304479e-05 2.834444e-05 6.927921e-07
3.143892e-05 1.875988e-05 6.560026e-07
3.143892e-05 -1.875988e-05 -6.560026e-07
-3.523834e-05 4.465350e-06 -5.502771e-08
1.345716e-05 3.447085e-05 -1.820354e-22
2.089291e-05 2.994009e-05 7.006497e-07
-3.583838e-05 -6.417748e-06 -7.285006e-07
-3.572857e-05 -1.923375e-06 -5.665727e-07
3.639064e-05 -2.283242e-06 7.155513e-07
3.639064e-05 2.283242e-06 -7.155513e-07
-3.222360e-05 1.716775e-05 6.998257e-07
3.125242e-05 1.707208e-05 3.604834e-07
3.125242e-05 -1.707208e-05 -3.604834e-07
6.150440e-06 -3.551080e-05 7.093442e-07
6.150440e-06 3.551080e-05 -7.093442e-07
1.302119e-05 3.463789e-05 -1.820354e-22
2.381462e-05 -2.768014e-05 -6.986688e-07
2.742185e-05 2.291223e-05 5.238863e-07
-3.630768e-05 4.140795e-06 6.877475e-07
3.299508e-05 -1.579610e-05 6.707952e-07
-3.271266e-05 -1.639487e-05 -6.660310e-07
2.656065e-05 -2.358111e-05 7.101724e-09
-3.503443e-06 3.534492e-05 7.122988e-09
-3.548826e-05 3.998342e-06 5.015001e-07
-7.923515e-06 -3.462307e-05 -9.536816e-09
-1.827320e-05 -3.045701e-05 -9.584741e-09
1.258314e-05 3.479941e-05 -1.820354e-22
-2.196047e-05 2.791553e-05 -9.584741e-09
-2.533790e-05 2.489031e-05 -6.269980e-09
-2.200446e-05 -2.788083e-05 -6.269980e-09
-1.985227e-05 -2.945204e-05 -3.301182e-09
-2.340054e-05 2.671984e-05 -3.301182e-09
-1.986534e-05 2.944325e-05 -6.215226e-09
-1.600248e-05 -3.170895e-05 -6.215226e-09
-5.395540e-06 3.510599e-05 1.285395e-08
-5.332781e-06 -3.511548e-05 4.621506e-09
2.429619e-05 -2.603501e-05 -3.594059e-07
1.214310e-05 3.495540e-05 -1.820354e-22
-1.017739e-05 -3.402966e-05 -3.605086e-08
-1.225124e-05 3.333856e-05 -1.908055e-08
-1.397163e-05 3.265481e-05 -1.303051e-08
-1.793206e-05 3.065926e-05 -1.720483e-08
-3.519869e-05 5.209250e-06 3.016897e-07
-9.156142e-07 -3.550629e-05 -2.586895e-09
-8.843019e-07 3.550719e-05 -1.249213e-08
4.237013e-06 3.552987e-05 5.676858e-07
4.479282e-06 3.626884e-05 6.871914e-07
4.237013e-06 -3.552987e-05 -5.676858e-07
1.170111e-05 3.510582e-05 -1.820354e-22
4.479282e-06 -3.626884e-05 -6.871914e-07
3.438645e-05 -1.243382e-05 6.781618e-07
3.220497e-05 1.518904e-05 -3.527203e-07
3.347255e-05 -1.191655e-05 1.351883e-07
-2.876954e-05 2.087407e-05 1.964488e-07
-2.770944e-05 -2.232069e-05 2.998426e-07
2.624057e-05 -2.417610e-05 -4.628956e-07
1.840015e-05 -3.055437e-05 -4.462876e-07
-3.487096e-05 -6.799195e-06 1.187048e-07
3.300622e-05 1.564209e-05 -6.948105e-07
1.125727e-05 3.525065e-05 -1.820354e-22
[...]
POINT_DATA 6652
VECTORS 10.000GHz_fone_imag double
3.751146e+10 -2.407473e+10 -8.097958e+07
-2.736106e+10 3.775378e+10 8.058504e+07
1.992337e+10 -4.372421e+10 8.345810e+08
-3.332153e+10 3.371659e+10 -1.433943e+09
1.406284e+10 -4.424124e+10 -5.900954e+08
-7.720580e+09 -4.633865e+10 1.015595e+09
7.774350e+09 -4.565121e+10 1.511365e+09
2.356624e+10 4.251583e+10 -3.652245e+08
-2.682104e+10 3.597924e+10 -5.580123e+08
-2.427890e+10 4.355805e+10 -5.890198e+08
4.580676e+10 -1.327759e+10 -2.375121e+08
3.742600e+10 -2.365219e+10 -2.397603e+08
-4.586412e+10 -1.331147e+10 -2.466220e+08
-1.205767e+10 4.480394e+10 -6.211891e+08
1.175853e+10 4.501440e+10 3.597019e+08
3.963544e+09 -5.091313e+10 1.280035e+09
-4.074932e+09 -5.271235e+10 3.543277e+08
-4.326676e+10 -1.637827e+10 1.395085e+08
4.237283e+10 -1.670006e+10 9.172863e+08
3.037682e+10 4.243321e+10 -1.438343e+09
2.757917e+10 4.173873e+10 -1.163776e+08
-3.313736e+10 -3.291226e+10 9.741075e+06
3.667648e+10 -2.448404e+10 -6.528941e+08
3.074036e+10 4.001272e+10 -9.480674e+08
-1.093244e+10 -4.905049e+10 4.393773e+08
1.125003e+10 -4.950063e+10 4.030268e+08
-1.019701e+10 -4.458687e+10 4.490200e+08
1.036226e+10 -4.427332e+10 2.527297e+08
-1.517873e+10 -4.346335e+10 1.018428e+09
-1.476356e+10 -4.790961e+10 -9.918105e+07
1.431116e+10 -4.768961e+10 4.614895e+08
-2.122614e+10 4.213694e+10 -5.936281e+08
-4.392082e+10 1.643582e+10 1.306043e+08
3.738097e+10 -2.160505e+10 4.315285e+07
-4.397002e+10 1.741502e+10 -5.584970e+07
4.128026e+10 2.193312e+10 1.733227e+08
4.569814e+10 1.282000e+10 -1.188461e+08
4.498634e+10 1.258913e+10 1.811402e+08
-4.570142e+10 -2.033632e+09 7.536534e+08
2.870064e+10 -3.587596e+10 4.450520e+08
2.907553e+09 4.958627e+10 4.496994e+07
-4.660933e+10 4.772391e+09 -6.197545e+08
4.732589e+10 1.083696e+10 -1.392000e+09
-4.197107e+10 2.012867e+10 -4.304689e+08
3.742467e+10 -2.311700e+10 -4.350302e+08
-3.568798e+10 3.165593e+10 -3.022437e+08
-3.570701e+10 3.509155e+10 9.149590e+07
-3.345113e+10 3.346653e+10 1.475701e+09
3.430247e+10 -3.275065e+10 3.001627e+08
-1.647899e+10 4.564542e+10 -2.007780e+08
1.640278e+10 4.525471e+10 3.140813e+08
4.003473e+10 -1.955345e+10 -3.533148e+08
-4.111317e+10 -1.957988e+10 3.690991e+08
-4.148961e+10 -1.998624e+10 7.724322e+08
4.204469e+10 -2.000212e+10 4.944746e+08
3.812460e+10 -2.269332e+10 -2.783889e+08
-4.631587e+10 -2.413572e+09 3.460584e+08
3.093673e+10 3.483703e+10 1.359878e+08
-3.123636e+10 3.453206e+10 -8.479931e+07
4.500692e+10 -4.988956e+09 -2.747050e+08
-4.515747e+10 -6.038786e+09 9.244013e+08
4.450071e+10 -1.035704e+10 1.167343e+09
-4.438643e+10 -1.042813e+10 1.043253e+09
-2.903431e+10 3.542114e+10 -6.967968e+08
-5.094585e+09 4.577471e+10 -1.219817e+09
2.979470e+10 4.013860e+10 1.285880e+09
4.001492e+10 -2.280681e+10 -2.015983e+08
-2.490543e+10 -3.801912e+10 -2.746271e+08
2.471971e+10 -3.854715e+10 -5.620172e+08
-3.091721e+10 -3.414005e+10 6.678965e+07
-1.395341e+10 -4.909360e+10 -4.695790e+07
1.414764e+10 -4.714512e+10 5.065277e+08
1.724755e+10 -4.689340e+10 -2.868891e+08
3.178091e+10 -3.987051e+10 -3.097659e+08
-3.004432e+10 -4.008293e+10 -1.324461e+07
-1.895941e+10 -4.197623e+10 -1.008052e+09
-9.359105e+09 4.585738e+10 -7.710026e+08
3.955452e+10 -2.099899e+10 -1.202487e+09
6.837459e+09 -4.889460e+10 -3.643417e+08
-6.694940e+09 -4.849231e+10 -2.930520e+08
4.767183e+10 1.080933e+10 6.405770e+08
-4.517334e+10 1.875374e+10 4.162153e+08
4.903453e+10 -8.293641e+09 1.149121e+09
-4.927159e+10 -9.026487e+09 1.205153e+09
4.117263e+10 -2.751140e+10 -4.601041e+08
-7.559672e+09 4.822104e+10 2.316085e+08
-4.939288e+10 -7.557419e+09 -6.702332e+08
4.868665e+10 -7.897186e+09 -4.107283e+08
3.863341e+10 -2.085866e+10 1.001942e+09
3.637933e+10 -3.503372e+10 -5.418641e+07
-6.548087e+09 4.865360e+10 1.938873e+08
-3.827328e+09 5.000686e+10 1.010437e+09
2.719988e+10 3.976966e+10 6.193861e+07
7.907390e+09 4.965261e+10 8.409518e+08
2.849136e+10 4.586396e+10 -4.190000e+08
1.463121e+10 4.424912e+10 -1.298155e+09
-1.463191e+10 4.422478e+10 1.305702e+09
-5.105054e+10 -5.258524e+09 6.455103e+08
5.023792e+10 -5.098921e+09 -2.089173e+07
3.903818e+10 -1.922229e+10 1.920268e+08
-3.869568e+10 -2.705103e+10 1.182835e+09
4.430226e+10 -1.731237e+10 1.707351e+07
-4.264121e+10 -1.670547e+10 -5.025529e+08
4.631602e+10 -3.100566e+09 -3.671416e+08
2.886166e+10 3.686655e+10 -7.473522e+08
3.506315e+09 -4.536119e+10 -9.331686e+08
-3.499709e+09 -4.508636e+10 -9.216633e+08
4.636889e+10 1.543400e+09 9.232166e+08
1.071661e+10 -4.570640e+10 -3.621953e+08
-1.086729e+10 -4.550924e+10 -2.811472e+08
3.975667e+10 -1.992262e+10 1.433732e+09
-2.364506e+10 -4.815007e+10 7.691172e+08
3.227147e+10 3.345908e+10 4.877419e+08
-2.771638e+10 4.419075e+10 1.249415e+09
-2.351597e+10 -4.128459e+10 -8.752618e+08
2.335411e+10 -4.119800e+10 -3.733880e+08
4.593645e+10 6.573420e+09 -2.320700e+08
4.783469e+10 3.135025e+09 -5.367312e+08
-3.998898e+10 -3.104477e+10 4.044887e+07
2.969747e+10 3.431022e+10 1.030195e+09
-4.768554e+10 1.170192e+10 9.955516e+08
3.918156e+10 -1.979855e+10 2.830681e+08
-3.944306e+10 2.499185e+10 -5.702978e+08
3.600513e+10 2.978809e+10 5.609308e+08
-4.704152e+10 8.621762e+09 -6.704616e+08
-4.239496e+10 2.193122e+10 -7.375434e+08
3.796094e+10 2.823163e+10 6.445247e+08
-3.643666e+10 3.208422e+10 1.026882e+09
-3.742344e+10 2.792708e+10 6.973195e+07
3.333228e+10 3.311826e+10 -1.289046e+08
3.946292e+10 2.629539e+10 1.912362e+09
-4.218787e+10 2.090014e+10 -1.504656e+09
4.094269e+10 -1.825346e+10 5.479555e+08
5.004934e+10 9.468512e+09 4.411079e+08
-2.443957e+10 -3.981552e+10 1.253019e+08
2.433435e+10 -3.992890e+10 4.090018e+08
3.003436e+10 -3.573718e+10 -2.862265e+08
4.030900e+10 -3.281533e+10 7.317559e+08
-3.161110e+10 3.416739e+10 -8.545523e+08
-4.469804e+10 -1.173271e+10 5.603146e+08
4.465468e+10 -1.179374e+10 4.883589e+08
-4.743892e+10 2.199148e+09 -8.983815e+07
4.460433e+10 1.421006e+10 4.071944e+08
4.024341e+10 -1.869374e+10 -4.263552e+08
-4.329320e+10 1.817240e+10 -3.730093e+08
4.196367e+10 2.001159e+10 7.557820e+07
4.088026e+10 2.389692e+10 8.913366e+08
4.333216e+10 1.897844e+10 -1.350368e+08
-4.641623e+10 1.712189e+10 2.625192e+07
-3.377562e+10 3.218435e+10 -7.868106e+08
4.617902e+10 1.244843e+10 -5.065993e+08
4.382376e+10 -1.824050e+10 1.835597e+08
-4.396823e+10 -1.903854e+10 4.802519e+08
2.136410e+10 -4.190852e+10 -4.638508e+07
4.075531e+10 -1.773793e+10 -2.727666e+08
-3.287868e+10 3.760615e+10 9.559473e+08
3.354163e+10 3.713901e+10 1.589605e+08
4.551686e+10 -3.201899e+09 1.129135e+09
1.274619e+10 4.686379e+10 3.239047e+08
-1.237863e+10 4.785075e+10 5.867078e+08
-2.003821e+10 4.522943e+10 -2.007244e+09
2.035787e+10 4.483584e+10 4.859076e+08
-2.179698e+10 -4.122390e+10 1.610214e+08
4.809272e+09 -4.572737e+10 -3.240992e+08
-4.539636e+09 -4.590457e+10 -5.143681e+08
4.136577e+10 -1.771197e+10 3.431837e+08
-1.708643e+10 -4.284349e+10 1.612256e+08
-1.511435e+10 4.336507e+10 6.582502e+08
1.507716e+10 4.334273e+10 -6.342859e+08
3.044896e+09 4.796135e+10 -3.610257e+08
7.580155e+09 4.694909e+10 4.051138e+08
8.558169e+09 4.558923e+10 8.300418e+08
-3.196647e+10 3.952376e+10 -4.178847e+08
3.362780e+10 3.974775e+10 9.136481e+08
3.585618e+10 -3.538415e+10 2.301381e+08
-1.856010e+10 4.572595e+10 3.801484e+08
4.086812e+10 -1.581176e+10 4.518371e+08
1.857432e+10 4.618555e+10 4.246449e+08
-2.979125e+10 3.515079e+10 -8.348642e+08
-9.738271e+09 4.436733e+10 2.650871e+08
3.184470e+10 -3.841134e+10 -1.176682e+08
9.304496e+09 -4.997650e+10 -2.725417e+08
-9.035237e+09 -5.215376e+10 -5.679603e+08
3.535099e+10 -2.971428e+10 1.130431e+09
2.430983e+10 -3.921450e+10 -1.231978e+09
-2.446344e+10 -3.895951e+10 -3.023763e+08
5.610906e+09 5.033326e+10 -1.439544e+08
4.070102e+10 -1.514366e+10 -6.083685e+08
3.736981e+10 -2.622591e+10 2.834673e+08
-8.175724e+09 4.643174e+10 3.336950e+08
-2.240290e+09 4.777270e+10 7.316620e+07
-3.032158e+09 -4.675562e+10 5.453554e+07
2.283296e+09 -4.668213e+10 4.679762e+08
2.095379e+10 4.109053e+10 7.739857e+08
2.409632e+10 -4.421406e+10 -2.633002e+08
-2.308344e+10 -4.381227e+10 4.694553e+08
-4.799814e+10 -8.483232e+09 -8.678614e+07
4.833361e+10 -8.764265e+09 -1.034262e+08
4.149633e+10 -1.636934e+10 1.070287e+09
-3.542061e+10 -3.032165e+10 4.025690e+08
3.360958e+10 -3.773011e+10 -6.342598e+08
4.206639e+09 4.565983e+10 -1.870023e+08
-1.954742e+10 -4.071950e+10 1.807084e+08
-2.098182e+10 4.196545e+10 -2.891355e+07
-3.473784e+10 -3.808525e+10 -1.145817e+09
5.073197e+10 5.030265e+09 -6.589421e+08
5.209122e+09 4.968809e+10 -1.502650e+09
-5.092340e+10 1.148533e+10 1.615197e+08
-4.445229e+10 2.697851e+10 5.777168e+08
4.222712e+10 -1.675299e+10 -6.730493e+08
4.080743e+10 3.245417e+10 -5.897086e+08
3.555778e+10 3.745186e+10 -9.132870e+08
-4.203770e+10 3.109617e+10 -1.156388e+09
-4.438074e+10 2.974563e+10 4.462750e+08
4.034114e+10 3.514387e+10 -4.836928e+08
4.382096e+10 2.908699e+10 -7.039101e+08
-4.618909e+10 2.281203e+10 8.793579e+07
5.094673e+10 8.158252e+09 -1.527026e+08
-5.144302e+10 7.626016e+09 1.385428e+08
-3.660581e+10 -3.518900e+10 -3.186351e+08
4.175713e+10 -1.321427e+10 -1.048952e+08
-4.936729e+10 1.496876e+10 2.342576e+08
5.090323e+10 1.781296e+10 -1.764006e+09
4.903280e+10 2.057920e+10 7.128386e+08
4.328522e+10 2.466268e+10 -3.514750e+08
6.559759e+09 4.904385e+10 -9.114941e+08
-5.209771e+10 8.635498e+08 -1.374543e+09
5.036499e+10 1.811656e+09 -1.162556e+08
5.010765e+10 -7.116003e+09 -2.785913e+08
4.664108e+10 -5.649795e+09 5.349393e+08
-5.064610e+10 -6.308143e+09 7.097813e+08
4.145632e+10 -1.495035e+10 2.627796e+08
-4.693635e+10 -6.752046e+09 -1.348727e+08
-1.581436e+10 -4.532099e+10 1.340361e+08
2.219413e+10 -4.456315e+10 7.408246e+08
-1.711569e+10 -5.114255e+10 -6.000591e+08
3.171349e+10 4.400480e+10 3.878351e+08
-3.376557e+10 3.982138e+10 6.461385e+08
-3.244455e+10 -3.696020e+10 1.083646e+09
-4.366370e+10 -2.627737e+10 -4.132368e+08
-9.903264e+09 5.003334e+10 1.810203e+07
1.914013e+10 -4.215679e+10 4.367238e+08
4.195429e+10 -1.174497e+10 -6.196411e+07
4.391833e+10 -2.708922e+10 4.366797e+08
4.635154e+10 -2.018311e+09 -5.052610e+08
-1.482180e+10 -4.299134e+10 -1.596177e+09
1.552821e+10 4.341492e+10 4.918062e+08
-1.544076e+10 4.297455e+10 -1.044341e+09
4.291340e+10 -2.810307e+10 -1.112003e+09
-4.590222e+10 -2.257352e+10 -8.000490e+08
4.574769e+10 -2.314773e+10 -6.081146e+08
-2.621214e+10 3.858603e+10 3.718233e+07
4.924688e+10 -1.829103e+10 5.253351e+08
4.215232e+10 -1.287883e+10 -3.407431e+08
-4.791410e+10 -1.803199e+10 1.933035e+08
2.302662e+10 3.978432e+10 3.753075e+07
-3.391020e+10 -3.183602e+10 8.896598e+07
2.164546e+10 4.340072e+10 -2.087304e+08
2.737011e+10 3.909900e+10 5.758185e+08
1.795059e+10 -4.174425e+10 1.719554e+07
-3.121185e+10 -3.386479e+10 6.614133e+08
1.669566e+10 -4.196123e+10 -5.001023e+08
2.409489e+10 3.765438e+10 -8.003097e+08
-3.184783e+10 -3.284351e+10 1.625839e+08
4.337543e+10 -1.250689e+10 1.609497e+09
9.224753e+08 -5.124424e+10 3.362579e+08
-8.611029e+08 -5.061605e+10 1.125456e+09
-3.961150e+10 -3.412734e+10 1.509593e+09
-3.739120e+10 -2.514267e+10 7.525707e+08
-3.471859e+10 -2.922364e+10 -8.677308e+08
2.790901e+10 3.703427e+10 -8.618498e+08
-2.074024e+10 -4.847726e+10 -2.899804e+08
3.060349e+10 3.605909e+10 -4.569421e+08
5.051184e+10 -1.005476e+09 2.464266e+07
-5.091329e+10 -2.338111e+09 -2.619085e+08
4.273811e+10 -1.126985e+10 7.446882e+08
-3.160596e+10 -3.393036e+10 -5.438569e+08
-2.498504e+10 3.810305e+10 -3.380042e+08
-1.797656e+09 4.578638e+10 2.773235e+08
-1.664885e+10 -4.313261e+10 -8.454351e+08
4.715823e+10 -9.559228e+09 7.891833e+08
-4.733411e+10 -1.002761e+10 6.884057e+08
3.481048e+10 -3.564193e+10 1.543293e+08
1.938001e+10 -4.191691e+10 -4.727640e+08
9.471794e+09 4.450028e+10 7.811646e+08
2.334618e+10 -4.418963e+10 1.866085e+08
4.280796e+10 -1.175265e+10 2.629919e+08
-4.125527e+10 -2.086529e+10 7.541179e+08
4.012738e+10 -1.929000e+10 1.178997e+09
5.181234e+10 -2.735446e+09 -7.588602e+08
-5.272980e+10 -3.354540e+09 -7.147189e+08
-9.066763e+09 4.861237e+10 2.373250e+08
3.692970e+10 -2.811184e+10 -4.257447e+07
2.449857e+10 4.289056e+10 -1.528102e+08
-8.994779e+09 4.466134e+10 -3.404468e+08
-4.972304e+10 4.462445e+09 3.162611e+08
-2.619901e+10 -4.362736e+10 -3.373419e+07
4.267017e+10 -1.191318e+10 4.660427e+08
2.464978e+10 -4.301547e+10 -2.098452e+08
-4.905893e+10 -1.031712e+10 1.199769e+09
4.811749e+10 -9.508074e+09 9.139276e+08
4.913123e+10 -1.196195e+10 -1.097977e+09
-4.903528e+10 -1.194860e+10 -1.073266e+09
2.491084e+10 3.883499e+10 -3.910130e+08
-4.918462e+10 -1.547516e+10 4.730722e+08
4.924006e+10 -1.551052e+10 5.076283e+08
1.279537e+09 4.573243e+10 -7.686381e+08
4.582892e+10 -1.474442e+10 -1.022600e+09
4.230272e+10 -9.793404e+09 -6.267662e+08
-4.593335e+10 -1.450386e+10 -9.665319e+08
2.988819e+10 -3.905071e+10 8.158099e+08
-2.874089e+10 -3.806047e+10 3.369028e+08
4.472225e+10 2.323383e+10 -2.084400e+08
-6.686834e+09 -4.476759e+10 -3.912356e+08
6.673827e+09 -4.453275e+10 -2.562982e+08
1.656393e+10 -4.372540e+10 2.102829e+08
-2.775258e+10 -3.666984e+10 -2.686046e+08
2.880460e+10 -3.571194e+10 3.110740e+07
4.849327e+10 -1.528463e+10 -1.206809e+08
4.378725e+10 -8.297880e+09 6.652798e+08
-4.785268e+10 -1.491308e+10 -2.044610e+08
-3.583911e+10 -3.023358e+10 1.052993e+09
1.789010e+10 -4.626984e+10 2.809796e+08
-2.309449e+09 -4.702732e+10 -2.562549e+08
2.349868e+09 -4.549301e+10 -1.039114e+09
-1.631224e+10 4.830286e+10 9.693805e+07
1.639982e+10 4.812487e+10 1.844931e+08
3.645156e+10 -2.732836e+10 5.924202e+08
-2.652323e+09 4.754179e+10 2.880634e+08
-2.107651e+10 3.972692e+10 3.131475e+08
4.490162e+10 -1.038099e+10 -7.803672e+07
-2.786470e+10 4.226034e+10 -1.576825e+08
-2.879201e+10 4.081791e+10 -8.630361e+08
2.186751e+10 -4.053662e+10 2.814062e+08
-2.162766e+10 -4.085059e+10 2.112081e+09
4.491158e+10 6.752529e+09 7.980391e+08
-7.653099e+09 4.497258e+10 9.511775e+08
3.203103e+10 -3.466371e+10 -3.359383e+08
-1.427863e+10 -4.332370e+10 -7.431180e+08
-3.627770e+10 -2.695235e+10 2.020353e+08
-1.968946e+10 -4.356429e+10 -1.167313e+08
4.696794e+10 -1.052981e+10 8.279544e+08
-1.957518e+10 -4.126174e+10 5.959870e+08
-4.906444e+10 5.470000e+08 1.917974e+07
-2.146269e+10 -4.073593e+10 -3.583604e+08
-2.368669e+10 4.394365e+10 -2.511716e+08
-3.698230e+10 2.523749e+10 7.043616e+08
3.349428e+10 2.962022e+10 -7.191965e+08
3.421689e+10 3.250368e+10 -6.642055e+08
-3.814438e+10 2.790607e+10 6.275070e+08
3.786313e+10 2.685301e+10 -7.011164e+08
-4.149812e+10 2.107760e+10 6.535284e+08
4.425505e+10 -6.190185e+09 1.578533e+09
4.641034e+10 2.363542e+09 1.261856e+09
-4.684198e+10 7.505400e+09 8.042408e+08
2.946826e+10 -3.899122e+10 3.452424e+07
-3.128785e+10 -4.026028e+10 5.514048e+08
-3.847321e+10 -3.446857e+10 -4.566595e+08
-2.557701e+10 3.963408e+10 3.638534e+08
3.869568e+10 -3.295111e+10 5.001056e+08
2.577461e+10 3.505020e+10 -5.371322e+08
1.200119e+10 4.740322e+10 1.445467e+09
1.079135e+10 4.529272e+10 -3.332786e+08
4.310741e+10 -8.233010e+09 -7.844475e+08
-1.139307e+10 4.744631e+10 -1.987335e+09
-1.136069e+10 4.452758e+10 3.380391e+08
-3.126637e+10 3.502301e+10 -8.076078e+08
1.822389e+10 4.575655e+10 -1.052215e+09
-1.703178e+10 4.508820e+10 7.011713e+07
-4.035798e+10 -3.066396e+10 4.661562e+08
3.011311e+10 -3.407481e+10 -2.479715e+08
1.183306e+09 5.063237e+10 1.299622e+08
4.100990e+10 -2.900543e+10 -4.556917e+08
4.267486e+10 -2.053762e+10 -1.076118e+09
4.549908e+10 -7.196869e+09 -9.415760e+08
-4.249897e+10 -2.049598e+10 -1.113852e+09
-4.520195e+10 -1.241792e+10 -7.345386e+08
4.556433e+10 -1.263846e+10 -1.111872e+09
-3.734301e+10 -2.718745e+10 -6.297562e+08
3.557494e+10 -3.512727e+10 3.107904e+08
2.954758e+10 -3.576044e+10 1.429209e+07
-3.339030e+10 -3.819336e+10 -4.570684e+08
2.990952e+09 4.638169e+10 -6.303129e+08
2.243982e+10 4.460726e+10 -6.350395e+08
1.967238e+10 3.962327e+10 3.308635e+08
4.463080e+10 -5.904313e+09 -6.299830e+08
4.510530e+10 1.065482e+09 1.816475e+08
-4.418591e+10 1.228587e+10 2.062739e+08
-3.387392e+10 2.968714e+10 -5.238212e+08
4.581904e+10 8.466492e+09 -2.658926e+09
3.916595e+10 2.384670e+10 9.293060e+08
-4.141557e+10 1.851125e+10 -7.491013e+08
-1.803599e+10 -4.583649e+10 1.417505e+08
-4.532005e+10 3.158107e+09 5.979856e+08
3.855256e+10 -2.780693e+10 -1.820454e+09
5.114884e+10 7.484414e+09 7.051922e+07
4.396393e+10 -6.725369e+09 4.889053e+08
-4.527460e+10 9.069268e+08 2.228667e+08
3.615140e+10 -2.568912e+10 -5.984032e+08
-4.151902e+10 -2.758531e+10 -1.010505e+09
-4.525525e+10 -3.798385e+09 -1.580545e+09
-2.288307e+10 4.336538e+10 -4.770198e+08
4.605050e+10 -3.080205e+09 6.110325e+08
-4.463698e+10 -2.083005e+09 1.925027e+07
-4.080424e+10 -2.066255e+10 5.733680e+08
4.336735e+10 -2.182842e+10 -8.130913e+07
-4.085913e+10 2.817815e+10 -1.405948e+07
4.454298e+10 -5.426163e+09 -4.640343e+08
3.706370e+10 3.313482e+10 2.041978e+07
-4.122685e+10 2.861477e+10 8.433650e+08
3.738394e+10 3.381920e+10 -7.497752e+08
-4.942283e+10 1.260294e+09 3.366296e+08
4.888671e+10 3.816464e+08 5.580311e+07
4.264973e+10 3.045511e+10 -4.095045e+08
-4.258609e+10 2.373842e+10 8.515649e+08
-4.866487e+10 9.631096e+09 5.156566e+08
-5.045078e+10 5.486311e+09 5.761858e+08
2.086443e+10 4.272373e+10 -5.198474e+08
4.424008e+10 -4.970656e+09 -6.562515e+08
-4.955402e+10 7.727513e+09 -6.137217e+08
3.556207e+10 3.738947e+10 1.229284e+08
8.756849e+09 4.462768e+10 -8.939484e+08
5.006313e+10 -3.178940e+09 3.997644e+08
-5.068757e+10 -3.319606e+09 4.528878e+07
-3.749779e+10 3.326490e+10 -1.976901e+08
-4.638491e+10 2.000651e+10 -1.267587e+08
4.733561e+10 8.751606e+09 -7.088209e+06
-4.488059e+10 6.341091e+09 9.324173e+07
4.249789e+10 1.615073e+10 -1.022156e+06
4.418030e+10 -4.915231e+09 -1.739473e+09
4.216034e+10 1.791649e+10 -7.000576e+08
-2.312644e+10 -4.499928e+10 4.147823e+08
2.867732e+10 3.887053e+10 -1.674810e+09
-3.388156e+10 -3.175483e+10 -6.874708e+08
-1.712673e+10 -4.536659e+10 1.159914e+09
4.576652e+10 4.438163e+09 -2.311004e+08
4.490515e+10 4.976372e+09 -4.234923e+08
4.579199e+10 1.970507e+09 -2.194578e+08
-4.901301e+10 1.295366e+10 1.565936e+09
4.815388e+10 1.931930e+10 -1.495295e+09
4.389010e+10 -2.560028e+09 1.921112e+08
4.338723e+10 2.717284e+10 5.237437e+08
4.741494e+10 2.007006e+10 1.718064e+09
-4.476860e+10 1.283639e+10 7.870558e+08
3.955270e+10 2.376839e+10 2.052934e+08
-4.528220e+10 1.062812e+10 -2.846705e+08
-4.456417e+10 9.226068e+09 7.869098e+08
3.722051e+10 2.533706e+10 -9.982123e+08
2.584026e+10 -4.396287e+10 2.919874e+08
-2.715885e+10 -4.492714e+10 -9.394782e+08
4.975164e+10 1.904171e+09 -3.192677e+08
4.531917e+10 -4.491870e+09 -1.417121e+09
-3.439583e+10 -3.493313e+10 4.039057e+07
-4.599376e+10 1.343693e+10 3.357008e+08
3.877490e+10 2.205316e+10 -1.118954e+08
4.319297e+10 1.934196e+10 7.207678e+07
4.258968e+10 1.477875e+10 -2.439667e+08
2.600907e+10 4.635343e+10 -3.683239e+08
3.752318e+10 3.534068e+10 6.434280e+08
-4.659257e+10 3.311797e+10 -1.799522e+08
4.848222e+10 3.708539e+10 7.128662e+08
-5.316491e+10 3.089991e+10 -6.843008e+08
4.455226e+10 -4.941419e+08 -1.832316e+08
-5.075543e+10 1.053969e+10 2.510968e+08
4.969114e+10 8.627175e+09 -8.258966e+08
-4.253374e+10 -1.439813e+10 -4.706393e+08
4.195886e+10 -1.507478e+10 -1.021270e+08
5.049229e+10 6.442936e+09 2.834363e+08
-4.381182e+10 9.272399e+09 6.048015e+08
-4.406308e+10 1.013176e+10 -3.582808e+08
-4.491689e+10 7.864440e+09 6.570930e+08
-4.134261e+10 2.333182e+10 -7.761461e+06
-4.038731e+10 2.354755e+10 -4.908996e+08
4.598652e+10 -3.056175e+09 -1.632444e+09
3.813370e+10 2.893763e+10 8.368460e+07
3.707401e+10 2.834484e+10 4.539431e+08
-4.148917e+10 2.000818e+10 7.439607e+08
-4.110224e+10 2.071851e+10 -7.068489e+07
3.673193e+10 2.483101e+10 -2.780454e+08
3.829015e+10 2.554634e+10 -1.120538e+08
3.417806e+10 -3.113705e+10 6.352699e+08
3.242595e+10 3.214638e+10 -3.443655e+08
-3.739530e+10 2.824689e+10 2.534780e+08
-3.548820e+10 2.941570e+10 -1.260901e+09
4.449731e+10 -1.478057e+09 -1.026858e+09
3.390561e+10 3.118889e+10 -5.788878e+08
-3.771895e+10 2.672938e+10 6.060818e+08
-3.869416e+10 2.389171e+10 1.751224e+08
-3.892160e+10 2.170970e+10 -1.923148e+09
3.530401e+10 2.853674e+10 -1.879515e+08
3.573492e+10 2.653084e+10 1.822749e+09
3.422834e+10 3.047235e+10 -7.833226e+08
-3.777386e+10 2.595790e+10 7.914743e+08