# vtk DataFile Version 2.0
Electric current density generated by TTH
ASCII
DATASET UNSTRUCTURED_GRID
POINTS 1337 double
1.328995e-05 -3.255099e-21 -5.670299e-22
1.039050e-05 8.286148e-06 -5.670299e-22
3.289623e-06 -8.740976e-06 1.638637e-06
-6.646140e-06 -1.011403e-05 2.022023e-06
-8.547202e-06 2.374856e-06 -9.660632e-07
-8.172876e-06 2.863088e-06 1.685258e-08
-7.856233e-06 3.644462e-06 -5.267196e-08
9.205609e-06 6.967705e-06 -2.243720e-06
9.469316e-06 9.151760e-06 -7.384920e-07
-1.584335e-06 8.602737e-06 6.308574e-07
9.967095e-06 8.632174e-06 6.875382e-07
7.014414e-06 -7.834958e-06 -2.269165e-06
1.314122e-05 -6.370884e-07 7.742045e-07
6.625524e-06 7.833217e-06 2.201768e-06
1.313845e-05 7.768258e-07 -7.607165e-07
-7.118818e-06 -4.931045e-06 -1.330288e-08
1.709950e-06 9.364818e-06 1.800527e-06
-5.510553e-06 8.674579e-06 -2.207350e-06
-9.469477e-06 2.842956e-06 -2.043568e-06
3.509181e-06 1.023254e-05 -2.309723e-06
-1.089338e-05 -1.874947e-06 2.313738e-06
3.090889e-07 -9.540231e-06 -1.820909e-06
-1.050398e-05 3.840189e-06 2.305616e-06
1.094203e-05 -3.918821e-06 -2.222612e-06
-8.424234e-06 -9.556297e-06 1.498757e-06
-4.674729e-06 7.457111e-06 7.967632e-07
7.317703e-06 -1.013516e-05 1.741007e-06
-4.451289e-06 1.153120e-05 1.854599e-06
2.211707e-07 -1.316612e-05 -7.415415e-07
-1.201846e-05 5.398492e-06 7.196932e-07
6.574277e-06 1.138794e-05 -7.944049e-07
-5.902907e-06 -7.193664e-06 -1.604027e-06
9.398847e-06 6.604600e-06 2.257642e-06
1.396028e-06 -1.083738e-05 2.314579e-06
-1.249084e-05 4.180612e-06 7.298568e-07
-9.537814e-06 -3.376322e-07 1.819771e-06
6.321767e-07 1.105942e-05 -2.312801e-06
3.573518e-06 1.268643e-05 -7.046043e-07
8.732076e-06 -7.179712e-06 2.291453e-06
1.000669e-05 -7.577386e-06 -1.694845e-06
1.196653e-06 8.649577e-06 -5.735152e-07
-8.760242e-06 7.885957e-06 2.168005e-06
6.082499e-06 -7.370450e-06 1.829438e-06
-8.700825e-06 9.899455e-06 7.060267e-07
5.434399e-06 1.124209e-05 -1.753284e-06
-4.393363e-06 -7.732088e-06 1.012766e-06
7.623158e-06 -6.862289e-06 -2.200921e-06
1.022236e-05 6.407883e-07 2.196155e-06
8.072024e-06 -1.042303e-05 6.948516e-07
-2.704421e-06 -1.228001e-05 1.673759e-06
8.232748e-06 2.887906e-06 -5.437892e-07
-9.346436e-06 6.352055e-06 2.292041e-06
8.638922e-06 6.009569e-07 0.000000e+00
-6.142552e-06 -6.452320e-06 -1.044096e-06
-6.458756e-06 -1.091949e-05 1.558668e-06
-3.269283e-06 -1.273556e-05 -7.968540e-07
4.377159e-06 8.215796e-06 1.607693e-06
9.144597e-06 -6.495724e-06 2.302393e-06
-8.285359e-06 4.032719e-06 1.503738e-06
7.694452e-06 5.744093e-06 -1.864109e-06
2.405685e-06 8.336302e-06 2.773890e-07
-3.518674e-06 -1.272386e-05 6.340602e-07
-1.242793e-06 9.530956e-06 1.871142e-06
7.220359e-06 1.023727e-05 -1.717348e-06
7.245530e-06 -6.244653e-06 -1.836421e-06
-1.167698e-05 -6.171464e-06 -6.122284e-07
9.461359e-06 -1.885417e-06 -1.896670e-06
-1.107299e-05 1.041667e-06 2.310403e-06
8.379395e-06 5.778040e-06 -2.173757e-06
-3.413338e-07 1.317640e-05 -7.024163e-07
1.159372e-05 -5.132254e-06 -1.567125e-06
-1.232885e-06 -1.178949e-05 2.141751e-06
-6.574854e-06 9.286929e-06 -2.279576e-06
-1.853189e-06 9.210774e-06 -1.692539e-06
-8.752346e-06 -9.035585e-06 -1.668698e-06
-8.631900e-06 -1.889365e-06 -8.864995e-07
-4.879590e-06 7.364598e-06 -8.821587e-07
5.033783e-06 -9.671103e-06 2.313951e-06
-4.273524e-06 9.501285e-06 2.247134e-06
-2.519553e-06 -8.805031e-06 -1.435298e-06
8.630865e-06 -8.140383e-06 2.137473e-06
9.613566e-06 -4.676506e-06 -2.297564e-06
9.013346e-06 -5.735997e-06 2.296695e-06
-1.230410e-05 2.161021e-06 -1.748312e-06
-7.591299e-06 -9.925161e-06 -1.745674e-06
-1.254083e-05 -8.675710e-07 -1.677075e-06
-1.259081e-05 6.504802e-07 -1.641277e-06
1.529240e-06 -1.311472e-05 -6.264592e-07
1.118508e-05 7.028053e-06 -6.037766e-07
4.339032e-06 1.200966e-05 -1.462540e-06
-6.686515e-06 5.510312e-06 -1.469690e-07
-6.769166e-06 5.504918e-06 5.455876e-07
1.298928e-05 2.143606e-06 -7.503735e-07
1.295720e-05 -2.210959e-06 8.076909e-07
-1.298412e-05 -2.232858e-06 7.213094e-07
-6.831905e-06 -8.866379e-06 -2.304758e-06
1.271768e-05 -7.190996e-07 -1.500323e-06
1.313949e-05 9.230265e-07 7.299199e-07
-3.160221e-06 9.257199e-06 -1.983946e-06
-7.863769e-06 1.057700e-05 -7.050519e-07
1.605070e-06 -1.147912e-05 -2.231640e-06
1.088886e-05 5.126644e-06 2.057903e-06
2.872103e-06 1.216375e-05 -1.743257e-06
6.542310e-06 9.418990e-06 2.261907e-06
1.039564e-06 -1.194666e-05 2.079767e-06
8.712380e-06 -3.949215e-06 -1.836761e-06
7.848610e-06 -9.537765e-06 1.861008e-06
8.846839e-06 -3.181465e-06 -1.698258e-06
-4.362333e-06 -1.006790e-05 2.315074e-06
-2.003832e-06 -1.299940e-05 7.846234e-07
-7.134288e-06 4.909053e-06 3.562478e-08
-8.944382e-06 2.745973e-06 1.655336e-06
9.742223e-06 9.039462e-06 -5.670299e-22
1.601189e-06 8.513995e-06 1.263787e-07
2.456225e-06 -1.298146e-05 5.964821e-07
8.581681e-06 -1.000330e-05 -7.051197e-07
-5.408319e-07 -8.643913e-06 6.861095e-08
-4.970044e-06 -1.217656e-05 -7.877483e-07
3.405276e-06 8.028119e-06 5.265321e-07
7.714453e-06 6.528732e-06 2.145958e-06
7.144084e-06 7.114137e-06 2.136010e-06
-6.691339e-06 8.957102e-06 2.305925e-06
-6.673405e-06 5.821924e-06 -9.327594e-07
8.333754e-07 1.060712e-05 2.290700e-06
2.862385e-06 -8.180225e-06 -1.768491e-07
1.211872e-05 5.762018e-07 2.004914e-06
1.124774e-05 -5.741223e-06 1.620445e-06
-2.353098e-07 1.130102e-05 -2.291637e-06
-1.241757e-05 -2.304072e-06 -1.619175e-06
-1.190382e-05 2.802597e-06 -1.945769e-06
-7.795911e-06 -7.661569e-06 -2.314650e-06
-6.362062e-06 1.087225e-05 -1.651862e-06
1.073991e-05 -6.327366e-06 1.771580e-06
3.657002e-06 1.044909e-05 2.313098e-06
-5.543090e-06 1.132387e-05 1.641107e-06
-6.745483e-06 -5.617663e-06 -7.313789e-07
-2.240661e-06 -9.221642e-06 1.776116e-06
2.520980e-06 -1.070558e-05 -2.314956e-06
8.537900e-06 1.998749e-06 7.018031e-07
-1.158070e-05 4.724487e-06 1.735262e-06
2.489327e-06 1.296576e-05 6.300440e-07
-7.335605e-06 -8.570031e-06 2.294773e-06
-2.170472e-06 -1.019332e-05 -2.248049e-06
4.545920e-06 1.162462e-05 1.757418e-06
-1.220015e-05 3.174519e-06 1.642466e-06
-1.291069e-05 2.690992e-06 -6.789671e-07
-9.082006e-06 -4.929583e-06 2.224491e-06
1.308837e-05 -1.617609e-06 -6.795987e-07
1.768127e-06 -8.890434e-06 -1.307762e-06
1.127128e-05 -3.558983e-06 2.155377e-06
-1.047270e-05 7.104043e-06 1.592894e-06
4.447365e-06 -1.241852e-05 -6.700687e-07
-4.259657e-06 8.406296e-06 1.718764e-06
-1.682641e-07 8.658826e-06 -5.536866e-08
-3.052612e-06 9.355466e-06 2.018332e-06
-7.441506e-06 5.891077e-06 -1.777065e-06
-4.213015e-06 7.626227e-06 -4.914676e-07
1.126751e-05 -4.498748e-06 -2.004914e-06
-1.022625e-06 -9.469788e-06 -1.804712e-06
-5.651958e-06 -1.108587e-05 1.789598e-06
1.149970e-05 5.344786e-06 1.564744e-06
-3.015604e-06 -1.037410e-05 -2.308724e-06
5.011906e-06 -7.117482e-06 -4.554482e-07
4.770180e-06 7.986470e-06 -1.600957e-06
-5.289332e-06 6.906988e-06 -4.275810e-07
2.554928e-07 1.007371e-05 2.133847e-06
9.278495e-06 7.605184e-07 -1.608251e-06
-4.941807e-07 -1.320726e-05 5.785275e-07
5.117275e-06 -7.779775e-06 1.610614e-06
8.516973e-06 -5.287848e-06 -2.111224e-06
9.213512e-06 -5.364047e-06 -2.293731e-06
7.543516e-06 -8.170013e-06 2.310524e-06
-1.031052e-05 5.969466e-06 -2.116077e-06
6.756168e-06 -1.051265e-05 -1.744801e-06
-9.922143e-06 -3.778859e-06 2.287306e-06
-9.754384e-06 8.845450e-06 -7.421679e-07
2.368360e-06 8.970366e-06 -1.574590e-06
8.797206e-06 6.468797e-07 8.486549e-07
1.130533e-05 2.996468e-06 2.199999e-06
-8.861562e-06 -2.420621e-06 -1.469795e-06
-9.371458e-06 8.145342e-06 -1.811390e-06
-2.893534e-08 -1.120453e-05 2.303652e-06
-9.579386e-06 -5.487627e-06 -2.314163e-06
4.680223e-07 9.030510e-06 1.275150e-06
8.988807e-06 -8.936182e-06 -1.571422e-06
1.207489e-05 5.343370e-06 -6.237602e-07
-1.012139e-05 1.330245e-06 -2.184521e-06
8.382419e-06 -4.684652e-06 1.864559e-06
1.980032e-06 1.239264e-05 1.696793e-06
-1.775348e-07 -1.076399e-05 -2.305584e-06
1.224177e-05 -3.899399e-06 1.360767e-06
-2.728615e-06 -8.333718e-06 -7.027823e-07
-6.413578e-06 1.081448e-05 1.674729e-06
-9.151517e-06 1.803128e-07 1.428782e-06
7.167513e-06 1.055001e-05 1.480770e-06
-7.985586e-06 8.263001e-06 -2.256773e-06
7.896070e-06 8.728950e-06 2.174098e-06
-1.073373e-05 -7.618602e-06 -7.570372e-07
6.355128e-06 1.087565e-05 -1.652416e-06
1.210508e-05 4.100818e-06 1.448479e-06
3.875809e-06 -9.605435e-06 -2.231351e-06
1.224177e-05 3.899399e-06 -1.360767e-06
-4.295106e-06 8.398829e-06 -1.727225e-06
-8.058910e-06 7.134772e-06 2.305397e-06
7.917493e-06 1.057081e-05 6.136252e-07
-8.995318e-06 1.676596e-06 -1.424868e-06
-4.328285e-06 -8.809076e-06 -2.003553e-06
-5.468409e-07 1.261839e-05 1.618445e-06
-4.919361e-06 1.087975e-05 -2.104200e-06
-2.409617e-06 -1.115699e-05 2.273003e-06
1.063769e-05 -7.850972e-06 5.602924e-07
2.338427e-06 1.084053e-05 2.312217e-06
-8.997541e-06 2.410884e-06 -1.613750e-06
-8.132004e-06 -6.304298e-06 2.211295e-06
9.240039e-06 -6.655789e-06 -2.277985e-06
-4.906131e-06 -9.095344e-06 2.224656e-06
3.556736e-06 -9.395639e-06 2.120695e-06
-1.059885e-05 7.902386e-06 -5.625518e-07
1.190341e-05 4.540605e-06 -1.497932e-06
1.950151e-06 1.022925e-05 -2.245978e-06
9.091318e-07 -8.729824e-06 -7.273756e-07
5.860909e-06 -1.138734e-05 -1.415108e-06
-6.702843e-07 -9.172356e-06 1.482591e-06
9.039462e-06 9.742223e-06 -5.670299e-22
5.070514e-06 8.683822e-06 -2.124819e-06
-9.676942e-06 5.020402e-06 2.313920e-06
1.006144e-05 6.793578e-06 2.000376e-06
7.128972e-06 -5.708900e-06 -1.402675e-06
-7.117112e-06 6.203483e-06 1.734201e-06
1.017714e-05 1.999948e-06 2.235143e-06
-1.158880e-05 -6.269419e-06 7.174966e-07
8.643137e-06 6.506599e-06 -2.309787e-06
-1.314068e-05 1.480597e-06 -5.493391e-07
9.909093e-06 5.602034e-06 -2.278815e-06
1.223777e-05 -1.661127e-06 -1.862422e-06
7.856850e-06 -3.641707e-06 0.000000e+00
9.410518e-06 -5.362856e-07 1.720436e-06
8.042037e-06 -3.483439e-06 -6.869234e-07
-8.619861e-06 -1.002092e-05 -5.718887e-07
-4.944093e-06 1.221065e-05 7.246680e-07
1.025359e-06 -1.057570e-05 -2.288529e-06
8.265026e-06 7.883937e-06 -2.271444e-06
6.227565e-06 -6.209161e-06 -7.770534e-07
8.412266e-06 -6.685436e-06 -2.303663e-06
[...]
POINT_DATA 1337
VECTORS 10.000GHz_fone_imag double
-7.174973e-04 -1.135987e-04 2.617437e-02
2.610836e-04 4.769405e-04 2.758136e-02
-1.836241e-02 5.519265e-02 -6.312005e-02
1.808084e-02 2.792141e-02 1.502510e-02
-3.763019e-02 9.608315e-03 -8.844316e-02
3.179738e-03 -2.391171e-03 -9.326547e-02
-2.799859e-03 1.395259e-03 -1.010392e-01
3.399350e-02 2.756774e-02 1.056509e-02
4.969894e-03 5.038402e-03 2.523042e-02
2.734957e-03 -1.729101e-02 -9.051517e-02
-7.227274e-03 -6.722845e-03 2.696046e-02
3.679410e-02 -4.593712e-02 -1.566865e-02
-1.077678e-02 -2.332577e-04 2.745182e-02
-3.481867e-02 -4.577485e-02 -2.114869e-02
1.067688e-02 6.652376e-04 2.576832e-02
-1.663246e-03 -4.646417e-03 -9.313208e-02
-1.248474e-02 -5.496178e-02 -4.761486e-02
-3.266918e-02 5.344302e-02 -2.194825e-02
-5.435042e-02 1.802966e-02 -3.588228e-02
1.523416e-02 4.823459e-02 -7.487445e-03
4.873842e-02 6.734168e-03 -3.851841e-03
3.009520e-03 -5.476876e-02 -5.003341e-02
4.498874e-02 -1.361138e-02 2.002482e-03
4.130982e-02 -1.526034e-02 9.997535e-03
1.461602e-02 1.549070e-02 2.268248e-02
1.856403e-02 -2.451406e-02 -8.716823e-02
-1.641438e-02 2.329489e-02 2.266678e-02
1.002436e-02 -2.617818e-02 1.908818e-02
1.366313e-04 -1.094082e-02 2.763853e-02
1.008070e-02 -4.582810e-03 2.535340e-02
5.955669e-03 9.926254e-03 2.741087e-02
-3.339723e-02 -3.845099e-02 -5.892090e-02
-3.462354e-02 -2.565223e-02 7.385800e-03
-9.164135e-03 5.034505e-02 -2.953948e-03
9.433280e-03 -2.623245e-03 2.501097e-02
6.125445e-02 1.647600e-03 -5.221693e-02
5.403383e-03 4.964329e-02 -4.039215e-03
1.536968e-03 9.895587e-03 2.571982e-02
-3.950703e-02 3.107526e-02 2.496713e-03
1.987828e-02 -1.596069e-02 2.335981e-02
-1.388426e-03 1.700092e-02 -9.652109e-02
3.070539e-02 -2.881583e-02 1.277243e-02
-3.839241e-02 4.110553e-02 -4.999124e-02
7.208991e-03 -6.809973e-03 2.700660e-02
1.244028e-02 2.262224e-02 2.168247e-02
2.007849e-02 3.482559e-02 -8.816838e-02
4.182765e-02 -3.628534e-02 -2.304017e-02
-6.060869e-02 -2.723758e-03 -2.138888e-02
-6.310647e-03 7.043079e-03 2.601114e-02
5.648028e-03 2.616650e-02 2.201340e-02
1.884578e-02 9.726905e-03 -9.945763e-02
3.869492e-02 -2.615081e-02 1.539246e-03
-2.884530e-05 2.987936e-03 -1.003796e-01
-2.927072e-02 -3.086214e-02 -8.627091e-02
1.178635e-02 2.140276e-02 2.372491e-02
-2.127142e-03 -1.023394e-02 2.781389e-02
-2.117393e-02 -4.630492e-02 -5.910993e-02
-4.183537e-02 2.828849e-02 2.563243e-03
4.374129e-02 -2.046265e-02 -6.173915e-02
4.747577e-02 3.640033e-02 -4.644602e-02
-1.052320e-03 -7.068825e-03 -9.178725e-02
1.450279e-03 8.240658e-03 2.788243e-02
9.447345e-03 -6.176799e-02 -4.844557e-02
1.327486e-02 2.061681e-02 1.966538e-02
4.249080e-02 -3.999511e-02 -4.748774e-02
-7.012012e-03 -4.684458e-03 2.749589e-02
5.319254e-02 -8.080448e-03 -4.325695e-02
4.982435e-02 -5.666299e-03 1.545560e-03
4.815219e-02 3.453117e-02 -2.518587e-02
-3.817328e-04 8.629062e-03 2.753153e-02
2.172515e-02 -8.093375e-03 2.200788e-02
4.881648e-03 4.100552e-02 1.504848e-02
-2.640823e-02 3.596049e-02 5.064405e-03
-1.096737e-02 5.937199e-02 -5.765975e-02
-1.820643e-02 -1.902711e-02 2.374345e-02
-3.665692e-02 -7.277298e-03 -9.082608e-02
-2.204663e-02 3.033641e-02 -8.397226e-02
-2.237836e-02 4.282688e-02 -5.959970e-03
2.142263e-02 -4.907298e-02 -1.796193e-02
-1.794358e-02 -4.886010e-02 -6.523367e-02
-3.114539e-02 2.783575e-02 1.257964e-02
4.695077e-02 -2.310603e-02 -1.023942e-02
-4.891375e-02 3.099354e-02 -1.104554e-02
-2.733971e-02 4.381976e-03 2.228310e-02
-1.754150e-02 -2.280423e-02 2.196642e-02
-2.632837e-02 -2.358310e-03 2.336090e-02
-2.466979e-02 3.138422e-03 2.197289e-02
1.354849e-03 -9.009968e-03 2.706197e-02
5.720975e-03 3.947957e-03 2.556459e-02
5.781365e-03 2.011803e-02 2.393715e-02
-6.697755e-03 4.853718e-03 -1.028115e-01
1.978522e-02 -1.507627e-02 -9.467278e-02
9.707067e-03 2.185318e-03 2.645219e-02
-9.940426e-03 1.412749e-03 2.801071e-02
1.046093e-02 2.091158e-03 2.809240e-02
-3.069215e-02 -3.991075e-02 2.768942e-03
2.203590e-02 -1.884554e-03 2.246313e-02
-9.841725e-03 1.365088e-04 2.793871e-02
-1.789689e-02 5.801854e-02 -3.828965e-02
-6.077006e-03 6.273433e-03 2.586888e-02
5.880345e-03 -4.479873e-02 8.819153e-03
-3.523631e-02 -1.596544e-02 1.367537e-02
6.532064e-03 2.708219e-02 2.243159e-02
-2.739220e-02 -3.944442e-02 7.639426e-03
-2.402199e-03 3.875373e-02 1.561724e-02
5.788215e-02 -2.572487e-02 -5.149536e-02
-1.987461e-02 2.511620e-02 1.937734e-02
5.802022e-02 -1.958308e-02 -6.004612e-02
1.823483e-02 4.466406e-02 -3.838333e-03
2.666242e-03 1.054439e-02 2.791425e-02
2.185666e-03 1.201211e-04 -1.049631e-01
5.304825e-02 -1.318427e-02 -5.448363e-02
7.022949e-04 -6.030953e-04 2.732691e-02
-1.985753e-03 -8.522623e-03 -9.295113e-02
-1.493372e-03 6.957414e-03 2.532754e-02
5.782331e-03 -6.730198e-03 2.823659e-02
-1.774438e-03 8.720141e-04 -1.035812e-01
-4.668813e-03 -1.050941e-02 2.734243e-02
-1.167819e-02 -1.822141e-02 -9.756043e-02
-4.327835e-02 -4.095926e-02 -2.977261e-02
-4.362486e-02 -3.926150e-02 -3.015736e-02
2.771644e-02 -4.044415e-02 2.912820e-03
-2.562635e-02 2.265359e-02 -8.254935e-02
-2.465373e-03 -5.385963e-02 -1.051770e-02
1.644159e-03 -5.183083e-03 -9.698202e-02
-3.416437e-02 -2.953652e-03 1.713466e-02
-2.190523e-02 1.088059e-02 2.206498e-02
-2.230090e-03 4.733381e-02 6.871827e-04
-2.446337e-02 -4.228569e-03 2.429552e-02
-3.242589e-02 7.392335e-03 1.928573e-02
-3.873219e-02 -3.827745e-02 -3.069592e-03
-1.377118e-02 2.210129e-02 2.370814e-02
-2.332216e-02 1.537131e-02 2.014334e-02
-1.616551e-02 -4.962976e-02 -2.785164e-03
9.989237e-03 -2.149168e-02 2.211907e-02
-1.625429e-02 -1.491027e-02 -8.919495e-02
1.133073e-02 5.796773e-02 -4.778968e-02
1.195339e-02 -5.180441e-02 -2.529838e-03
-2.096439e-02 -3.197070e-03 -8.965890e-02
2.497198e-02 -1.034771e-02 2.257937e-02
-8.531442e-04 -9.227351e-03 2.779592e-02
3.232207e-02 3.796148e-02 4.595067e-03
-1.164046e-02 -5.402590e-02 -1.596075e-02
-1.000459e-02 -2.423437e-02 2.002573e-02
2.449630e-02 -7.808449e-03 2.319153e-02
-7.723354e-03 1.624253e-03 2.536501e-02
4.887725e-02 2.609753e-02 -1.831038e-02
6.571994e-03 -1.770772e-03 2.682165e-02
1.119084e-02 -5.178047e-02 -7.080435e-02
-3.404304e-02 1.086398e-02 1.303169e-02
1.773477e-02 -1.160666e-02 2.241429e-02
2.007438e-03 -6.919370e-03 2.616505e-02
2.932941e-02 -5.356407e-02 -5.753109e-02
-3.723902e-04 2.943480e-03 -1.027790e-01
1.902617e-02 -6.108848e-02 -3.792960e-02
-4.784913e-02 3.892735e-02 -5.423821e-02
-9.818492e-03 1.607543e-02 -1.004339e-01
3.179472e-02 -1.275031e-02 1.919694e-02
-9.497341e-03 -5.962623e-02 -5.168552e-02
1.250686e-02 2.439124e-02 2.180675e-02
-2.199511e-02 -1.034246e-02 2.400809e-02
-1.525360e-02 -5.435203e-02 -5.757404e-03
7.787948e-03 -1.618458e-02 -9.691616e-02
2.797826e-02 5.037665e-02 -6.536669e-02
-1.186054e-02 1.401965e-02 -1.022906e-01
-1.513472e-03 -6.351730e-02 -2.915912e-02
5.405393e-02 4.798444e-03 -6.688440e-02
1.142675e-03 8.793529e-03 2.772684e-02
-3.020196e-02 4.821703e-02 -6.238741e-02
5.302934e-02 -2.935524e-02 -2.837809e-02
4.635942e-02 -2.871232e-02 -1.261315e-02
-3.209282e-02 3.781153e-02 1.046428e-03
-3.414457e-02 1.952471e-02 1.480789e-02
1.387083e-02 -2.221552e-02 2.099430e-02
5.542042e-02 1.873684e-02 -1.357951e-02
-6.218825e-03 5.575449e-03 2.670168e-02
1.106968e-02 4.738340e-02 -6.249960e-02
-3.241648e-02 -2.372025e-03 -8.551985e-02
-3.926714e-02 -9.618530e-03 1.131136e-02
-4.766090e-02 -1.130978e-02 -6.512841e-02
-2.080984e-02 1.904853e-02 2.011251e-02
-5.673865e-05 5.011455e-02 1.594702e-04
-4.594437e-02 -2.743380e-02 -2.119617e-03
-3.203152e-03 -4.282441e-02 -7.290261e-02
1.635981e-02 -1.442440e-02 2.221444e-02
7.222226e-03 3.655785e-03 2.832780e-02
-6.301272e-02 8.809796e-03 -2.410345e-02
-4.983100e-02 3.260158e-02 -4.990379e-02
-4.964792e-03 -2.520561e-02 2.202172e-02
-8.980796e-04 -5.661643e-02 -7.006672e-03
-1.878618e-02 5.496262e-03 2.433614e-02
-8.551750e-03 -2.842588e-02 -9.534079e-02
1.120184e-02 -1.855426e-02 2.298793e-02
4.561329e-02 -3.953032e-03 -7.083919e-02
-1.139860e-02 -1.850016e-02 2.322480e-02
-3.136948e-02 3.445139e-02 8.566367e-03
-2.498873e-02 -2.902753e-02 1.350908e-02
-8.471599e-03 -4.572224e-03 2.730649e-02
1.109751e-02 1.906833e-02 2.107875e-02
-1.885330e-02 -6.238450e-03 2.288536e-02
1.909025e-02 -5.557195e-02 -2.077616e-02
1.905183e-02 7.383773e-03 2.272848e-02
-2.367182e-02 4.570525e-02 -5.202118e-02
3.906716e-02 -3.370239e-02 -6.692878e-03
-5.005312e-03 -4.605600e-03 2.697378e-02
-4.691585e-02 1.319676e-02 -6.592128e-02
-2.506655e-02 -5.634957e-02 -4.209534e-02
5.552068e-04 -2.481841e-02 2.382844e-02
-1.395212e-02 3.197506e-02 1.288070e-02
1.104194e-02 4.776374e-02 5.622830e-03
-6.810290e-03 2.907169e-03 2.647695e-02
-9.472533e-03 -4.961793e-02 1.466817e-03
-4.940000e-02 1.642766e-02 -5.964814e-02
4.966922e-02 3.809156e-02 -2.098758e-02
3.826430e-02 -2.508112e-02 3.639888e-03
2.462778e-02 4.815718e-02 -2.024528e-02
-2.027375e-02 5.648636e-02 -2.737979e-02
-4.502934e-03 4.469078e-03 2.575913e-02
2.078262e-02 7.424306e-03 2.478693e-02
1.301328e-02 5.481730e-02 -1.890579e-02
1.497095e-03 -2.864523e-02 -9.605265e-02
9.711184e-03 -1.670928e-02 2.349560e-02
4.173782e-03 5.185770e-02 -6.112064e-02
-7.138758e-04 7.736198e-04 2.586315e-02
2.822187e-02 5.032693e-02 -2.740202e-02
4.754847e-02 -2.421682e-02 -2.758696e-03
-2.977638e-02 -1.841433e-02 1.766679e-02
4.057947e-02 -3.266864e-02 -7.173563e-02
4.439019e-02 -3.766925e-02 -5.926789e-02
-5.922800e-02 -1.196159e-02 -2.161810e-02
7.809791e-03 4.662467e-03 2.480006e-02
4.500004e-02 3.361122e-02 -8.235093e-03
-8.067144e-03 7.192032e-04 2.737668e-02
3.898359e-02 2.044249e-02 7.080600e-03
3.106519e-02 -3.681312e-03 1.917566e-02
-1.184578e-03 2.857371e-05 -1.014375e-01
-6.093978e-02 6.242782e-03 -5.100480e-02
2.014173e-02 -7.952923e-03 -8.529463e-02
-3.268645e-03 -6.213566e-03 2.639496e-02
3.496164e-03 -9.773604e-03 2.805615e-02
5.120595e-03 -5.276791e-02 -7.733091e-03
3.065771e-02 3.046616e-02 6.516730e-03
2.043589e-02 -2.017085e-02 -9.377331e-02
4.409878e-02 -3.253971e-02 -7.383489e-03
-2.353036e-02 -5.485968e-03 2.479448e-02
1.660366e-02 -3.745860e-02 1.415980e-02
1.322880e-03 6.215073e-02 -4.470175e-02
-4.136680e-02 -2.850523e-02 -7.635481e-02
3.120574e-03 9.186967e-03 2.747933e-02
4.834299e-02 1.456090e-02 -5.169167e-03
4.193567e-02 1.220434e-02 1.157699e-02
-3.250515e-03 -6.822941e-03 2.786083e-02
3.751211e-02 -1.268869e-02 9.460503e-03
1.000662e-03 2.895771e-02 2.224177e-02
3.257542e-04 -4.581069e-02 4.385427e-03
-2.287947e-02 -2.055983e-02 2.089402e-02
5.249826e-02 2.327613e-02 -5.704781e-02
-3.164355e-02 5.466214e-02 -3.139862e-02
-8.236297e-03 -4.890027e-02 4.436243e-03
-7.531076e-03 3.850404e-03 2.853912e-02
5.459436e-02 -7.406407e-03 -4.483429e-02
1.940182e-02 1.356405e-02 2.469847e-02
-1.318934e-02 2.989068e-02 2.036963e-02
-1.234267e-03 2.478595e-02 2.142051e-02
5.474925e-03 8.082513e-03 2.721070e-02
7.582264e-03 -4.179212e-03 2.744330e-02
1.902931e-03 -1.040585e-02 2.511028e-02
-1.679458e-02 4.859969e-02 3.281235e-03
2.606163e-02 -5.222660e-02 -2.177201e-02
3.769177e-02 -2.702729e-03 -8.816746e-02
-1.374132e-02 1.543011e-02 2.563493e-02
1.030285e-02 -1.494080e-02 -8.787446e-02
-3.837283e-03 -6.828155e-03 2.764661e-02
-3.546247e-02 3.978268e-02 -7.045525e-02
-3.523688e-02 -2.876616e-02 -7.996286e-02
-4.532110e-02 1.694011e-02 -7.132724e-02
3.070531e-02 -2.313433e-02 1.610484e-02
2.542369e-02 3.741246e-02 9.290890e-03
7.466155e-03 -2.090268e-02 -9.337806e-02
4.829738e-02 -4.057332e-02 -3.134077e-02
-4.851713e-02 3.535924e-03 5.865523e-04
-4.524472e-03 8.757607e-03 2.509645e-02
-5.450297e-03 -2.467771e-03 -1.013583e-01
-6.655435e-03 4.609512e-03 2.754736e-02
-5.539087e-03 -5.918612e-03 2.712763e-02
-1.779528e-03 -7.637154e-03 2.711285e-02
5.900669e-02 -5.639693e-03 -5.777023e-02
1.641354e-02 -1.691781e-02 2.300968e-02
3.046826e-02 -3.353912e-02 8.951103e-03
4.765954e-02 -1.751762e-02 -6.804492e-02
-6.039673e-02 1.689671e-02 -2.581759e-02
-5.129631e-02 1.316139e-02 -6.334998e-03
-3.180041e-02 5.641016e-03 1.657728e-02
-2.806830e-02 -4.869822e-02 -5.609122e-03
-3.038588e-02 2.578702e-02 1.022733e-02
2.257768e-02 2.097298e-03 2.471552e-02
-2.343496e-02 3.610866e-03 2.396561e-02
-2.359582e-02 -2.872783e-02 1.111171e-02
1.539046e-02 -8.100304e-04 -9.647071e-02
6.874477e-03 -1.169082e-02 -9.816044e-02
-5.770772e-02 -1.554026e-02 -5.615337e-02
-2.773946e-02 -1.343104e-02 -8.274800e-02
-7.884725e-03 2.270626e-03 2.794904e-02
5.064240e-03 6.861080e-03 2.642759e-02
4.063721e-02 7.237850e-03 -8.248913e-02
-4.811164e-03 6.280038e-03 2.570139e-02
2.309392e-02 -3.938173e-02 7.250631e-03
-6.481441e-03 -2.673818e-02 2.290678e-02
-1.141130e-03 9.597440e-03 2.671359e-02
3.740732e-02 9.164274e-03 1.480080e-02
8.143278e-03 -3.251799e-03 2.781254e-02
-1.251990e-02 1.595185e-02 2.624889e-02
-4.992335e-02 -9.474268e-03 3.333962e-03
-5.429773e-02 -1.077039e-02 -4.417025e-02
-3.014979e-02 -2.129843e-02 1.596384e-02
-5.332963e-03 2.098411e-02 2.385740e-02
3.221889e-02 -3.219275e-02 8.564640e-03
3.044624e-02 -4.446523e-02 -4.741852e-02
-6.133697e-02 -4.574964e-03 -4.885168e-02
1.924763e-02 8.996038e-03 2.527771e-02
-1.418560e-03 6.900821e-03 2.547708e-02
5.472044e-02 2.933755e-02 -4.638994e-02
1.108691e-02 -1.632267e-02 2.457874e-02
4.704868e-03 -6.259975e-02 -2.489030e-02
6.163740e-04 4.124320e-02 1.324829e-02
-1.003740e-02 -4.417971e-03 2.841444e-02
-1.005823e-02 4.671129e-02 7.084088e-03
-1.451265e-02 -1.538935e-02 2.474213e-02
5.905374e-02 -1.566729e-02 -1.963948e-02
-1.442694e-03 -1.952293e-02 2.348796e-02
-2.416694e-02 5.731011e-02 -4.768036e-02
-6.174754e-02 1.316127e-03 -4.262681e-02
-1.959894e-02 -4.043538e-02 -8.151032e-02
-5.993578e-03 -5.675674e-03 2.705433e-02
4.428093e-04 4.412667e-04 2.594324e-02
8.928557e-03 -5.046636e-02 -1.261537e-02
2.158918e-02 2.705305e-02 -7.944729e-02
3.994764e-02 1.646445e-02 -8.263578e-02
5.026619e-03 -3.403468e-02 1.878404e-02
-2.506068e-03 2.007102e-02 2.528489e-02
5.498691e-03 6.104261e-03 2.777830e-02
-5.169141e-03 2.961489e-02 -9.434362e-02
4.323417e-02 2.487343e-02 -7.405648e-02
-3.867655e-02 -3.053973e-02 8.916439e-04
5.523759e-03 -7.392050e-03 2.781259e-02
-1.088670e-02 -1.079727e-02 -9.407842e-02
2.543987e-02 5.551463e-02 -2.381997e-02
7.004095e-03 -2.248009e-02 2.401224e-02
3.195516e-02 4.445762e-02 -1.759935e-02
-1.062947e-02 -2.177422e-02 2.306531e-02
2.074042e-02 -3.046406e-02 1.485193e-02
2.521481e-02 2.483910e-02 -9.068582e-02
1.856425e-02 2.291868e-03 2.507768e-02
-2.065742e-02 -4.078726e-04 2.503555e-02
4.077423e-02 -1.838019e-02 1.084081e-02
-1.522931e-02 -3.873680e-02 1.299936e-02
-2.328155e-02 1.371321e-02 -8.472714e-02
-1.199989e-02 5.441358e-02 -9.354438e-03
3.771554e-02 1.962589e-03 1.448386e-02
-4.113702e-02 -4.492861e-02 -1.978374e-02
3.816069e-02 1.668755e-02 1.120951e-02
1.502040e-02 -1.201527e-02 2.289395e-02
3.169726e-02 6.375128e-03 1.592424e-02
1.627700e-02 3.296724e-02 -7.771659e-02
-2.068926e-02 -5.358934e-02 -5.947647e-02
-4.743377e-03 8.040825e-03 2.550456e-02
1.606374e-02 4.303171e-02 -7.927044e-02
-7.919662e-03 3.104362e-04 2.791591e-02
4.941305e-02 -2.246428e-02 -7.354946e-03
-2.797542e-02 -3.979044e-03 1.930388e-02
-3.452447e-02 4.944504e-02 -3.950289e-02
-8.411385e-03 -5.975823e-04 2.632331e-02
-5.473498e-02 3.068684e-02 -3.378263e-02
9.410800e-03 -2.292946e-02 1.998174e-02
5.322453e-02 -3.463034e-02 -3.272540e-02
-4.228765e-02 -1.096459e-02 -8.138658e-02
6.623708e-03 -5.490648e-03 -1.018577e-01
-3.764155e-02 3.887464e-02 -1.152000e-02
3.797039e-02 2.863729e-02 3.843838e-03
-2.015802e-02 -5.020126e-02 -6.780540e-03
3.041082e-02 -4.672456e-02 -3.270840e-03
-2.959308e-02 -4.603657e-02 -5.710778e-03
5.776736e-02 1.579488e-02 -3.781583e-02
-5.306096e-04 -3.270581e-06 2.887824e-02
1.250391e-02 4.716144e-02 5.712953e-04
-4.464088e-02 2.288835e-02 1.348933e-03
-3.555273e-02 -3.008851e-02 1.142615e-03
-5.320484e-02 -4.855428e-04 4.307665e-04
1.275150e-02 -4.353158e-02 4.883409e-03
-1.233996e-02 -4.703662e-02 2.986628e-03
-4.444555e-02 -1.048655e-02 3.085988e-03
3.524585e-02 4.131453e-02 -3.889289e-02
-1.770551e-03 -1.941535e-03 -9.042021e-02
3.065474e-03 6.371458e-03 -1.023624e-01
6.903270e-04 -4.329594e-04 2.853681e-02
-9.140778e-03 -5.226513e-02 1.270984e-03
3.797255e-02 -8.264585e-03 1.231826e-02
4.182179e-02 -5.725025e-03 9.427258e-03
4.640395e-02 1.039490e-02 7.947547e-03
2.317378e-03 8.519880e-05 -9.251066e-02
-4.022914e-02 1.258252e-02 8.662641e-03
-1.783816e-02 -3.113598e-02 -9.199063e-02
2.211102e-03 4.320850e-02 1.222301e-02
-3.786671e-02 -2.004775e-02 1.209782e-02
2.585577e-02 2.838587e-02 1.070532e-02
-6.029536e-04 -1.536997e-04 2.722396e-02
-9.200149e-03 4.096706e-02 7.621745e-03
-1.823833e-02 4.284144e-02 8.414611e-03
-3.063100e-02 -2.494181e-02 1.095326e-02
-2.402716e-02 3.001399e-02 9.780837e-03
1.213690e-03 4.211499e-02 1.462738e-02
2.175224e-03 8.126729e-04 -1.009927e-01
3.263739e-02 1.042550e-02 -8.165487e-02
2.357737e-02 -1.255609e-02 -9.623141e-02
3.205152e-02 1.522695e-02 1.412895e-02
-3.180792e-02 1.762552e-02 1.307354e-02
6.962046e-04 2.354205e-04 2.656279e-02
2.625591e-02 -3.246283e-02 1.290792e-02
5.608565e-02 -1.656590e-02 -4.860430e-02
-6.586995e-03 -3.653885e-02 1.633148e-02
-3.723788e-02 -1.990205e-03 -8.532624e-02
8.563051e-03 3.170047e-02 1.671150e-02
5.314638e-02 -2.724228e-02 -2.694552e-02
2.975718e-02 -1.944450e-02 1.718789e-02
2.623102e-02 -2.700853e-02 1.673939e-02
-4.293745e-03 -7.059585e-03 -1.008000e-01
1.786013e-02 -3.271747e-02 1.662146e-02
-3.228979e-04 2.636992e-04 2.901698e-02
3.424950e-02 2.129303e-03 1.667009e-02
1.488792e-03 -3.875540e-02 1.588661e-02
2.722386e-02 -3.592727e-02 -8.049587e-02
-3.144158e-02 4.313527e-03 1.701584e-02
3.534146e-02 5.024693e-03 1.695969e-02
1.905075e-02 3.017226e-02 1.810623e-02
-5.052164e-02 -2.998962e-02 -5.672198e-02
1.663281e-02 3.096720e-02 1.630975e-02
-1.236075e-02 3.189048e-02 1.488676e-02
-2.026353e-02 3.073518e-02 1.710015e-02
4.163091e-04 -6.557130e-05 2.891469e-02
-4.210478e-02 -3.621263e-02 -5.272557e-02
8.528366e-03 3.477687e-02 -8.474624e-02
3.141151e-02 -2.121499e-02 1.746021e-02
1.697063e-02 -2.487083e-02 -8.548979e-02
-5.018848e-02 2.798713e-02 -6.882213e-02
-5.061780e-02 -7.460416e-03 -7.531099e-02
1.916268e-02 -4.710211e-03 -9.644934e-02
-2.922901e-02 3.570075e-02 -6.672020e-02
-1.972099e-02 -2.837005e-02 1.861376e-02
1.813144e-03 5.412634e-02 -5.377600e-02
5.182975e-04 -2.623040e-04 2.764506e-02
1.074960e-03 1.204470e-03 2.834904e-02
2.752762e-02 2.111697e-02 -9.272223e-02
4.770099e-04 -5.705397e-02 -5.845555e-02
1.691138e-02 4.881081e-02 -6.509957e-02
-5.553441e-02 -2.028783e-02 -2.643404e-02
8.411309e-03 -2.688043e-02 2.030096e-02
-4.176684e-02 3.899944e-02 -4.358962e-02
-2.646242e-02 1.913652e-02 2.027047e-02
3.710285e-03 -3.191380e-02 2.095367e-02
-2.993940e-02 6.633895e-03 -8.170325e-02
1.097147e-02 2.681579e-02 1.903726e-02
-1.177061e-03 1.884861e-03 2.778474e-02
2.781264e-02 1.185287e-02 1.653861e-02
-5.433983e-02 2.586132e-02 -4.434079e-02
-1.875473e-02 -3.416385e-03 2.353879e-02
-8.294063e-03 -2.476154e-02 2.096420e-02
-2.088423e-02 -2.208932e-02 2.122725e-02
1.276572e-02 -5.633657e-02 -4.794618e-02
2.513254e-02 2.012333e-02 1.795855e-02
1.228772e-02 -2.565795e-02 1.953543e-02
-9.434775e-03 4.842523e-02 -8.086148e-02
-1.241167e-02 -2.483708e-02 2.201650e-02
-1.894030e-04 -3.670444e-05 2.826767e-02
-2.006706e-02 -2.171175e-02 2.089713e-02
4.097325e-02 2.076761e-02 -7.718112e-02
2.728399e-02 -9.957506e-03 2.178671e-02
-1.339526e-02 -5.721871e-02 -4.998023e-02
5.506410e-02 -1.438996e-02 -4.247681e-02
-1.432519e-02 4.921168e-02 -7.879754e-02
-2.807151e-02 3.115026e-03 2.242022e-02
-1.505817e-02 2.338843e-02 2.292898e-02
-3.161554e-03 2.738727e-02 2.211476e-02
1.593805e-02 -5.211182e-02 -6.601355e-02
4.041429e-04 1.183453e-03 2.871975e-02
1.498792e-02 1.125028e-03 -9.908642e-02
2.041471e-02 -1.778456e-02 1.944277e-02
-3.847282e-02 2.554411e-02 -8.586962e-02
-3.045471e-02 -3.619546e-03 2.231259e-02
-1.944700e-02 2.161317e-02 1.912234e-02
-1.193980e-02 -2.483084e-02 2.274792e-02
-2.365585e-02 -4.198417e-02 -6.095821e-02
3.633667e-02 4.000626e-02 -4.552311e-02