# vtk DataFile Version 2.0
Electric current density generated by TTH
ASCII
DATASET UNSTRUCTURED_GRID
POINTS 2066 double
-1.716242e-05 -1.172987e-05 -4.453037e-22
1.104356e-05 -1.436322e-05 1.606185e-06
1.222264e-05 1.657099e-05 8.229421e-07
-1.828889e-07 1.943586e-05 -1.757124e-06
-1.888627e-05 4.980546e-06 1.729015e-06
9.205978e-06 1.734908e-05 -1.689963e-06
1.192901e-05 -1.556882e-05 1.700342e-06
-7.108701e-06 1.798919e-05 1.779423e-06
1.018418e-06 -1.932809e-05 -1.776847e-06
1.134260e-05 1.719874e-05 -8.005221e-07
1.581882e-05 -1.320189e-05 7.968628e-07
-1.658029e-05 -1.253923e-05 -4.453037e-22
1.514075e-05 8.698457e-06 1.015119e-06
1.968796e-05 5.826400e-06 9.301473e-07
5.885778e-06 -1.628904e-05 -7.633897e-07
2.799295e-06 1.694839e-05 -3.078083e-07
-1.176691e-06 1.941528e-05 1.753294e-06
6.959341e-06 1.720429e-05 1.770958e-06
-1.779575e-05 -1.036944e-05 8.121695e-07
1.889374e-05 8.204449e-06 8.086227e-07
1.180683e-05 -1.680736e-05 9.166879e-07
9.781790e-06 1.477078e-05 1.316628e-06
-1.596003e-05 -1.331975e-05 -4.453037e-22
-3.672831e-06 1.677617e-05 2.804371e-07
-1.937788e-05 2.874799e-06 -1.709068e-06
-1.342486e-05 -1.145218e-05 1.246085e-06
-1.745237e-05 8.147080e-06 1.794736e-06
1.320568e-05 1.122676e-05 7.911470e-07
-1.824929e-05 -3.217461e-06 -1.764269e-06
-2.056388e-05 9.683110e-08 -8.739526e-07
-7.336790e-06 1.614566e-05 1.333887e-06
1.728954e-05 3.805239e-06 -1.304378e-06
1.728954e-05 -3.805239e-06 1.304378e-06
-1.530307e-05 -1.406963e-05 -4.453037e-22
-1.838779e-05 2.498519e-06 1.770540e-06
1.564825e-05 -1.169020e-05 -1.728754e-06
-6.670710e-06 -1.663990e-05 -1.489411e-06
3.935284e-07 -2.063527e-05 -7.206409e-07
-1.692389e-05 -9.271575e-06 -1.788386e-06
1.480784e-05 1.421013e-05 -9.448249e-07
-1.622141e-05 8.221906e-06 -1.640478e-06
5.380263e-06 -1.751090e-05 1.697529e-06
-1.339005e-05 1.565871e-05 -7.986686e-07
-2.297521e-06 -1.756228e-05 -1.312661e-06
-1.461090e-05 -1.478716e-05 -4.453037e-22
1.811384e-05 -2.063659e-06 -1.661197e-06
1.811384e-05 2.063659e-06 1.661197e-06
1.102581e-06 1.736267e-05 -9.130245e-07
7.020859e-06 -1.936991e-05 7.988106e-07
1.214708e-05 -1.301873e-05 1.396401e-06
-1.223214e-05 1.512165e-05 -1.753632e-06
-2.225843e-07 1.922833e-05 1.799437e-06
1.848333e-05 7.683288e-07 -1.756141e-06
1.848333e-05 -7.683288e-07 1.756141e-06
-2.001615e-05 -4.894388e-06 -7.930565e-07
-1.388513e-05 -1.547067e-05 -4.453037e-22
-1.281991e-05 1.292963e-05 1.650694e-06
-3.511271e-06 -1.897173e-05 -1.788975e-06
4.505735e-06 1.662203e-05 -5.000972e-07
-7.684708e-06 1.715124e-05 -1.809580e-06
-1.513632e-05 -1.075603e-05 1.773304e-06
-9.674036e-06 1.666637e-05 1.793048e-06
-4.754478e-06 1.787100e-05 -1.754344e-06
-1.294459e-05 -1.448429e-05 -1.760020e-06
-6.609842e-07 2.058111e-05 8.215677e-07
7.536271e-06 -1.801354e-05 1.730789e-06
-1.312742e-05 -1.611860e-05 -4.453037e-22
-1.725331e-05 -1.916677e-06 8.438309e-07
-1.186828e-05 1.690089e-05 -6.903193e-07
1.764967e-05 9.124461e-06 1.580335e-06
-7.869580e-06 1.564064e-05 -1.082097e-06
-1.290923e-05 1.290301e-05 -1.670378e-06
-1.551361e-05 -1.159936e-05 -1.773389e-06
-7.837209e-06 1.525974e-05 1.021820e-07
1.892065e-05 8.171541e-06 -7.848012e-07
1.892065e-05 -8.171541e-06 7.848012e-07
1.513948e-05 -1.014958e-05 1.659335e-06
-1.233952e-05 -1.672945e-05 -4.453037e-22
1.439122e-05 -1.472189e-05 -8.300416e-07
1.706725e-05 -1.151052e-05 -8.327838e-07
-7.479911e-06 -1.814560e-05 1.695243e-06
1.703531e-05 -5.654990e-06 1.504702e-06
1.703531e-05 5.654990e-06 -1.504702e-06
2.674510e-06 1.944474e-05 -1.694856e-06
-1.560560e-05 -7.285626e-06 -5.022630e-07
-1.524282e-05 1.183834e-05 1.787864e-06
-5.891008e-06 -1.872320e-05 1.694745e-06
4.337507e-06 1.914336e-05 -1.694547e-06
-1.152324e-05 -1.730183e-05 -4.453037e-22
-1.691167e-05 1.167360e-05 9.002779e-07
-5.286131e-06 -1.734110e-05 1.611912e-06
1.045711e-05 -1.776423e-05 -7.769562e-07
-1.779518e-05 1.040784e-05 -7.732263e-07
1.097844e-06 -1.829431e-05 1.700729e-06
-1.635818e-05 5.289660e-06 3.811848e-07
-1.579460e-05 7.163123e-06 8.116712e-07
-1.523952e-05 7.878370e-06 -1.168312e-07
1.893929e-05 -5.147795e-06 -1.695395e-06
1.890617e-05 5.213767e-06 1.700947e-06
-1.068045e-05 -1.783441e-05 -4.453037e-22
-8.836223e-06 1.507008e-05 1.026956e-06
1.226269e-05 -1.653882e-05 -8.269611e-07
4.666129e-06 -1.919970e-05 1.638098e-06
-1.025098e-05 1.659588e-05 -1.737066e-06
1.309485e-05 -1.588834e-05 -8.265727e-07
1.683848e-05 6.757036e-06 -1.619519e-06
1.683878e-05 -6.756634e-06 1.619585e-06
-8.968762e-07 -1.955095e-05 -1.715651e-06
5.436420e-06 1.982932e-05 8.795093e-07
-1.862631e-05 -5.521843e-06 -1.759533e-06
-9.813104e-06 -1.832598e-05 -4.453037e-22
-1.797487e-06 -1.865741e-05 1.803983e-06
-1.746621e-05 2.203391e-06 1.200698e-06
-4.636714e-06 -1.919856e-05 1.641941e-06
-1.060853e-05 -1.357094e-05 -5.119054e-07
-1.579926e-05 -1.316771e-05 8.684943e-07
-1.661815e-05 -1.028638e-05 1.725013e-06
-1.924751e-05 -4.415498e-06 1.643393e-06
7.422242e-06 1.649231e-05 -1.588527e-06
1.907011e-05 -4.895794e-06 1.670018e-06
1.907011e-05 4.895794e-06 -1.670018e-06
-8.923182e-06 -1.877539e-05 -4.453037e-22
-1.880636e-05 -8.415742e-06 -7.979090e-07
6.950146e-06 1.938483e-05 -8.188349e-07
-1.248285e-05 -1.638506e-05 -8.083738e-07
1.191537e-05 -1.238933e-05 -3.674943e-07
-1.273304e-05 -1.613035e-05 8.985154e-07
8.455249e-06 1.518859e-05 -8.881405e-07
5.392508e-06 1.895007e-05 1.663983e-06
1.512512e-05 -8.688559e-06 -9.870927e-07
1.248007e-05 1.323086e-05 -1.641450e-06
3.064489e-07 -2.060604e-05 7.879446e-07
-8.012737e-06 -1.918162e-05 -4.453037e-22
9.745164e-06 -1.510862e-05 1.524254e-06
1.259547e-05 -1.223736e-05 -1.149533e-06
-2.050071e-05 1.257561e-06 9.178478e-07
4.044075e-06 -2.015946e-05 8.794410e-07
-5.783267e-06 1.617851e-05 3.253632e-07
1.076994e-05 -1.642646e-05 -1.689158e-06
9.167564e-06 1.719667e-05 1.742787e-06
-4.492172e-06 1.763329e-05 1.645412e-06
8.923739e-06 1.857151e-05 7.964103e-07
-1.588560e-05 7.243429e-06 -1.011448e-06
-7.083862e-06 -1.954373e-05 -4.453037e-22
-2.405205e-06 1.773629e-05 1.468993e-06
1.719798e-05 3.278671e-06 1.080572e-06
1.719798e-05 -3.278671e-06 -1.080572e-06
-8.646128e-06 -1.774637e-05 1.646659e-06
-7.489290e-06 1.810002e-05 -1.709682e-06
-1.725212e-05 -2.803771e-07 6.022344e-07
1.934625e-05 -4.145693e-06 -1.624881e-06
1.934625e-05 4.145693e-06 1.624881e-06
-1.270906e-05 1.154406e-05 2.520420e-07
1.463223e-05 -9.434292e-06 -9.339818e-07
-6.138694e-06 -1.986089e-05 -4.453037e-22
-1.015925e-05 -1.718734e-05 -1.521330e-06
1.476251e-06 1.967537e-05 -1.651242e-06
-6.788620e-07 -1.755613e-05 -1.159215e-06
-3.153937e-06 -1.803499e-05 1.693613e-06
1.020549e-05 1.462889e-05 -1.421961e-06
6.155925e-06 -1.845644e-05 1.751891e-06
1.577518e-05 -7.104925e-06 -7.221618e-07
1.395009e-05 1.102029e-05 -1.372803e-06
-2.016378e-05 4.119958e-06 -8.435910e-07
9.707031e-06 1.589781e-05 1.785481e-06
-5.179407e-06 -2.013237e-05 -4.453037e-22
1.564401e-05 -1.163890e-05 1.739475e-06
1.523754e-05 1.023158e-05 -1.710594e-06
-1.736612e-05 4.730172e-06 1.537046e-06
1.700410e-05 -2.377003e-06 2.529390e-07
1.700410e-05 2.377003e-06 -2.529390e-07
-3.022966e-06 1.932884e-05 1.718335e-06
-1.916164e-05 -1.855088e-06 -1.796184e-06
-1.705485e-05 -5.426710e-06 1.468099e-06
-9.152828e-06 -1.541012e-05 1.486696e-06
1.055215e-05 1.395709e-05 1.066038e-06
-4.208207e-06 -2.035754e-05 -4.453037e-22
-6.879033e-06 -1.713996e-05 1.747705e-06
-1.468318e-05 -1.012901e-05 -1.422770e-06
-5.084196e-06 1.645899e-05 -5.154606e-07
-1.960713e-05 7.274845e-08 1.702692e-06
-9.766205e-06 1.809956e-05 8.699395e-07
5.579548e-06 -1.749741e-05 -1.714698e-06
1.710561e-05 1.008228e-05 1.587600e-06
5.299101e-06 1.756848e-05 -1.709256e-06
-1.408782e-05 -1.047307e-05 1.140855e-06
-4.285577e-06 1.932997e-05 1.617835e-06
-3.227328e-06 -2.053589e-05 -4.453037e-22
1.707836e-05 -5.663487e-06 -1.533321e-06
1.707661e-05 5.662538e-06 1.532070e-06
1.576905e-05 7.134226e-06 7.369246e-07
-1.464698e-05 -1.450136e-05 7.818511e-07
-1.663780e-05 5.839972e-06 -1.232152e-06
-6.263253e-06 -1.597930e-05 -2.013275e-07
-1.395290e-05 1.516176e-05 -7.949996e-07
1.893471e-05 -8.168076e-06 -7.602372e-07
3.020584e-06 1.834477e-05 1.778347e-06
1.172179e-05 1.253728e-05 -2.057556e-07
-2.239027e-06 -2.066701e-05 -4.453037e-22
1.768437e-05 -8.319789e-06 -1.725154e-06
-1.441089e-05 1.021206e-05 -1.263328e-06
-7.134804e-06 -1.560074e-05 -1.058664e-07
1.365051e-05 1.406364e-05 1.705746e-06
-1.700732e-05 -3.689016e-06 9.218731e-07
-8.748784e-06 1.541021e-05 -1.320820e-06
-6.769923e-07 1.783505e-05 1.430623e-06
5.031935e-07 -1.729701e-05 7.290342e-07
8.906259e-06 1.572499e-05 -1.580919e-06
-6.300813e-06 1.847568e-05 -1.732688e-06
-1.245575e-06 -2.075059e-05 -4.453037e-22
3.497029e-06 -1.719153e-05 1.127506e-06
1.505474e-05 -1.019911e-05 -1.639602e-06
-1.162729e-05 1.268547e-05 4.486845e-07
-2.041848e-05 2.807953e-06 7.830795e-07
-2.039855e-05 3.002808e-06 -7.666761e-07
-1.709079e-05 2.289748e-06 -5.702043e-07
-1.312699e-05 -1.214397e-05 -1.457305e-06
1.372389e-05 1.538871e-05 -7.646015e-07
1.613917e-05 1.146286e-05 1.619696e-06
1.778341e-05 7.682549e-06 1.773075e-06
-2.492583e-07 -2.078645e-05 -4.453037e-22
1.465736e-05 9.425905e-06 9.611412e-07
-1.760604e-05 6.177479e-07 -1.214454e-06
-6.481826e-06 -1.796382e-05 -1.813606e-06
1.164791e-07 1.834786e-05 1.708522e-06
-1.872998e-05 6.797674e-06 1.546747e-06
-1.162567e-05 -1.454962e-05 1.784863e-06
-1.681816e-05 -7.884821e-06 -1.774639e-06
7.558253e-06 1.821532e-05 -1.655581e-06
1.399574e-05 9.964318e-06 -3.218226e-07
2.223171e-06 2.052066e-05 7.166601e-07
7.476315e-07 -2.077449e-05 -4.453037e-22
-1.726792e-05 -4.399176e-06 -1.407870e-06
-1.428809e-05 -1.353930e-05 1.671935e-06
-1.173997e-05 1.285618e-05 -9.339943e-07
-6.022025e-07 1.722992e-05 -5.608868e-07
-1.778917e-05 1.851463e-06 -1.459147e-06
-1.510550e-05 1.398714e-05 -8.312286e-07
-1.152449e-05 1.571185e-05 -1.743498e-06
1.947780e-05 6.664582e-06 8.319177e-07
7.680026e-06 -1.621625e-05 -1.500314e-06
2.034071e-05 -3.309139e-06 -7.883566e-07
1.742802e-06 -2.071476e-05 -4.453037e-22
[...]
POINT_DATA 2066
VECTORS 10.000GHz_fone_imag double
-9.438425e+09 1.690991e+10 6.708646e+07
-3.406827e+10 -2.581529e+10 -2.121560e+08
1.848189e+10 -1.212410e+10 8.886724e+08
3.833622e+10 -1.215002e+09 -4.167544e+08
7.348924e+09 2.304203e+10 1.627870e+09
2.729857e+10 -1.455718e+10 3.439394e+08
-3.151170e+10 -2.595478e+10 -6.601228e+08
3.410539e+10 1.087681e+10 2.110073e+08
-3.082533e+10 -2.426936e+09 1.928406e+08
2.806981e+10 -1.813312e+10 4.803425e+08
-1.973151e+10 -2.024572e+10 1.923773e+09
-1.376364e+10 2.062661e+10 -1.019621e+09
3.115251e+10 -5.116233e+10 2.680368e+08
7.633579e+09 -2.050524e+10 1.748125e+09
-5.245810e+10 -1.901129e+10 1.093015e+09
6.015221e+10 -7.943792e+09 -1.060975e+09
3.926006e+10 2.593443e+09 8.401996e+08
3.126969e+10 -1.216686e+10 4.984237e+08
-1.642957e+10 2.662515e+10 -2.804648e+08
1.216951e+10 -2.569762e+10 -2.533836e+09
-2.191576e+10 -1.608205e+10 -8.739743e+08
3.864124e+10 -2.901486e+10 -1.788926e+08
-1.927210e+10 2.168319e+10 2.083824e+09
5.169156e+10 1.174692e+10 3.545485e+09
3.807352e+09 3.033774e+10 1.870052e+08
-2.734281e+10 3.223548e+10 2.167479e+09
1.305368e+10 2.929049e+10 4.628387e+07
2.845871e+10 -3.504586e+10 -8.597233e+08
-1.067513e+10 3.827493e+10 -2.781272e+08
2.136465e+09 3.091305e+10 -3.797436e+08
3.198682e+10 1.063743e+10 1.790809e+09
1.134923e+10 -3.745787e+10 2.267654e+09
-1.311613e+10 -5.217471e+10 -2.097895e+09
-2.029461e+10 2.188985e+10 9.699343e+08
2.924022e+09 3.746634e+10 7.714634e+08
-2.478680e+10 -3.644265e+10 9.818066e+08
-3.125645e+10 8.860017e+09 1.609528e+09
-2.519761e+10 1.209879e+07 -1.657441e+08
-1.806837e+10 3.129930e+10 1.789097e+09
1.785837e+10 -1.807736e+10 -6.663315e+08
1.855262e+10 2.996380e+10 -2.319579e+09
-4.420442e+10 -1.671535e+10 1.471063e+09
1.986448e+10 1.706743e+10 -1.556987e+09
-4.916407e+10 6.147605e+09 -1.170320e+09
-1.755841e+10 1.757258e+10 -8.848256e+08
-3.789749e+09 -3.884771e+10 -2.025096e+08
4.803125e+09 -3.129205e+10 -3.357918e+09
5.157717e+10 -3.956439e+09 1.980413e+09
-3.071721e+10 -9.587011e+09 3.213579e+09
-2.936223e+10 -2.419866e+10 -1.671205e+08
2.191607e+10 2.226080e+10 1.378097e+09
3.985481e+10 -1.885693e+09 3.621434e+06
7.972058e+08 -5.354567e+10 6.971351e+08
-3.700729e+09 -4.092993e+10 -5.176113e+08
-6.336514e+09 2.827561e+10 8.636338e+07
-2.224377e+10 1.915395e+10 -5.479817e+08
2.984815e+10 2.456406e+10 -1.503244e+09
-3.993254e+10 7.280564e+09 1.056592e+09
5.878175e+10 -1.469846e+10 -3.577819e+09
2.483836e+10 1.285102e+10 -3.586634e+09
-2.217183e+10 3.028925e+10 -7.653936e+08
3.134327e+10 1.844898e+10 -1.874755e+09
4.263323e+10 1.090409e+10 -1.031354e+09
-2.792584e+10 2.651833e+10 -1.640016e+09
1.953387e+10 2.485927e+09 1.561333e+08
-4.388934e+10 -1.392434e+10 2.167137e+08
-1.997947e+10 1.649970e+10 -3.098874e+08
-2.868260e+09 4.885963e+10 -1.328361e+09
2.227022e+10 1.499787e+10 5.785261e+08
1.642579e+10 -2.946673e+10 1.077610e+09
4.214839e+10 1.923610e+10 1.129556e+09
2.359272e+10 2.260694e+10 2.212280e+06
-2.264929e+10 2.818110e+10 1.830490e+09
3.472526e+10 1.781472e+10 -1.312902e+09
9.272176e+09 -2.101537e+10 8.588588e+08
-1.457533e+10 -2.934620e+10 5.581390e+08
-2.783026e+10 -3.847128e+10 -1.328858e+09
-2.098228e+10 1.551752e+10 -6.909619e+08
-1.885610e+10 -1.856052e+10 3.938610e+08
-1.691997e+10 -2.330950e+10 -1.697670e+09
-2.442706e+10 1.185663e+10 2.257358e+09
-1.677782e+10 -5.002627e+10 -8.223308e+08
1.446360e+10 -3.789018e+10 -2.366944e+09
3.082652e+10 -3.878889e+09 6.532737e+08
-2.726997e+10 5.694920e+10 1.332445e+09
2.390453e+10 3.051733e+10 1.285159e+08
-2.927828e+10 5.408036e+09 -1.523881e+09
2.830843e+10 -5.091357e+09 -2.026581e+09
-2.363515e+10 1.582070e+10 7.366763e+08
1.755689e+10 2.346678e+10 1.843225e+09
-3.550937e+10 1.256384e+10 -3.296245e+08
-2.858219e+10 -1.741690e+10 2.475666e+08
1.321671e+10 2.168686e+10 5.125093e+08
-4.862230e+10 -2.717731e+09 -5.945936e+08
1.178650e+10 4.399832e+10 -8.011505e+09
2.125290e+10 3.851569e+10 -1.383342e+09
2.835218e+10 5.256216e+10 -7.913465e+08
-9.826424e+09 -3.728483e+10 9.373271e+08
1.131007e+10 -3.212915e+10 -1.083636e+09
-2.751503e+10 1.738787e+10 -1.170794e+09
4.017679e+10 2.712849e+10 -1.850066e+09
-2.782600e+10 -2.133711e+10 1.445929e+09
-3.061641e+10 -8.442206e+09 -3.115315e+09
2.492562e+10 1.565036e+10 6.535038e+08
-1.878937e+10 -1.762577e+10 1.655983e+09
1.879862e+10 -4.405374e+10 -6.674548e+08
-1.509900e+10 -3.380928e+10 -2.634421e+09
-4.204206e+10 -5.858658e+08 -2.729551e+08
2.400488e+10 -6.827651e+09 3.507115e+08
-1.318756e+10 2.994747e+10 1.470819e+09
-2.000060e+10 9.431029e+09 -2.103756e+09
-4.670054e+10 9.220720e+08 -5.361592e+08
7.660471e+09 5.406480e+10 1.613522e+09
-2.489316e+10 6.363987e+09 7.621664e+08
-3.670693e+10 2.948911e+10 -1.330049e+09
-2.342924e+10 2.786541e+10 1.661150e+09
-1.271482e+10 2.647346e+10 -7.140076e+08
-7.747377e+09 2.991513e+10 -2.824646e+08
4.640800e+10 -1.960002e+10 4.003446e+06
-5.715806e+09 -2.793301e+10 -8.080573e+08
9.113447e+09 -3.925011e+10 -5.732757e+08
-1.875568e+10 7.924696e+09 -5.196968e+08
-1.371189e+10 3.044735e+10 -1.391917e+09
1.983523e+10 -5.748249e+09 -8.267979e+08
-2.718203e+10 2.080680e+10 1.071907e+09
-4.344544e+10 -4.459160e+10 -1.019031e+09
-2.797180e+10 2.034811e+10 -3.600322e+08
4.764109e+10 -2.748793e+10 -6.991091e+08
3.432129e+10 -9.457165e+09 2.388825e+07
-2.739037e+10 -4.691234e+10 2.311575e+09
2.687523e+10 -2.779049e+10 6.858646e+08
-2.755071e+10 -1.727772e+09 1.879536e+09
-1.845729e+10 9.951941e+09 -1.271849e+09
-3.464287e+10 -2.207743e+10 -6.136926e+08
-3.585238e+10 -3.049886e+10 7.996190e+08
2.293250e+09 3.187615e+10 1.369206e+09
-1.941401e+10 -5.426770e+09 1.075012e+09
3.988261e+10 1.433963e+10 3.067893e+09
-2.527325e+10 -1.725399e+10 2.379550e+08
2.778912e+10 -1.237907e+10 -2.465593e+09
3.797396e+10 1.132000e+10 -3.956277e+08
2.373393e+10 -8.395178e+09 -3.079340e+09
1.664280e+10 4.147104e+10 7.180703e+09
-2.872496e+10 1.061604e+10 -1.474344e+09
3.856805e+10 7.778780e+09 1.518443e+09
7.427971e+09 -4.026931e+10 5.143462e+08
-1.068512e+10 -5.432268e+10 7.799227e+08
-3.376347e+10 1.661666e+10 -4.626373e+08
3.416370e+10 1.169284e+10 -1.672724e+09
-9.911188e+08 6.657929e+10 -2.187670e+09
-8.585049e+09 -3.829200e+10 -6.789888e+08
4.578263e+09 -3.236925e+10 1.339647e+09
4.125683e+10 4.462869e+10 -9.285478e+08
-2.610768e+10 -3.913359e+10 -1.999065e+09
-2.322814e+10 6.856330e+09 1.416125e+09
-2.259295e+10 1.309253e+10 -4.051991e+08
2.949035e+10 -4.520424e+09 -1.223760e+09
-5.726345e+10 3.302364e+09 3.534334e+09
-4.200216e+10 7.720397e+09 2.191394e+09
4.309528e+10 -3.017678e+10 1.822703e+08
-2.327110e+10 -7.784577e+09 1.018341e+09
-2.386894e+10 -5.389265e+10 -4.234866e+09
3.328924e+10 -3.811625e+10 -1.030101e+09
6.671162e+09 3.453799e+10 8.687930e+07
2.982821e+10 -1.680826e+10 1.875776e+09
-2.639230e+10 7.566379e+09 -8.819289e+08
-1.915880e+10 -2.406898e+10 -1.685069e+09
1.759821e+10 -3.493649e+10 1.133748e+09
9.491163e+09 4.919766e+10 2.426848e+09
-7.287986e+09 -5.410516e+10 8.267638e+08
7.344662e+09 -6.047184e+10 3.814099e+09
2.557699e+10 5.425509e+09 4.932902e+07
-2.705386e+09 4.249123e+10 -8.803258e+08
-1.453316e+10 4.083935e+10 1.595409e+09
-4.898444e+10 2.803961e+10 2.070717e+08
4.253858e+10 -3.402030e+10 -2.085405e+09
-2.917271e+10 6.132319e+09 5.238287e+07
-2.908638e+10 1.222883e+10 6.571388e+08
-1.898085e+10 2.614334e+10 8.307254e+08
4.443540e+10 1.376548e+10 -8.771768e+08
3.476700e+09 3.423467e+10 1.080962e+09
1.709121e+10 7.268666e+09 -2.231782e+08
-3.279947e+10 -1.110349e+10 1.363054e+09
1.148926e+10 -1.916957e+10 2.390892e+09
4.413858e+10 -1.102502e+10 -1.017619e+09
-2.859430e+10 4.067277e+10 -1.956766e+09
2.509943e+10 3.968436e+09 2.754286e+08
-2.855595e+10 4.879960e+09 -4.454843e+08
-1.190053e+10 -3.617746e+10 1.087036e+09
1.437608e+10 -4.941341e+10 1.456613e+09
2.523730e+10 -5.689139e+10 2.853066e+09
-1.487671e+10 1.743126e+10 1.475883e+08
1.321421e+10 3.982842e+10 -3.042612e+08
-5.220897e+10 1.829444e+10 1.743888e+09
1.992944e+10 2.062142e+10 1.556809e+09
-6.865033e+09 -1.838496e+10 -1.396617e+09
3.767770e+10 -6.702795e+09 8.527981e+08
4.076534e+10 -3.946326e+10 -1.198491e+09
-3.220681e+10 3.774131e+09 -1.099616e+09
-1.480865e+10 -3.086351e+10 3.981106e+08
3.156411e+10 4.079944e+10 3.249549e+09
-4.431997e+10 2.018850e+10 -2.434468e+09
2.399480e+10 -2.268500e+10 -4.728730e+08
-1.116141e+10 4.303774e+10 1.199346e+09
4.995374e+10 2.669021e+10 3.709335e+08
3.102877e+10 2.277681e+09 -2.473385e+08
-6.326398e+10 -2.931092e+09 4.710021e+08
4.154144e+10 -2.516352e+10 -1.437728e+09
2.942931e+10 7.823714e+09 2.456270e+08
-2.334287e+10 1.829674e+09 -6.443424e+07
-4.829516e+10 -3.844225e+09 9.666172e+08
-2.962479e+10 -3.547409e+10 1.486053e+09
4.628977e+10 4.591251e+10 5.185997e+08
5.814772e+09 3.110181e+10 1.210035e+09
3.070341e+09 3.012703e+10 1.184047e+09
5.873630e+09 4.940910e+10 -1.703335e+09
-2.297422e+10 3.183603e+10 -2.197361e+09
2.143172e+10 -1.935761e+10 -3.150577e+08
2.044260e+10 -3.189286e+10 6.254558e+08
1.107357e+10 -2.826232e+10 -2.852951e+08
-3.082944e+10 2.621850e+08 4.408371e+08
3.284581e+10 -5.008647e+10 2.117068e+09
2.536564e+09 4.872376e+10 3.022725e+09
-4.049273e+10 1.521062e+10 -1.767804e+08
4.705832e+10 -5.220629e+09 -1.704271e+09
8.967376e+09 2.258989e+10 2.809622e+09
-3.185964e+10 2.222215e+10 9.202485e+08
-2.145130e+10 4.197831e+10 4.471639e+08
3.225731e+10 -1.044554e+10 2.518757e+09
3.185023e+10 -4.513562e+10 3.226163e+09
2.549824e+10 -4.852705e+09 -6.760310e+08
-2.716014e+10 -7.409022e+08 1.915001e+09
-1.210005e+10 4.737840e+10 -4.491444e+09
-2.058276e+10 2.351385e+10 -4.779107e+08
3.870295e+10 3.561629e+10 -4.128603e+08
4.594203e+10 4.690494e+09 -2.185246e+09
3.644571e+09 4.408478e+10 -6.735236e+08
2.301388e+10 2.373251e+10 1.352931e+09
3.344512e+10 1.870667e+10 5.312715e+07
5.789327e+09 -2.115155e+10 -3.146620e+09
-4.657902e+10 -2.031518e+10 9.300207e+08
-4.334596e+09 -2.945140e+10 2.143375e+08
-3.451372e+10 -3.605277e+09 -1.262900e+09
4.818728e+09 -3.593515e+10 1.366990e+09
1.391372e+10 -2.132105e+10 5.012406e+08
-2.256485e+10 -3.338758e+10 1.313993e+09
1.790528e+10 1.105010e+10 -1.938327e+09
-3.831823e+10 4.425924e+09 -2.078232e+08
-3.619315e+10 2.905343e+10 -4.048091e+08
-4.971428e+10 -1.651708e+10 -2.015028e+09
4.174309e+10 3.039281e+10 5.360663e+09
-2.870613e+10 -2.177136e+10 -5.926981e+08
1.166668e+10 -1.706287e+10 -2.124099e+09
-2.484350e+10 -4.101068e+09 -1.616960e+08
3.388964e+10 -2.881382e+09 2.128956e+08
1.079755e+10 4.772373e+10 6.681499e+08
-4.642237e+10 1.599918e+10 -1.136582e+09
-3.322577e+10 4.664308e+10 4.417487e+09
3.531762e+10 -2.488707e+10 5.938179e+08
5.144921e+09 -3.354128e+10 -3.401697e+08
-5.101015e+09 -3.760811e+10 1.033419e+08
-1.199917e+10 3.778411e+10 2.665813e+08
1.162203e+10 2.319196e+10 2.932711e+09
-3.558168e+10 -4.813057e+10 1.350827e+09
-3.022925e+10 -5.381308e+09 1.461711e+09
1.590147e+10 3.719875e+10 1.730715e+09
-3.055654e+10 4.002794e+09 -1.211833e+09
-3.033685e+10 -4.960306e+09 -5.271136e+08
-2.853984e+10 -9.994355e+09 -7.900684e+08
-4.345647e+10 9.032132e+09 5.269668e+09
2.911194e+10 -1.636758e+10 1.327641e+09
4.622197e+10 4.693672e+09 -1.183699e+09
-4.500774e+10 -2.703475e+10 -2.596061e+08
-2.080988e+10 4.431583e+10 -7.002539e+08
3.487227e+10 -1.529545e+10 9.165325e+07
-2.301161e+10 -4.777632e+09 2.018195e+08
2.987003e+10 -2.355586e+09 3.547798e+08
-1.983474e+10 3.459805e+10 -6.484434e+08
-1.556889e+10 -2.560552e+10 -1.689109e+09
-2.470313e+10 -1.792808e+10 -3.525701e+09
-1.314294e+10 3.385602e+10 7.344358e+08
2.725141e+10 -5.009435e+10 1.062113e+09
-2.094790e+10 -1.870512e+10 2.392706e+09
2.300294e+10 -3.311135e+10 -9.630788e+08
2.556206e+10 2.570564e+10 4.156927e+09
-1.270255e+10 5.524155e+10 -6.023310e+08
-2.860381e+10 -7.797130e+09 -2.042274e+09
-2.660142e+10 1.998705e+10 7.957719e+08
3.704765e+09 4.463863e+10 -5.479287e+08
-3.544512e+10 1.576901e+09 2.780816e+09
-3.736445e+10 2.041142e+10 -1.355998e+08
3.773547e+10 -6.734592e+09 -9.179968e+08
-1.377029e+10 -1.822171e+10 1.435065e+09
-2.403387e+10 4.550870e+10 -1.421720e+09
2.227313e+10 -1.472738e+10 1.112479e+09
-3.437046e+10 3.120907e+10 -4.288645e+08
-7.286378e+09 2.837609e+10 6.364559e+08
-2.358336e+10 -8.333512e+09 -3.013858e+08
-4.309037e+10 1.909392e+10 2.380693e+09
-4.221034e+10 2.266907e+10 -3.899967e+07
-5.137588e+10 -1.562234e+10 1.559137e+09
-2.162841e+10 2.220266e+10 -2.050744e+09
9.720667e+09 4.459740e+10 -7.525575e+08
1.951745e+10 -2.441324e+10 1.477138e+09
-3.527336e+10 -1.966255e+10 3.083716e+09
-2.065124e+10 -2.021794e+10 -1.870953e+09
4.275159e+10 -1.669834e+10 -3.722668e+08
-6.319463e+10 -3.924804e+09 -1.438040e+09
-2.964201e+10 -1.085825e+10 7.445068e+08
2.218536e+09 -5.469305e+10 -3.156912e+09
-2.686117e+09 -3.465030e+10 4.453912e+08
-2.515799e+10 -2.393443e+10 1.422523e+09
-2.042137e+09 -2.518308e+10 1.370113e+08
2.201355e+09 -3.327184e+10 3.551780e+07
-2.752681e+10 -1.435164e+10 2.166059e+09
2.486501e+10 1.988187e+09 8.600967e+08
1.331833e+10 -2.951997e+10 3.238757e+09
6.894537e+09 4.307936e+10 1.399713e+08
-1.570176e+10 5.680599e+10 1.721822e+08
-2.440742e+10 -1.123310e+10 -8.325692e+08
-3.841695e+10 -1.591458e+10 -9.554607e+08
3.392419e+10 1.364255e+10 -2.046854e+08
-4.922807e+10 1.710453e+10 6.776247e+08
-3.098979e+10 2.827972e+10 1.333806e+09
4.514197e+10 -2.023063e+09 1.884274e+09
-7.928631e+09 4.363134e+10 -5.115725e+08
-3.227315e+10 3.376698e+10 -4.110186e+08
-2.188874e+10 -2.088352e+10 -1.763380e+08
4.138488e+07 -2.575786e+10 1.510215e+09
-1.999485e+09 -3.534899e+10 -1.557216e+09
-2.882590e+10 -1.468225e+10 1.541191e+09
-1.912269e+09 2.838628e+10 1.582225e+08
-2.085666e+10 -1.545838e+10 -3.556516e+09
-3.950980e+10 3.600161e+10 8.360880e+09
-1.628109e+10 2.623658e+10 1.340492e+09
-6.461170e+09 -3.131452e+10 -8.508908e+08
4.713431e+09 -2.330488e+10 -3.041554e+09
-1.743812e+10 -2.464757e+10 -8.029891e+08
-3.784243e+10 -2.792336e+10 1.061553e+09
2.102636e+10 2.019908e+10 -5.933566e+08
-2.523481e+10 -3.584552e+09 1.077333e+08
-2.492377e+10 -1.435768e+10 4.898612e+08
-2.181116e+10 2.225527e+10 -2.275875e+09
-1.804838e+10 3.837695e+10 3.189210e+07
3.314866e+10 5.733125e+09 3.295492e+08
9.360444e+09 1.760055e+10 -1.469475e+09
-9.338285e+08 2.886981e+10 -9.912649e+07
-3.755987e+10 -6.745897e+09 5.715123e+08
2.825002e+10 -3.302080e+10 3.363550e+08
4.070496e+10 -1.138742e+10 -1.235708e+09
1.849498e+10 3.594227e+10 -2.209561e+09
-9.575425e+09 -4.656095e+10 -4.265821e+07
-2.677979e+10 -1.647239e+10 3.395011e+08
1.498209e+10 -4.481250e+10 -2.705678e+09
4.160856e+09 5.269062e+10 4.945941e+09
3.047175e+10 -1.807133e+09 1.443180e+09
1.892598e+10 2.246568e+10 -1.384979e+09
4.875496e+09 2.155343e+10 1.857438e+08
-2.948846e+10 4.086306e+10 -1.040847e+09
9.046361e+09 2.861862e+10 1.029044e+09
5.251882e+10 -1.116938e+10 -1.801840e+08
1.325323e+10 3.052364e+10 -1.107577e+08
-3.738173e+10 -3.522564e+10 4.465991e+09
-2.785743e+10 -1.982370e+10 1.752111e+09
-1.161556e+10 2.777854e+10 2.177666e+09
5.481110e+09 4.001264e+10 -6.430085e+07
1.984050e+10 -3.072947e+10 3.066648e+08
-4.979062e+10 -2.323836e+10 7.120497e+08
-2.288281e+10 1.623424e+10 1.863805e+09
3.145265e+10 5.815569e+09 2.474413e+08
-6.285753e+09 -2.127879e+10 -7.883234e+08
-1.278584e+10 -4.255959e+10 4.048769e+08
8.444911e+09 2.346985e+10 -1.324748e+08
-2.505970e+10 2.388897e+10 -2.393899e+09
-1.987486e+10 -1.803713e+10 -3.132198e+08
4.378330e+10 -2.836661e+09 2.272722e+09
1.511381e+10 2.829148e+10 7.920783e+08
1.957554e+10 -1.075912e+10 6.128665e+08
-2.672108e+10 -9.065724e+08 4.552419e+08
-9.337895e+09 2.443013e+10 -2.936877e+09
2.338275e+10 1.250520e+10 -1.955639e+09
2.562034e+10 1.488339e+10 -6.011729e+08
2.973524e+10 -2.569818e+10 -7.371975e+08
-3.252319e+09 4.414991e+10 -2.504909e+08
2.672393e+10 1.027824e+10 3.793349e+08
-1.585870e+10 -1.205079e+10 6.120492e+08
-3.549346e+10 -4.048428e+10 8.600354e+08
1.171534e+10 4.089421e+10 -2.897350e+09
-2.169680e+10 -2.621221e+10 1.341230e+09
-2.503378e+10 -2.745386e+10 -1.561228e+09
1.306033e+10 5.042994e+10 -3.699667e+09
5.093975e+10 -2.177477e+10 -1.454453e+09
7.067234e+09 -6.239972e+10 8.935225e+08
-7.149283e+09 -5.427882e+10 3.304835e+09
1.686851e+10 3.286259e+10 6.168642e+08
-4.482753e+10 2.429995e+10 -4.757395e+09
-2.073992e+10 -1.998421e+10 -4.929095e+07
7.243492e+09 -1.842332e+10 -8.265221e+07
-7.445150e+09 -2.988918e+10 -4.783553e+08
4.432189e+10 9.307593e+09 9.267061e+08
-2.421210e+10 8.179140e+09 1.104300e+09
4.738513e+10 -9.522079e+09 -1.607706e+09
1.408758e+10 -4.215919e+10 2.210433e+09
-1.760214e+10 -4.590919e+10 -8.399178e+08
2.989929e+10 1.896412e+10 -9.576969e+08
-1.335937e+09 3.590307e+10 1.182710e+09
1.801793e+10 1.701834e+10 2.492410e+08
-2.031000e+10 -1.920923e+10 -2.305223e+09
2.954388e+10 -7.623586e+09 -1.186754e+09
1.191481e+10 -4.124794e+10 1.434760e+09
-4.585788e+10 -1.142924e+10 3.215648e+08
3.474835e+10 -2.313057e+10 -1.498362e+09
2.610067e+10 -1.955566e+10 1.551577e+09
3.050467e+10 3.228016e+10 1.721130e+09
-1.728492e+10 -2.987118e+10 1.749348e+09
1.757973e+10 3.665724e+10 1.431833e+08
-2.500080e+10 2.623219e+09 -1.805499e+09
-1.955026e+10 1.351034e+10 -1.089904e+09
-2.059561e+10 -2.099811e+10 1.640319e+09
-1.144677e+10 -2.868169e+10 -3.297177e+09
-5.013451e+10 -2.927074e+10 1.339478e+09
-7.600892e+08 -3.423609e+10 -1.178102e+09
-2.850894e+09 -3.508887e+10 -2.107225e+08
-1.002148e+10 2.808180e+10 -1.283467e+09
3.683833e+10 -3.417773e+08 -4.068367e+08
2.656306e+10 -2.964642e+09 1.504267e+09
2.131898e+10 3.373436e+10 -2.663844e+08
8.233312e+09 -3.728238e+10 3.060442e+09
-9.007952e+09 -4.044144e+10 -4.876487e+08
-2.397418e+10 -2.996137e+10 9.088261e+08
1.112772e+10 3.581384e+10 -1.395577e+09
-3.168115e+10 9.742904e+08 1.785463e+07
-1.567431e+10 4.318492e+10 -2.133405e+08
1.533098e+10 3.545672e+10 -2.282413e+09
-3.836776e+10 -2.359883e+10 -3.281839e+09
2.869726e+10 1.009809e+10 -1.707664e+09
-1.938352e+10 2.895608e+10 9.361938e+08
3.413229e+10 2.472456e+09 -5.922120e+08
2.564145e+10 2.583115e+10 -1.765185e+09
-2.265218e+10 -3.467396e+10 -1.951181e+09
-1.506825e+10 -2.404765e+10 -7.315054e+08
3.877547e+10 -1.526814e+10 5.530125e+08
8.117494e+09 -4.522351e+10 -2.669038e+07
-6.193683e+09 -2.938328e+10 -5.227920e+08
-4.114844e+09 4.282541e+10 -2.065851e+07
-4.552300e+10 -2.372741e+10 -3.651960e+09
6.086750e+10 -4.079063e+09 1.418671e+09
4.837386e+10 6.655601e+09 -4.516469e+08
2.600932e+10 1.348894e+10 -3.000019e+09
-3.366512e+10 2.947360e+09 5.866662e+08
-6.571738e+09 -4.603849e+10 -2.966351e+09
-1.787498e+10 -2.342145e+10 1.180199e+09
1.396456e+10 -5.257856e+10 -7.895893e+08
-1.863559e+10 -2.513432e+10 -4.308733e+08
-4.591911e+09 -2.919870e+10 1.423842e+09
3.036080e+09 -2.097275e+10 4.585789e+08
4.473397e+09 -2.545262e+10 4.863336e+08
-9.731668e+09 -3.199259e+10 3.698279e+08
-1.079355e+10 3.426758e+10 9.241576e+08
1.269882e+10 -2.268420e+10 -2.855000e+09
-3.663051e+10 2.394214e+10 1.956177e+08
-2.104314e+10 -2.401972e+10 -6.092706e+08
-1.294381e+10 -2.427150e+10 -7.000080e+08
2.288119e+10 3.101094e+10 -8.597259e+08
-3.131419e+10 -1.695671e+10 -2.092206e+08
2.500700e+10 -3.058228e+10 8.779457e+08
-2.910740e+10 2.173516e+10 9.705954e+08
5.871819e+09 5.439532e+10 1.667709e+09
1.267673e+10 2.973402e+10 -2.602314e+09
2.463321e+10 2.140137e+10 1.507931e+09
-1.306174e+10 2.703127e+10 1.513789e+09
-4.924217e+10 1.103175e+10 -2.429698e+09
-3.089864e+10 3.337795e+10 -1.714720e+09
-1.211055e+10 -2.391496e+10 -5.614372e+08
-3.087111e+10 -1.524349e+10 8.737311e+08
-4.003675e+10 4.331253e+10 -1.581029e+09
2.584799e+10 4.759388e+08 -1.597485e+09
2.960861e+10 -2.066433e+10 4.564581e+08
-4.037335e+10 -4.233364e+10 1.822318e+09
5.598324e+10 2.275946e+10 1.521670e+09
-2.384969e+10 6.562945e+09 1.637908e+09
-8.703765e+08 3.449278e+10 3.733279e+08
-4.435556e+10 9.926681e+09 9.710255e+08
2.848376e+10 -6.683905e+09 2.140791e+09
-9.065823e+09 -2.025495e+10 -1.057231e+09
1.916743e+10 4.335037e+10 -1.174421e+09
-1.412193e+10 -2.302513e+10 -1.004468e+09
2.429508e+10 -2.453744e+09 6.682909e+08
-4.064110e+10 -3.068185e+09 1.921131e+09
-4.543694e+10 2.963073e+10 3.765024e+06
-3.200793e+10 -3.736710e+10 -1.889747e+09
-2.220550e+10 8.182233e+09 2.036580e+09