# vtk DataFile Version 2.0
Electric current density generated by TTH
ASCII
DATASET UNSTRUCTURED_GRID
POINTS 24569 double
4.467688e-05 -1.094268e-20 -5.747840e-23
4.465718e-05 1.326705e-06 -5.747840e-23
4.231378e-05 1.433764e-05 -5.747840e-23
-4.414059e-05 -6.901620e-06 -5.747840e-23
-4.418808e-05 -6.250447e-06 -1.434213e-07
2.665602e-05 3.526712e-05 -6.212784e-09
2.436253e-05 3.688877e-05 -6.212784e-09
1.622389e-05 4.112298e-05 -6.212784e-09
3.399843e-05 -2.825634e-05 -6.212784e-09
1.406660e-05 4.190996e-05 -6.212784e-09
1.972184e-05 3.956467e-05 -6.212784e-09
3.248529e-05 -2.998366e-05 -6.212784e-09
4.129987e-05 1.577300e-05 -2.912040e-08
1.801990e-06 4.436750e-05 2.315543e-07
-4.411757e-05 -7.047246e-06 -5.747840e-23
-1.006980e-06 4.425613e-05 1.567744e-07
-2.842525e-05 -3.440001e-05 -1.476585e-07
-1.792612e-05 -4.086575e-05 -1.476585e-07
-3.275208e-05 -3.030935e-05 -1.476585e-07
1.255150e-05 -4.282079e-05 -1.503228e-07
-3.197568e-06 -4.450990e-05 -1.476585e-07
1.421870e-05 -4.229875e-05 -1.476585e-07
-3.950194e-05 -2.075469e-05 -1.503228e-07
-4.028603e-05 -1.919352e-05 -1.476585e-07
-7.756938e-07 -4.461787e-05 -1.476585e-07
-4.409408e-05 -7.192795e-06 -5.747840e-23
-2.032050e-05 -3.972950e-05 -1.476585e-07
2.086264e-05 3.911919e-05 2.085708e-07
3.163574e-05 3.090008e-05 8.261967e-08
1.600386e-05 -4.139292e-05 -2.260055e-07
3.640595e-05 -2.579767e-05 1.535823e-07
-1.725407e-05 4.088811e-05 2.261406e-07
-3.117423e-05 3.158610e-05 2.260569e-07
-1.312923e-05 4.239266e-05 2.260574e-07
-3.338199e-05 2.924352e-05 -2.261411e-07
9.156846e-06 4.341225e-05 -2.224501e-07
-4.407010e-05 -7.338265e-06 -5.747840e-23
1.215533e-05 4.267429e-05 -2.238278e-07
4.394062e-05 -7.749585e-06 1.545976e-07
2.032980e-05 3.926115e-05 -4.767059e-08
4.634705e-06 4.401226e-05 1.423184e-07
4.415528e-05 5.474668e-06 -2.290274e-07
4.456133e-05 2.215532e-06 -1.572822e-07
4.228465e-05 -1.379196e-05 2.320698e-07
4.207856e-05 1.357865e-05 -5.950896e-08
-4.381692e-05 5.921934e-06 -5.980860e-08
-2.929288e-05 -3.338864e-05 -2.333206e-07
-4.404565e-05 -7.483656e-06 -5.747840e-23
-2.439912e-05 -3.711546e-05 -2.333206e-07
-2.347878e-05 -3.770439e-05 -2.333206e-07
7.551761e-06 -4.377037e-05 -2.333206e-07
-1.077147e-05 -4.309118e-05 -2.333206e-07
-4.241943e-05 -1.317066e-05 -2.333206e-07
-2.963103e-06 -4.431822e-05 -2.333331e-07
-3.244992e-05 -3.032965e-05 -2.333331e-07
-4.019295e-05 -1.890534e-05 -2.333331e-07
-3.940526e-05 -2.046237e-05 -2.310959e-07
-2.846245e-05 -3.409946e-05 -2.333331e-07
-4.402071e-05 -7.628965e-06 -5.747840e-23
-1.804415e-05 -4.058686e-05 -2.333331e-07
1.268581e-05 -4.256706e-05 -2.333331e-07
-2.042177e-05 -3.944409e-05 -2.333331e-07
1.436108e-05 -4.203146e-05 -2.333331e-07
-9.921724e-07 -4.440608e-05 -2.333331e-07
4.361415e-05 -7.374305e-06 1.066782e-07
-2.831020e-05 3.395640e-05 -3.234959e-08
-2.749623e-05 3.461881e-05 -3.234960e-08
-3.621602e-05 2.606017e-05 1.558902e-07
-1.815475e-05 4.075705e-05 1.558902e-07
-4.399529e-05 -7.774192e-06 -5.747840e-23
4.420819e-05 2.609181e-06 1.743360e-07
-4.150609e-06 4.401406e-05 -2.894816e-08
-2.418789e-05 3.700532e-05 2.734692e-08
1.957114e-05 -4.010712e-05 1.440526e-07
-1.495212e-05 4.181547e-05 2.322145e-07
3.572830e-05 -2.603519e-05 -1.388617e-08
2.415554e-05 3.702503e-05 -1.388609e-08
4.445449e-05 -3.814465e-06 1.556453e-07
4.347612e-05 -9.395559e-06 2.316498e-07
4.215087e-05 1.420544e-05 2.315736e-07
-4.396940e-05 -7.919333e-06 -5.747840e-23
3.677433e-05 2.484653e-05 -2.266356e-07
2.626887e-05 -3.577217e-05 2.266356e-07
4.066219e-05 -1.778448e-05 2.266356e-07
2.411336e-05 -3.725940e-05 2.266822e-07
3.523446e-05 2.698581e-05 -2.266356e-07
-3.864935e-05 2.187265e-05 2.323527e-07
-3.712266e-05 2.437403e-05 -2.323527e-07
-4.386724e-05 -6.971009e-06 -2.333871e-07
-4.444135e-05 -3.803129e-06 1.701979e-07
1.815482e-05 -4.057110e-05 2.346056e-07
-4.394303e-05 -8.064388e-06 -5.747840e-23
7.369463e-06 -4.401244e-05 -1.469849e-07
-1.103601e-05 -4.323899e-05 -1.469849e-07
-4.255218e-05 -1.344308e-05 -1.469849e-07
-2.469764e-05 -3.716760e-05 -1.469849e-07
-2.340106e-05 -3.799730e-05 -1.469849e-07
-2.959574e-05 -3.339904e-05 -1.469849e-07
3.869825e-05 -2.142181e-05 1.038403e-07
4.206336e-05 -1.360136e-05 9.439866e-09
4.462033e-05 1.658891e-07 1.524266e-07
4.390752e-05 -5.177131e-06 4.389690e-08
-4.391618e-05 -8.209356e-06 -5.747840e-23
3.449646e-05 2.777626e-05 1.778600e-07
2.313799e-05 -3.776454e-05 -1.778697e-07
-3.758734e-05 2.405521e-05 -1.461805e-07
-3.906914e-05 2.155205e-05 1.538970e-07
-4.183951e-05 1.550846e-05 -1.516928e-07
-1.456411e-05 4.217553e-05 1.538962e-07
-3.023130e-05 3.282078e-05 -1.506595e-07
-4.448213e-05 -3.523589e-06 1.514555e-07
-4.365020e-05 7.907664e-06 -2.200592e-07
-3.025093e-06 4.451970e-05 -1.503945e-07
4.226624e-05 1.447720e-05 -5.747840e-23
-4.388885e-05 -8.354234e-06 -5.747840e-23
-4.391002e-05 -6.950937e-06 2.342209e-07
-4.056109e-05 1.859324e-05 1.536098e-07
-3.234753e-05 3.073351e-05 1.536098e-07
-4.365397e-05 -7.197236e-06 -1.245213e-07
-2.854628e-05 -3.380205e-05 -1.245067e-07
-4.014345e-05 -1.860033e-05 -1.245067e-07
-3.214827e-05 -3.039667e-05 -1.245067e-07
-1.820617e-05 -4.032374e-05 -1.245067e-07
7.772878e-06 -4.355515e-05 -1.245025e-07
-4.232824e-05 -1.287588e-05 -1.245025e-07
-4.386104e-05 -8.499021e-06 -5.747840e-23
-2.360257e-05 -3.742175e-05 -1.245025e-07
4.002542e-05 -1.876896e-05 -3.473440e-09
4.252502e-05 1.208020e-05 3.481465e-09
2.496806e-05 -3.648157e-05 -3.481914e-09
3.578809e-05 2.595228e-05 3.481914e-09
4.106905e-05 -1.635976e-05 -3.481916e-09
2.251622e-05 -3.804574e-05 2.837620e-08
-5.797173e-06 4.388675e-05 -1.572146e-07
4.420607e-05 4.892662e-07 -2.408342e-08
-4.567569e-06 4.438192e-05 1.573269e-07
-4.383275e-05 -8.643716e-06 -5.747840e-23
2.147290e-05 3.884745e-05 -2.280972e-07
1.924630e-05 3.999500e-05 -2.275700e-07
2.628954e-05 3.575902e-05 -2.270714e-07
2.058120e-05 3.932561e-05 -2.277643e-07
2.945490e-05 3.320395e-05 -2.277752e-07
3.204840e-05 3.105140e-05 -1.485708e-07
4.266057e-05 -1.239797e-05 2.340845e-07
-2.127632e-05 -3.899469e-05 -2.337555e-07
6.806822e-07 -4.441626e-05 -2.337555e-07
-1.650468e-05 -4.124152e-05 -2.337555e-07
-4.380399e-05 -8.788316e-06 -5.747840e-23
-3.861755e-05 -2.195342e-05 -2.337555e-07
-3.357221e-05 -2.908908e-05 -2.337555e-07
-2.649346e-05 -3.565619e-05 -2.337555e-07
-3.116553e-05 -3.165403e-05 -2.337555e-07
-1.489868e-05 -4.184850e-05 -2.337555e-07
-3.403382e-05 2.885016e-05 -1.571454e-07
-4.287463e-05 1.233371e-05 1.605301e-07
-9.198001e-06 4.365809e-05 -1.571448e-07
-2.273496e-05 3.839018e-05 1.564878e-07
-3.297544e-05 3.005840e-05 -1.539192e-07
-4.377475e-05 -8.932821e-06 -5.747840e-23
-4.307368e-05 1.163145e-05 1.571420e-07
-2.801509e-05 3.470573e-05 1.719288e-07
3.406220e-05 -2.826517e-05 -1.507087e-07
2.666190e-05 3.533124e-05 -1.507087e-07
2.442101e-05 3.691568e-05 -1.507087e-07
1.627556e-05 4.116139e-05 -1.507087e-07
1.405180e-05 4.197261e-05 -1.507087e-07
1.971584e-05 3.962877e-05 -1.507087e-07
3.250244e-05 -3.004571e-05 -1.507087e-07
2.158160e-05 -3.858885e-05 5.409803e-08
-4.374503e-05 -9.077228e-06 -5.747840e-23
2.146887e-05 -3.865451e-05 6.361693e-08
-4.122038e-05 1.708152e-05 -1.537743e-07
-7.611269e-06 4.396501e-05 1.543544e-07
4.323489e-05 9.238702e-06 -3.995360e-08
4.357476e-05 -9.694161e-06 -1.261716e-07
-1.830975e-05 4.067976e-05 -1.636378e-07
-3.631096e-05 2.591532e-05 -1.636378e-07
-1.799780e-05 4.081829e-05 -1.640517e-07
-3.611129e-05 2.619214e-05 -1.640517e-07
-3.306921e-05 2.992927e-05 1.719193e-07
-4.371484e-05 -9.221537e-06 -5.747840e-23
-2.287584e-05 3.829864e-05 -1.636365e-07
4.298985e-05 -1.193891e-05 -1.567410e-07
-1.334209e-05 -4.241121e-05 2.339715e-07
-2.129570e-05 3.920947e-05 1.538899e-07
-2.258198e-05 3.847216e-05 -1.640555e-07
-3.285327e-05 3.018102e-05 1.619839e-07
3.827996e-05 -2.292190e-05 1.554340e-07
3.869033e-05 -2.158521e-05 -1.898053e-07
-1.299147e-05 -4.269971e-05 1.375981e-07
-2.564821e-05 -3.652670e-05 1.377943e-07
-4.368417e-05 -9.365745e-06 -5.747840e-23
5.362792e-06 -4.430896e-05 1.375981e-07
-3.044865e-05 -3.263296e-05 1.377943e-07
-4.200507e-05 -1.508657e-05 1.377943e-07
1.171892e-05 -4.306631e-05 1.376439e-07
-1.185801e-05 -4.302811e-05 1.377943e-07
-4.229553e-05 -1.425197e-05 1.377943e-07
6.532317e-06 -4.415155e-05 1.377943e-07
-4.043425e-06 -4.444875e-05 1.376439e-07
-1.355412e-05 -4.252558e-05 1.360994e-07
-2.242087e-05 -3.859191e-05 1.377943e-07
-4.365303e-05 -9.509851e-06 -5.747840e-23
-4.371431e-05 7.945504e-06 2.343824e-07
1.114320e-06 4.461813e-05 -1.379669e-07
2.721726e-06 4.414064e-05 8.753166e-08
-4.420958e-05 -1.536662e-06 -1.125294e-07
2.754580e-05 -3.461619e-05 1.166491e-07
3.758781e-05 2.332828e-05 -1.166491e-07
2.904124e-05 3.333105e-05 -1.570167e-08
2.085316e-05 3.898232e-05 -2.991437e-08
1.881103e-05 4.000621e-05 -1.554902e-08
2.174712e-05 3.848979e-05 -2.237841e-08
-4.362141e-05 -9.653854e-06 -5.747840e-23
3.002217e-05 -3.246444e-05 -7.069126e-08
4.282928e-05 -1.103399e-05 9.534016e-08
-4.203044e-05 1.370599e-05 -2.361484e-08
-3.683107e-05 2.445216e-05 2.619690e-08
-4.327286e-05 9.048385e-06 -2.384921e-08
-3.836355e-05 2.196984e-05 -2.619696e-08
4.392426e-05 5.179193e-06 9.705687e-08
-1.507992e-05 4.155829e-05 -3.157892e-08
-1.911002e-05 3.986589e-05 3.048434e-08
-3.479173e-05 2.755539e-05 2.268235e-07
4.221823e-05 1.461660e-05 -5.747840e-23
-4.358931e-05 -9.797751e-06 -5.747840e-23
-1.059059e-05 4.309992e-05 2.268235e-07
-3.807739e-06 4.421691e-05 -2.264311e-07
-4.826959e-06 4.411893e-05 -2.268688e-07
-4.122457e-05 1.643671e-05 2.264211e-07
-8.163664e-06 4.362857e-05 -2.277883e-07
-8.426400e-06 4.358044e-05 -2.282304e-07
-4.303926e-05 1.085685e-05 2.282033e-07
4.357946e-05 -7.446607e-06 -4.071797e-08
-3.040431e-05 -3.236474e-05 2.318736e-07
-2.564135e-05 -3.625493e-05 2.318736e-07
-4.355674e-05 -9.941542e-06 -5.747840e-23
5.184639e-06 -4.410236e-05 2.318736e-07
-2.217697e-05 -3.847182e-05 2.318736e-07
3.224920e-05 3.055113e-05 -2.338665e-07
4.369639e-05 6.706036e-06 -1.431698e-08
3.222242e-05 3.087904e-05 1.413003e-07
[...]
POINT_DATA 24569
VECTORS 10.000GHz_fone_imag double
1.622980e-04 -7.510437e-05 3.113035e-02
-4.903241e-04 1.816168e-04 3.117993e-02
-3.235764e-04 -1.243708e-04 3.110039e-02
-7.199765e-05 1.710074e-04 3.103254e-02
-1.882162e-02 -2.580438e-03 2.490207e-02
5.338026e-04 6.667061e-04 -3.271483e-02
4.566123e-04 7.428188e-04 -3.269181e-02
2.974715e-04 8.105857e-04 -3.270725e-02
5.464211e-04 -4.848473e-04 -3.268510e-02
1.494490e-04 6.491864e-04 -3.276258e-02
2.633309e-04 6.243017e-04 -3.270603e-02
5.307876e-04 -5.916591e-04 -3.275727e-02
3.311237e-03 1.075784e-03 -3.212998e-02
-1.152978e-03 -3.128887e-02 -5.688185e-03
-5.942824e-04 -2.936842e-04 3.117558e-02
4.805379e-04 -2.148416e-02 -2.428001e-02
-1.292743e-02 -1.561858e-02 2.412267e-02
-8.160719e-03 -1.855719e-02 2.412217e-02
-1.485534e-02 -1.371801e-02 2.409325e-02
5.869553e-03 -1.966552e-02 2.397999e-02
-1.445158e-03 -2.017414e-02 2.415947e-02
6.455505e-03 -1.910711e-02 2.417316e-02
-1.826087e-02 -9.519851e-03 2.390379e-02
-1.825851e-02 -8.682897e-03 2.414085e-02
-3.773730e-04 -2.017226e-02 2.419414e-02
-3.113822e-04 -1.823164e-04 3.111605e-02
-9.214578e-03 -1.800237e-02 2.415137e-02
-1.318777e-02 -2.499921e-02 -1.514648e-02
-7.904775e-03 -7.759544e-03 -3.045342e-02
1.115171e-02 -2.873865e-02 -9.271612e-03
-1.674335e-02 1.176153e-02 2.365991e-02
1.193247e-02 -2.811922e-02 -8.646492e-03
2.154955e-02 -2.167146e-02 -8.666948e-03
9.112132e-03 -2.917074e-02 -8.679899e-03
-2.296071e-02 2.015823e-02 -8.656606e-03
6.064903e-03 2.958155e-02 -1.032947e-02
2.112770e-04 -1.360547e-04 3.137045e-02
8.106129e-03 2.925164e-02 -9.836100e-03
-2.133727e-02 3.656173e-03 2.260306e-02
2.983786e-03 5.497506e-03 -3.178814e-02
-1.858904e-03 -1.915288e-02 -2.594478e-02
3.056855e-02 4.056505e-03 6.646035e-03
2.112945e-02 9.982839e-04 2.322550e-02
-2.993603e-02 9.609786e-03 4.248675e-03
8.001757e-03 2.656480e-03 -3.142319e-02
-7.956430e-03 1.578977e-03 -3.143987e-02
-2.060117e-02 -2.369315e-02 -3.854345e-03
1.558100e-04 3.007009e-05 3.117352e-02
-1.713058e-02 -2.631432e-02 -3.851247e-03
-1.672108e-02 -2.656743e-02 -3.867254e-03
5.498029e-03 -3.089063e-02 -3.855047e-03
-7.458737e-03 -3.046202e-02 -3.839442e-03
-3.005810e-02 -9.172308e-03 -3.840422e-03
-1.851469e-03 -3.124659e-02 -3.843727e-03
-2.277046e-02 -2.152584e-02 -3.854076e-03
-2.845528e-02 -1.319270e-02 -3.836884e-03
-2.775526e-02 -1.422949e-02 -6.083214e-03
-2.024272e-02 -2.398245e-02 -3.869081e-03
3.688961e-04 2.950138e-08 3.109717e-02
-1.289992e-02 -2.860486e-02 -3.845998e-03
9.168745e-03 -3.002431e-02 -3.818384e-03
-1.460057e-02 -2.768741e-02 -3.855613e-03
1.029996e-02 -2.962330e-02 -3.840905e-03
-8.675044e-04 -3.136487e-02 -3.866138e-03
-1.437932e-02 2.342526e-03 -2.891074e-02
-3.085126e-03 3.463302e-03 -3.232855e-02
-2.646099e-03 3.662322e-03 -3.227716e-02
1.699524e-02 -1.217499e-02 2.336267e-02
8.512882e-03 -1.907083e-02 2.337715e-02
-3.636394e-04 3.120167e-04 3.141776e-02
-2.369751e-02 -1.346789e-03 -2.190130e-02
-2.556133e-04 3.899823e-03 -3.226664e-02
2.139248e-03 -3.153107e-03 -3.228762e-02
-8.594917e-03 1.764498e-02 2.444876e-02
1.050365e-02 -2.964115e-02 -5.357979e-03
1.710807e-03 -1.238218e-03 -3.269004e-02
1.135926e-03 1.609515e-03 -3.264689e-02
-2.065233e-02 1.750017e-03 2.331882e-02
-3.086478e-02 6.710166e-03 4.657712e-03
-2.971903e-02 -1.004238e-02 4.625959e-03
-1.597703e-04 -1.905867e-04 3.110760e-02
2.557259e-02 1.722637e-02 -8.492756e-03
-1.826831e-02 2.484122e-02 -8.484517e-03
-2.824068e-02 1.237693e-02 -8.487041e-03
-1.670666e-02 2.590784e-02 -8.484365e-03
2.447424e-02 1.874114e-02 -8.470296e-03
2.741118e-02 -1.542363e-02 -5.224958e-03
-2.629129e-02 1.714514e-02 -5.297374e-03
-3.097900e-02 -5.087974e-03 -3.832349e-03
2.280373e-02 2.041746e-03 2.167767e-02
-1.298144e-02 2.902148e-02 3.877190e-04
1.744089e-04 -6.750949e-05 3.111855e-02
3.327628e-03 -1.990341e-02 2.414128e-02
-4.999713e-03 -1.950187e-02 2.424425e-02
-1.924699e-02 -6.036914e-03 2.423550e-02
-1.105192e-02 -1.673261e-02 2.427295e-02
-1.055022e-02 -1.716142e-02 2.423072e-02
-1.325662e-02 -1.504302e-02 2.427645e-02
-1.227796e-02 7.053100e-03 -2.906541e-02
-1.026761e-03 4.022558e-04 -3.232114e-02
-2.032299e-02 -6.752179e-05 2.366821e-02
-6.051638e-03 5.286410e-04 -3.198058e-02
3.073149e-04 2.020074e-04 3.143951e-02
-1.903502e-02 -1.537732e-02 -2.112689e-02
1.275807e-02 -2.090559e-02 -2.112891e-02
-1.637610e-02 1.045531e-02 2.470206e-02
1.782633e-02 -9.737210e-03 2.388430e-02
-1.927790e-02 6.968199e-03 2.401314e-02
6.551385e-03 -1.922447e-02 2.388653e-02
-1.377069e-02 1.510577e-02 2.420259e-02
1.992747e-02 1.630837e-03 2.374608e-02
-2.932000e-02 5.236427e-03 -1.155996e-02
-1.252018e-03 2.042141e-02 2.415326e-02
1.401859e-04 -1.617810e-04 3.102626e-02
-6.296000e-05 1.090895e-04 3.122112e-02
3.132238e-02 5.073136e-03 1.526174e-03
1.883372e-02 -8.809693e-03 2.384551e-02
1.502760e-02 -1.446554e-02 2.376700e-02
-1.630316e-02 -2.848381e-03 -2.739718e-02
-1.080130e-02 -1.255073e-02 -2.728361e-02
-1.508895e-02 -6.809589e-03 -2.731498e-02
-1.191586e-02 -1.148372e-02 -2.732144e-02
-6.969036e-03 -1.503268e-02 -2.728559e-02
3.058415e-03 -1.627763e-02 -2.734049e-02
-1.589389e-02 -4.673052e-03 -2.729322e-02
-1.968415e-04 -1.587363e-05 3.123593e-02
-8.954538e-03 -1.390951e-02 -2.729694e-02
2.067127e-04 3.533296e-05 -3.230482e-02
-1.908256e-04 7.719780e-05 -3.228871e-02
-1.904199e-05 -2.026368e-04 -3.229644e-02
-6.378672e-05 -1.982948e-04 -3.230373e-02
1.994187e-04 6.413401e-05 -3.228834e-02
-1.618395e-03 3.156340e-03 -3.226572e-02
-2.857927e-03 2.108771e-02 -2.394531e-02
3.108780e-03 -5.870964e-06 -3.220843e-02
2.111970e-03 -2.138622e-02 2.306677e-02
-4.511586e-05 -5.172691e-05 3.127968e-02
1.498704e-02 2.713555e-02 -7.911853e-03
1.350118e-02 2.794103e-02 -8.256806e-03
1.830574e-02 2.490571e-02 -8.398969e-03
1.434725e-02 2.753960e-02 -8.062134e-03
2.065303e-02 2.315893e-02 -8.169290e-03
1.447747e-02 1.373602e-02 2.428723e-02
-3.041439e-02 8.727382e-03 -2.845746e-03
-1.501292e-02 -2.749162e-02 -3.660351e-03
5.006192e-04 -3.141073e-02 -3.691623e-03
-1.173534e-02 -2.923134e-02 -3.673607e-03
-4.371265e-05 2.293007e-05 3.105216e-02
-2.725968e-02 -1.542402e-02 -3.639614e-03
-2.378272e-02 -2.066671e-02 -3.718140e-03
-1.862951e-02 -2.517159e-02 -3.647360e-03
-2.196313e-02 -2.233217e-02 -3.647923e-03
-1.048630e-02 -2.952494e-02 -3.646572e-03
-1.647517e-02 1.379834e-02 2.319724e-02
2.107011e-02 -6.070421e-03 2.288588e-02
-4.555690e-03 2.102423e-02 2.318081e-02
1.060877e-02 -1.805011e-02 2.320624e-02
-1.516905e-02 1.400529e-02 2.357067e-02
-4.479202e-06 -1.349071e-04 3.110160e-02
2.066326e-02 -5.694098e-03 2.316250e-02
1.456055e-02 -1.805058e-02 2.132001e-02
1.625631e-02 -1.339459e-02 -2.484871e-02
1.248227e-02 1.688988e-02 -2.496534e-02
1.171889e-02 1.741070e-02 -2.493245e-02
7.888646e-03 1.946768e-02 -2.494089e-02
6.549253e-03 2.008780e-02 -2.498513e-02
9.284071e-03 1.894845e-02 -2.497650e-02
1.528157e-02 -1.436093e-02 -2.502180e-02
-3.545968e-03 6.258747e-03 -3.166760e-02
5.573954e-04 -1.671430e-06 3.125594e-02
-4.031784e-03 7.394079e-03 -3.135213e-02
-1.902463e-02 7.970911e-03 2.347235e-02
3.414292e-03 -2.037136e-02 2.350687e-02
5.594332e-03 1.192792e-03 -3.193441e-02
1.701574e-02 -3.975557e-03 2.610695e-02
-9.205502e-03 2.028907e-02 2.251783e-02
-1.811194e-02 1.289586e-02 2.247961e-02
-8.936277e-03 2.042848e-02 2.241536e-02
-1.799902e-02 1.314710e-02 2.243691e-02
1.723179e-02 -1.555261e-02 2.148839e-02
-1.899296e-04 2.258494e-04 3.129054e-02
-1.143009e-02 1.908734e-02 2.245316e-02
1.999829e-02 -5.479738e-03 2.336532e-02
9.543861e-03 3.022643e-02 1.772989e-03
9.953302e-03 -1.834917e-02 2.377270e-02
-1.120052e-02 1.922261e-02 2.237153e-02
1.614795e-02 -1.491222e-02 2.256702e-02
-1.801536e-02 1.076439e-02 2.355321e-02
2.243944e-02 -1.239323e-02 -1.954088e-02
5.544127e-03 1.811446e-02 2.524016e-02
1.086843e-02 1.531767e-02 2.519914e-02
1.537876e-05 -1.133865e-04 3.122625e-02
-2.145131e-03 1.862742e-02 2.521279e-02
1.288956e-02 1.365350e-02 2.519106e-02
1.762232e-02 6.243942e-03 2.530830e-02
-5.028071e-03 1.818600e-02 2.527791e-02
4.928589e-03 1.808010e-02 2.527269e-02
1.779304e-02 5.874243e-03 2.521581e-02
-2.795887e-03 1.852774e-02 2.527113e-02
1.653518e-03 1.876802e-02 2.528741e-02
5.485526e-03 1.780925e-02 2.545443e-02
9.354778e-03 1.628512e-02 2.519643e-02
3.076213e-04 -9.145805e-05 3.152775e-02
3.134312e-02 -5.655746e-03 -2.347290e-03
3.299654e-04 1.821944e-02 2.543586e-02
-7.425370e-04 -1.169947e-02 -2.987586e-02
-1.540755e-02 -5.301893e-04 -2.850340e-02
-9.844142e-03 1.251435e-02 -2.835324e-02
1.345054e-02 8.442986e-03 -2.838643e-02
1.496871e-03 1.874750e-03 -3.244081e-02
2.071767e-03 3.696568e-03 -3.220525e-02
9.140947e-04 2.201411e-03 -3.245220e-02
1.768171e-03 2.966123e-03 -3.236140e-02
2.054542e-04 1.584297e-04 3.113334e-02
6.407406e-03 -6.744723e-03 -3.120829e-02
-1.275992e-02 3.195144e-03 -2.981826e-02
-3.272862e-03 9.649735e-04 -3.239634e-02
3.011624e-03 -2.036003e-03 -3.225824e-02
-3.445423e-03 7.931609e-04 -3.235101e-02
-3.285899e-03 1.930816e-03 -3.225302e-02
-1.331334e-02 -1.655329e-03 -2.960720e-02
-1.568800e-03 4.173369e-03 -3.221608e-02
2.009940e-03 -3.798974e-03 -3.229266e-02
2.389722e-02 -1.910800e-02 -8.312342e-03
-2.798916e-04 6.765203e-05 3.112613e-02
-1.078825e-04 9.811750e-05 3.118055e-02
7.159708e-03 -2.976526e-02 -8.304736e-03
-2.400409e-03 3.052510e-02 -8.736851e-03
-3.302237e-03 3.048469e-02 -8.376390e-03
2.834685e-02 -1.127872e-02 -8.649730e-03
-5.749621e-03 3.038039e-02 -7.979192e-03
-5.884156e-03 3.041749e-02 -7.620638e-03
2.996926e-02 -7.565402e-03 -7.616025e-03
5.513456e-03 -1.169918e-03 -3.218767e-02
2.166843e-02 2.298776e-02 -5.056061e-03
1.827851e-02 2.574291e-02 -5.077267e-03
3.691433e-04 -2.423659e-04 3.126119e-02
-3.636953e-03 3.137562e-02 -5.055309e-03
1.571728e-02 2.737943e-02 -5.073068e-03
2.288349e-02 2.174644e-02 -3.278150e-03
1.386859e-03 3.228666e-04 -3.230225e-02
-1.393924e-02 -1.308467e-02 2.473336e-02
2.681317e-02 1.449577e-02 -1.062502e-02
9.766681e-03 -6.174001e-03 -3.023648e-02
1.534121e-02 2.479324e-03 2.697524e-02
-1.888079e-02 8.167221e-03 2.354149e-02
-1.687785e-03 3.165525e-02 -4.093597e-03
9.495124e-06 2.911948e-04 3.134734e-02
-6.580792e-03 -8.567910e-05 -3.173311e-02
1.462732e-02 4.755896e-03 -2.825615e-02
-1.953759e-02 1.033112e-02 2.251555e-02
-2.770153e-02 4.026668e-03 -1.573856e-02
-3.134395e-02 1.217445e-03 4.292851e-03
-1.868497e-02 2.555433e-02 -3.949370e-03
2.860070e-02 -1.363791e-02 -3.973992e-03
-2.990469e-02 1.049886e-02 -3.960633e-03
-2.698178e-02 1.663522e-02 -3.987428e-03
2.800394e-02 -1.484517e-02 -3.896500e-03
6.460480e-06 -9.028791e-05 3.126718e-02
-2.106626e-02 2.367018e-02 -3.978903e-03
9.856390e-03 -3.012267e-02 -3.918444e-03
2.261769e-02 -2.220087e-02 -3.885530e-03
1.659000e-02 5.902354e-03 2.560072e-02
-1.407761e-02 2.845535e-02 -4.004898e-03
1.118574e-02 -2.972114e-02 -4.012920e-03
-3.079193e-02 7.531292e-03 -3.957101e-03
-1.767674e-02 2.633262e-02 -3.995791e-03
1.907367e-02 -2.530470e-02 -3.997375e-03
-2.238185e-02 2.164282e-02 5.618992e-03
-1.870560e-04 2.172820e-04 3.135959e-02
5.680325e-03 -1.992836e-02 2.375768e-02
-2.086298e-02 3.158008e-03 -2.470024e-02
2.121739e-04 3.159598e-02 -3.432235e-03
1.491277e-02 -3.145439e-03 -2.838476e-02
1.529416e-03 -2.071751e-02 2.334465e-02
1.577490e-02 -1.350279e-02 2.331722e-02
1.237144e-02 1.401374e-02 2.506644e-02
8.335439e-03 1.715610e-02 2.482088e-02
9.292493e-03 1.663627e-02 2.475519e-02
1.150323e-02 1.559505e-02 2.482307e-02
-1.646677e-04 -3.305954e-04 3.120184e-02
8.614666e-03 1.653300e-02 2.511240e-02
-1.483680e-02 -2.784364e-02 -4.503672e-03
-1.323187e-02 1.377573e-02 2.462250e-02
1.427572e-02 1.508278e-02 2.379391e-02
6.619708e-03 -1.885393e-02 2.424338e-02
-5.531248e-04 -1.998462e-02 2.423851e-02
-9.285921e-03 -1.768238e-02 2.423862e-02
-1.179868e-03 -1.996544e-02 2.424604e-02
-2.135465e-02 1.177256e-03 2.313849e-02
-2.277627e-02 -9.381136e-03 -2.097280e-02
-1.394074e-05 4.645284e-05 3.121172e-02
-4.696245e-03 -1.943497e-02 2.425296e-02
-1.733016e-03 2.133149e-02 2.300461e-02
-4.218355e-03 2.100266e-02 2.284841e-02
1.693220e-02 1.396947e-02 2.265923e-02
1.846918e-02 1.189402e-02 2.265074e-02
2.149453e-02 4.654370e-03 2.264183e-02
-7.595182e-04 2.133635e-02 2.306830e-02
1.688079e-02 1.312829e-02 2.301128e-02
1.792790e-02 1.279220e-02 2.269122e-02
2.936737e-03 2.118547e-02 2.301336e-02
3.334135e-04 -5.679323e-05 3.145077e-02
1.070145e-03 2.205735e-02 2.258885e-02
2.160215e-02 3.464048e-03 2.263256e-02
2.002549e-03 1.859539e-02 2.528866e-02
4.653031e-03 1.719835e-03 -3.205607e-02
-1.790611e-02 1.310043e-02 2.253269e-02
-6.174307e-03 -3.110036e-02 -2.479362e-03
6.896784e-03 -3.084254e-02 -2.432732e-03
-2.611799e-02 -1.797782e-02 -2.504637e-03
-4.749497e-03 -3.129625e-02 -2.506377e-03
-3.057066e-02 -7.922263e-03 -2.424824e-03
4.221156e-05 1.952997e-04 3.123834e-02
-6.789002e-03 -3.092409e-02 -2.500806e-03
-2.729529e-02 -1.597206e-02 -2.437038e-03
-3.078456e-02 -7.049974e-03 -2.406205e-03
-2.522450e-02 -1.910408e-02 -2.502886e-03
-2.644716e-02 -1.739567e-02 -2.486158e-03
-3.116656e-02 -5.401420e-03 -2.418809e-03
-5.549951e-03 -3.122827e-02 -2.469843e-03
-2.420224e-02 -2.039249e-02 -2.495629e-03
-2.561587e-02 -1.866958e-02 -2.372042e-03
2.142420e-03 -3.157828e-02 -2.495896e-03
1.185005e-04 -2.011441e-04 3.130945e-02
1.158836e-02 1.444547e-02 2.536099e-02
-5.714713e-03 1.765974e-02 2.530013e-02
7.192584e-03 1.708209e-02 2.535990e-02
1.661542e-02 8.076972e-03 2.529483e-02
1.364664e-02 1.244368e-02 2.530921e-02
8.278074e-03 1.649207e-02 2.530336e-02
4.724151e-05 1.849710e-02 2.535073e-02
1.624893e-02 8.857814e-03 2.535963e-02
3.188505e-02 2.146813e-04 -1.257826e-03
-1.381632e-02 -1.222646e-02 2.518511e-02
-3.101037e-04 2.749898e-05 3.103763e-02
9.245456e-05 3.489644e-04 3.124222e-02
7.082259e-03 -2.346062e-03 -3.160826e-02
4.796010e-03 -5.735191e-03 -3.160580e-02
3.528020e-03 -6.804804e-03 -3.164460e-02
-6.263490e-03 4.096079e-03 -3.159662e-02
-5.880885e-03 4.602275e-03 -3.161308e-02
-1.823291e-03 7.243389e-03 -3.162205e-02
7.362438e-03 -1.526767e-03 -3.161332e-02
4.394064e-03 -6.280736e-03 -3.162959e-02
-4.098340e-03 6.239062e-03 -3.160069e-02
6.515937e-03 -3.701140e-03 -3.160464e-02
2.910056e-05 -1.246187e-04 3.120469e-02
-6.889879e-03 3.462795e-03 -3.159517e-02
9.094705e-03 -1.773249e-02 -2.546664e-02
1.134330e-02 -1.638722e-02 -2.545927e-02
-1.773877e-02 9.070842e-03 -2.546953e-02
1.911506e-02 -1.944605e-03 2.479725e-02
3.036204e-02 -9.214741e-03 9.109927e-04
2.261739e-02 -1.215689e-03 -2.230926e-02
2.102173e-02 -1.496205e-03 2.333433e-02
-1.523354e-02 1.323738e-02 2.402472e-02
-3.116973e-02 4.973419e-03 -4.363893e-03
2.230748e-04 3.638564e-05 3.113045e-02
-1.944648e-02 -2.102847e-02 -1.463171e-02
-2.106867e-02 -2.306539e-02 -5.764520e-03
1.429159e-02 1.448559e-02 2.349638e-02
1.075018e-02 1.501285e-02 2.539136e-02
-3.193893e-03 1.936382e-02 2.463982e-02
-2.055581e-03 1.836313e-02 2.538759e-02
1.272799e-02 1.338827e-02 2.538562e-02
1.879204e-02 5.935598e-03 2.459361e-02
-5.048432e-03 1.773318e-02 2.536441e-02
1.441222e-03 1.835495e-02 2.533596e-02
1.761455e-04 1.501278e-04 3.144788e-02
4.900300e-03 1.898400e-02 2.463690e-02
9.128726e-03 1.605263e-02 2.539483e-02
-5.351215e-03 8.321398e-04 -3.191414e-02
-4.744498e-03 3.040128e-02 -8.535131e-03
2.922149e-02 9.626566e-03 -8.650314e-03
7.926009e-03 2.972560e-02 -8.546630e-03
2.059476e-02 2.275396e-02 -9.016143e-03
1.725375e-02 2.538174e-02 -9.011505e-03
1.583972e-02 2.631433e-02 -8.990404e-03
1.924648e-02 -5.940562e-03 -2.536233e-02
-9.496844e-05 7.614277e-05 3.125599e-02
1.313888e-02 -1.523779e-02 -2.536334e-02
-1.561051e-02 1.273535e-02 -2.538571e-02
-1.662804e-02 1.141002e-02 -2.532860e-02
-4.527255e-03 1.963593e-02 -2.539071e-02
1.965239e-02 -4.447948e-03 -2.530956e-02
-1.064472e-02 1.698542e-02 -2.533571e-02
1.731379e-02 -1.027554e-02 -2.530354e-02
-1.675406e-02 5.584477e-03 -2.716881e-02
3.142457e-02 5.547719e-03 -2.320581e-04
1.887100e-02 1.082311e-04 -2.608138e-02
2.534275e-05 -2.903273e-04 3.133800e-02
-3.096398e-03 1.198866e-03 -3.222540e-02
-9.032856e-04 1.326993e-04 -3.256611e-02
-3.158473e-03 -2.070588e-02 2.300560e-02
4.529019e-03 -2.047777e-02 2.305009e-02
-1.669022e-02 -1.262679e-02 2.297963e-02
-4.084628e-03 -2.047781e-02 2.301450e-02
1.390156e-03 -2.088543e-02 2.297980e-02
-1.678914e-02 -1.234079e-02 2.314991e-02
-3.669177e-03 -2.055079e-02 2.302304e-02
-4.487160e-03 -2.042493e-02 2.301041e-02
2.608311e-04 3.410730e-04 3.120050e-02
-1.723393e-02 -1.184080e-02 2.301668e-02
-1.600068e-02 -1.343767e-02 2.302009e-02
-1.807909e-02 -1.063826e-02 2.304524e-02
-1.748335e-02 -1.145534e-02 2.303624e-02
-2.027656e-02 -5.267844e-03 2.312672e-02
-2.038389e-02 -4.601787e-03 2.310911e-02
-2.063868e-02 -3.633825e-03 2.302803e-02
-1.063087e-02 -1.502618e-02 2.534461e-02
-1.724802e-02 -6.475752e-03 2.532556e-02
-5.876670e-03 -1.756092e-02 2.524782e-02
-1.645006e-04 8.796975e-06 3.108002e-02
2.134309e-03 -1.828204e-02 2.533839e-02
-1.260762e-02 -1.340126e-02 2.533397e-02
-9.189262e-03 -1.594665e-02 2.534636e-02
-7.746032e-03 -9.859495e-06 -3.163922e-02
1.219374e-02 -1.578379e-02 2.406083e-02
-8.705397e-03 1.793244e-02 2.409278e-02
9.031306e-03 1.065497e-02 -2.912287e-02
1.119690e-02 -8.547563e-03 -2.915639e-02
5.770238e-03 1.272208e-02 -2.912080e-02
3.712327e-03 1.312138e-02 -2.929391e-02
6.936373e-05 -2.560819e-04 3.111344e-02
7.446706e-03 1.208402e-02 -2.911787e-02
2.797799e-03 1.334215e-02 -2.931631e-02
-3.932341e-03 -3.152628e-02 -2.613446e-03
-3.086933e-02 3.115153e-03 -7.782923e-03
-2.028679e-02 -2.296609e-03 2.389091e-02
3.291374e-03 -2.052705e-02 2.342408e-02
-5.742810e-03 1.964626e-02 2.364496e-02
-3.867966e-04 9.500456e-05 -3.249389e-02
-1.928926e-02 1.217402e-02 -2.284945e-02
2.001616e-02 -1.092137e-02 -2.285941e-02
6.386307e-04 6.643942e-05 3.129276e-02
-2.140496e-02 7.835477e-03 -2.283871e-02
7.342016e-03 -2.158422e-02 -2.285617e-02
-1.537624e-02 1.680833e-02 -2.282147e-02
-4.038604e-03 3.155024e-02 -1.272940e-03
-2.932302e-02 4.619455e-03 -1.214626e-02
2.950600e-02 1.170379e-02 2.540450e-04
-1.874532e-02 7.104540e-03 2.429885e-02
1.896115e-02 -6.167830e-03 2.403535e-02
2.717677e-02 1.351650e-02 -1.017244e-02
-2.280817e-03 -2.184632e-03 -3.214867e-02
-5.700005e-04 -2.414975e-04 3.109819e-02
3.684621e-04 2.836047e-04 3.118753e-02
7.071091e-03 1.999517e-02 2.341827e-02
1.259969e-02 1.706842e-02 2.342139e-02
1.022462e-02 1.856185e-02 2.342657e-02
9.404873e-03 1.872768e-02 2.360008e-02
7.374271e-03 1.942070e-02 2.360252e-02
-5.750213e-03 2.011016e-02 2.357541e-02
-6.644554e-03 1.983242e-02 2.356029e-02
9.194963e-03 1.909341e-02 2.339694e-02
2.036505e-02 4.130174e-03 2.359237e-02
-4.346529e-03 2.062377e-02 2.350312e-02
8.269993e-06 1.104536e-04 3.123842e-02
-1.919557e-03 2.073337e-02 2.351746e-02
3.812206e-03 2.050334e-02 2.355624e-02
1.654659e-03 2.087650e-02 2.360045e-02
1.935434e-02 7.698909e-03 2.351102e-02
5.185808e-03 2.025231e-02 2.358135e-02
3.394476e-03 2.080022e-02 2.344134e-02
4.295656e-03 2.043893e-02 2.350637e-02
1.936238e-02 8.304031e-03 2.352845e-02
1.530481e-02 1.435894e-02 2.342123e-02
1.847796e-02 1.042481e-02 2.343003e-02
-3.201983e-04 2.449085e-04 3.125874e-02
1.877710e-02 9.001304e-03 2.364290e-02
1.992942e-02 6.263753e-03 2.352931e-02
2.011281e-02 5.699986e-03 2.338021e-02
1.483384e-02 1.516130e-02 2.341339e-02
3.074180e-04 2.092205e-02 2.350287e-02
1.389168e-02 1.562149e-02 2.358076e-02
1.692562e-02 1.257806e-02 2.335655e-02
1.764717e-02 1.097600e-02 2.359508e-02
1.854145e-02 9.796549e-03 2.351703e-02
1.901877e-02 8.369385e-03 2.359845e-02
-4.094031e-04 -2.351333e-04 3.106827e-02
1.160065e-02 1.738813e-02 2.358352e-02
2.035737e-02 5.499530e-03 2.349445e-02
-3.582601e-03 2.065586e-02 2.340483e-02
2.069086e-02 3.976778e-03 2.349649e-02
1.588669e-02 1.399161e-02 2.338177e-02
-1.605631e-04 2.118930e-02 2.336667e-02
1.619936e-02 1.302071e-02 2.351315e-02
1.481749e-02 1.455808e-02 2.364020e-02
1.799764e-02 1.096026e-02 2.350079e-02
-4.995991e-03 2.055840e-02 2.336842e-02
-3.482396e-04 -4.725222e-06 3.104797e-02
-7.106246e-03 1.985779e-02 2.352851e-02