# vtk DataFile Version 2.0
Electric current density generated by TTH
ASCII
DATASET UNSTRUCTURED_GRID
POINTS 3972 double
-1.670018e-06 3.207867e-05 -2.612990e-22
2.902907e-05 -8.703612e-06 -7.591958e-07
1.641265e-05 2.536030e-05 6.481961e-07
1.484650e-05 -2.659429e-05 -8.838009e-07
2.840445e-05 1.099359e-05 -8.837671e-07
3.158345e-05 2.673411e-06 -8.527016e-07
3.057056e-05 6.478994e-06 -1.048990e-06
-3.121392e-05 5.458475e-06 8.592509e-07
2.077349e-05 2.258420e-05 -1.000605e-06
-3.039110e-05 2.574737e-06 -9.109183e-07
-2.361130e-05 1.890791e-05 6.986236e-07
-2.337013e-06 3.203698e-05 -2.612990e-22
3.049164e-05 8.501323e-06 8.825899e-07
2.642014e-05 1.535417e-05 -9.437043e-07
2.889788e-05 9.131973e-06 -7.598580e-07
2.638514e-05 1.758238e-05 8.448470e-07
4.184850e-07 3.170267e-05 8.458327e-07
2.060473e-05 2.416564e-05 -8.032091e-07
3.156437e-05 -3.092284e-06 8.380113e-07
2.947908e-05 6.883778e-06 7.244526e-07
6.906826e-06 2.964764e-05 8.726151e-07
6.724143e-07 3.044096e-05 8.773959e-07
-3.002997e-06 3.198143e-05 -2.612990e-22
2.595843e-05 1.556059e-05 7.166908e-07
-2.977017e-05 1.091429e-05 8.440064e-07
5.952247e-06 -3.119479e-05 -8.030542e-07
-2.918107e-05 -1.253418e-05 8.017250e-07
3.138914e-05 4.371403e-06 -8.559349e-07
9.202016e-06 2.899046e-05 8.539697e-07
-2.445554e-05 -1.778172e-05 -6.842510e-07
3.144874e-05 -3.795775e-06 -8.669604e-07
-2.990800e-05 1.037234e-05 -8.819333e-07
3.020911e-05 3.870011e-06 -8.826023e-07
-3.667681e-06 3.191204e-05 -2.612990e-22
3.143520e-05 -4.213537e-06 8.373450e-07
1.850568e-05 2.566084e-05 8.938777e-07
-2.911379e-05 8.530430e-06 -7.895125e-07
-7.677772e-06 -3.067407e-05 -9.048861e-07
-3.048509e-05 8.652689e-06 -8.580141e-07
-6.146566e-06 2.965312e-05 7.364979e-07
2.460790e-05 -1.996400e-05 8.591773e-07
1.161497e-05 2.784513e-05 -5.960729e-07
-2.526951e-05 -1.905244e-05 -8.875769e-07
-2.895829e-05 -1.300123e-05 -8.156265e-07
-4.330777e-06 3.182883e-05 -2.612990e-22
-1.815613e-05 2.601407e-05 -8.316768e-07
2.165911e-05 -2.120694e-05 7.658435e-07
2.344858e-05 1.922506e-05 -7.751202e-07
-3.174093e-05 2.053008e-07 -8.167641e-07
-2.173276e-05 2.299535e-05 -8.922218e-07
-2.273718e-05 -2.201542e-05 8.863682e-07
-1.938559e-05 2.370730e-05 9.758299e-07
2.493249e-05 1.946367e-05 -8.987232e-07
1.698180e-05 -2.472445e-05 1.150192e-07
-2.636609e-05 -1.428955e-05 4.429499e-08
-4.991998e-06 3.173184e-05 -2.612990e-22
3.036639e-05 -9.033319e-06 8.636854e-07
1.664850e-05 -2.694633e-05 -8.686957e-07
4.753701e-06 3.013543e-05 -9.157995e-07
-3.042142e-05 -8.989681e-06 -8.329375e-07
-3.032325e-05 -3.109258e-06 8.998717e-07
2.440783e-05 -1.810852e-05 8.354125e-07
1.257859e-05 2.789093e-05 9.629869e-07
1.044810e-05 2.867387e-05 -9.217161e-07
-2.132418e-05 -2.344154e-05 8.578224e-07
2.512193e-05 -1.730647e-05 -9.146571e-07
-5.651059e-06 3.162112e-05 -2.612990e-22
1.917884e-05 2.533402e-05 -7.876293e-07
1.247994e-05 -2.917294e-05 -8.261542e-07
7.486085e-06 3.080506e-05 8.487410e-07
-3.032695e-05 7.704342e-07 -7.885649e-07
-2.335872e-05 -2.149451e-05 -8.152384e-07
-1.429117e-05 -2.833071e-05 -8.254159e-07
-1.019399e-06 -3.171478e-05 -8.254162e-07
8.134833e-06 -3.067055e-05 -8.255268e-07
3.480181e-06 -3.148370e-05 -8.680475e-07
1.972344e-05 -2.477085e-05 -8.761212e-07
-6.307674e-06 3.149672e-05 -2.612990e-22
-2.410865e-05 1.813294e-05 5.904106e-07
-9.444918e-06 -3.029661e-05 8.225064e-07
-8.447982e-07 3.024592e-05 7.085373e-07
2.814357e-05 -1.460299e-05 8.449385e-07
3.087029e-05 7.530281e-06 -7.870602e-07
-7.790958e-06 2.930738e-05 7.779594e-07
-2.435385e-05 2.040295e-05 -7.912084e-07
9.754633e-06 3.023557e-05 -7.918869e-07
2.210474e-05 2.068625e-05 -7.269064e-07
-1.087775e-05 -2.858630e-05 9.580676e-07
-6.961559e-06 3.135868e-05 -2.612990e-22
-3.006794e-05 -4.592366e-07 4.125773e-07
1.151525e-05 -2.775645e-05 -3.580284e-07
-3.024785e-05 -1.807490e-06 -7.552616e-07
2.991504e-05 2.096942e-06 -6.391309e-10
9.284861e-06 2.864876e-05 -5.054505e-07
8.505883e-06 3.060854e-05 7.934447e-07
-3.091621e-05 -7.049770e-06 8.424588e-07
2.041159e-05 -2.298040e-05 -1.018092e-06
3.123319e-05 5.389655e-06 -8.538993e-07
2.931644e-05 -7.985844e-06 8.297028e-07
-7.612430e-06 3.120706e-05 -2.612990e-22
3.010396e-05 1.012538e-05 -7.999065e-07
2.250320e-05 1.986664e-05 2.491805e-07
-1.648420e-05 -2.553417e-05 -8.362213e-07
-4.236607e-06 -3.007206e-05 -8.168223e-07
-3.085627e-05 -7.112643e-06 -8.751292e-07
-2.644716e-05 1.743651e-05 8.663563e-07
1.701957e-05 2.683725e-05 7.838267e-07
-1.982517e-05 -2.477835e-05 -8.236405e-07
2.949087e-05 8.180167e-06 -9.668516e-07
-3.151225e-05 3.735502e-06 8.240079e-07
-8.260007e-06 3.104194e-05 -2.612990e-22
3.011687e-05 -1.001721e-05 8.188561e-07
-2.632513e-05 -1.780053e-05 7.843017e-07
2.613503e-05 -1.545552e-05 8.117349e-07
7.405932e-06 -2.913835e-05 -3.962971e-07
3.051606e-05 -8.597657e-06 -8.468611e-07
1.364209e-05 -2.860740e-05 8.547294e-07
3.811974e-06 -2.983852e-05 -4.347192e-07
1.777658e-05 -2.415639e-05 -9.062999e-08
-1.266020e-06 -3.003002e-05 -3.754697e-07
-1.326797e-05 -2.696973e-05 -3.754740e-07
-8.904008e-06 3.086339e-05 -2.612990e-22
2.673368e-05 1.706614e-05 -8.371306e-07
1.436098e-05 -2.697624e-05 9.452577e-07
-1.468172e-05 2.818197e-05 -7.856746e-07
-1.093312e-05 2.983082e-05 -7.909131e-07
2.685191e-05 -1.378433e-05 6.146759e-07
2.807929e-05 -1.494733e-05 -7.541185e-07
5.584712e-06 -2.949767e-05 -2.642588e-07
4.400262e-06 -2.999176e-05 7.661019e-07
5.714444e-06 2.956883e-05 -5.057641e-07
-1.457042e-05 2.821065e-05 8.086043e-07
-9.544155e-06 3.067147e-05 -2.612990e-22
-1.097936e-05 2.980954e-05 7.945468e-07
1.542917e-05 2.628017e-05 8.950140e-07
-1.282261e-05 -2.745891e-05 7.587278e-07
-1.891249e-06 -3.024624e-05 7.587357e-07
1.903512e-05 2.389147e-05 9.381364e-07
6.944247e-06 -2.949725e-05 7.570759e-07
-2.135153e-05 2.105972e-05 5.758304e-08
-2.546331e-05 1.897142e-05 8.064696e-07
1.965331e-06 -3.172999e-05 7.727501e-07
-3.168985e-05 -2.165681e-06 7.976047e-07
-1.018017e-05 3.046628e-05 -2.612990e-22
-5.438670e-06 3.128132e-05 8.091195e-07
1.738067e-06 3.041348e-05 8.873912e-07
-1.212150e-05 2.742950e-05 7.837153e-09
2.399330e-05 -1.838220e-05 -6.705853e-07
5.281510e-06 -3.135172e-05 7.701955e-07
-2.754970e-05 1.280564e-05 8.262643e-07
3.037033e-05 -3.329018e-06 -9.407903e-07
2.997831e-05 4.754105e-06 8.030223e-07
2.755663e-05 -1.289577e-05 8.606033e-07
2.841853e-05 1.419691e-05 7.943966e-07
-1.081178e-05 3.024790e-05 -2.612990e-22
1.200943e-05 -2.937171e-05 8.246799e-07
2.099200e-06 2.991923e-05 -9.610864e-08
-2.667675e-05 1.452867e-05 8.230353e-07
1.942707e-05 -2.321696e-05 -7.250959e-07
2.987363e-05 -6.994103e-06 9.991919e-07
-7.092790e-06 3.097283e-05 -7.878730e-07
2.817260e-05 1.029807e-05 1.247593e-07
3.007234e-05 -3.024789e-06 6.687662e-07
1.559792e-05 -2.566300e-05 -2.996671e-07
1.943343e-05 2.507885e-05 8.287547e-07
-1.143871e-05 3.001643e-05 -2.612990e-22
1.789589e-05 2.434836e-05 6.606843e-07
-2.970823e-05 6.067732e-06 7.744569e-07
1.419144e-05 2.691592e-05 8.629456e-07
2.578888e-05 -1.599903e-05 -7.991841e-07
3.120141e-05 -5.762476e-06 8.271199e-07
-1.901688e-06 3.173856e-05 -7.682690e-07
3.091750e-05 8.777645e-07 1.059448e-06
2.077000e-05 -2.400236e-05 -8.170663e-07
-2.595016e-05 1.604884e-05 -9.180843e-07
5.490543e-06 3.124094e-05 -8.346353e-07
-1.206069e-05 2.977196e-05 -2.612990e-22
-2.495223e-05 1.966290e-05 7.932902e-07
-3.102077e-05 6.926932e-06 7.784590e-07
-2.816352e-05 1.206924e-05 -9.829709e-07
2.910566e-05 7.654768e-06 4.656560e-07
-2.752973e-05 1.269568e-05 -7.692620e-07
2.306521e-05 2.189567e-05 7.610489e-07
3.841155e-06 3.035459e-05 -9.632257e-07
2.908548e-05 -7.791847e-06 -4.966431e-07
-2.907542e-05 1.267277e-05 8.366784e-07
-2.750461e-05 1.582850e-05 -8.231065e-07
-1.267745e-05 2.951461e-05 -2.612990e-22
-2.175778e-05 -2.092470e-05 -6.196121e-07
-1.959413e-05 -2.494832e-05 8.320348e-07
-7.196844e-06 -3.089586e-05 8.320348e-07
7.920320e-06 2.913380e-05 6.257390e-07
-2.782184e-05 -1.532831e-05 7.965595e-07
9.812990e-06 -3.026054e-05 7.521333e-07
-6.300989e-06 -2.975577e-05 -8.537779e-07
-1.829634e-05 -2.431510e-05 -8.643286e-07
7.839297e-06 3.074440e-05 -8.279137e-07
2.045245e-05 -2.194460e-05 -1.410230e-07
-1.328872e-05 2.924449e-05 -2.612990e-22
-7.817828e-06 2.938834e-05 -8.498681e-07
-2.000723e-05 -2.300380e-05 -9.029540e-07
2.920923e-05 -1.233819e-05 8.436987e-07
-9.594673e-06 -2.901025e-05 9.426498e-07
-2.705859e-05 -1.669972e-05 7.668187e-07
2.582866e-05 -1.844102e-05 -8.212067e-07
-2.802830e-05 1.498083e-05 -7.822626e-07
-1.755278e-05 2.534278e-05 -1.042313e-06
-9.819222e-06 3.026224e-05 -7.485565e-07
-2.788802e-05 -1.143752e-05 5.519160e-07
-1.389424e-05 2.896170e-05 -2.612990e-22
-2.814989e-05 -1.043484e-05 -2.643023e-07
-3.016611e-05 -9.801935e-06 8.355123e-07
2.992315e-05 -5.436842e-06 8.518733e-07
1.635374e-05 2.587624e-05 -9.698584e-07
-2.394033e-05 2.094916e-05 7.519444e-07
-2.261211e-06 2.995822e-05 -3.381097e-07
4.679148e-06 3.146649e-05 7.515044e-07
1.838256e-06 -3.173568e-05 -7.745793e-07
-2.962624e-05 -5.977792e-06 6.677949e-07
1.428171e-05 2.649748e-05 -4.774033e-07
-1.449374e-05 2.866638e-05 -2.612990e-22
3.008689e-05 8.620823e-07 4.734283e-07
2.762637e-05 1.192243e-05 4.526105e-07
-3.006957e-05 -4.291312e-06 8.211687e-07
-2.058285e-05 -2.225186e-05 -7.649989e-07
-2.434704e-05 -1.826708e-05 8.700317e-07
1.271254e-05 2.915287e-05 -7.599046e-07
-1.624237e-05 2.556589e-05 7.423622e-07
-2.530133e-05 1.626433e-05 4.278596e-07
-2.096411e-05 2.203292e-05 8.517463e-07
2.211466e-05 -2.285059e-05 7.643858e-07
-1.508697e-05 2.835865e-05 -2.612990e-22
3.167254e-05 7.881816e-07 -8.630870e-07
1.590573e-05 -2.750671e-05 -7.880508e-07
-3.031044e-05 -3.587580e-06 -9.239960e-07
3.119096e-05 5.976217e-06 8.024079e-07
-2.840360e-05 -1.427176e-05 -7.758338e-07
-3.015970e-05 5.198116e-06 -9.668618e-07
2.739025e-05 -1.621036e-05 7.358747e-07
-1.652375e-05 2.552366e-05 -8.460868e-07
-2.962861e-05 -4.632269e-06 1.444484e-08
-2.325039e-05 -2.024071e-05 1.041995e-06
-1.567367e-05 2.803865e-05 -2.612990e-22
-2.262168e-05 -2.059357e-05 -9.607171e-07
[...]
POINT_DATA 3972
VECTORS 10.000GHz_fone_imag double
2.705402e+10 1.078110e+09 -4.150450e+07
-9.176307e+09 -3.334153e+10 -7.650332e+06
2.830901e+10 -1.838846e+10 2.304877e+07
-2.923608e+10 -1.690168e+10 -1.168223e+09
1.378789e+10 -3.148814e+10 -4.122599e+08
2.728302e+09 -2.965309e+10 6.954702e+08
6.312684e+09 -2.947597e+10 -9.020141e+08
4.230577e+09 2.829637e+10 1.151288e+09
2.596972e+10 -2.275057e+10 -1.071593e+08
3.302317e+09 3.469153e+10 -2.574093e+08
2.377881e+10 2.839300e+10 -1.147860e+09
2.694141e+10 1.300603e+09 1.362725e+08
7.198134e+09 -2.836210e+10 4.116185e+08
1.747675e+10 -2.883979e+10 -8.195786e+08
9.891562e+09 -3.382351e+10 7.968024e+08
1.707087e+10 -2.323883e+10 2.081082e+08
2.924391e+10 -1.663508e+09 1.233832e+09
2.280344e+10 -1.890773e+10 5.729384e+07
-3.451115e+09 -2.863165e+10 9.004690e+08
7.896928e+09 -3.324663e+10 -5.195541e+08
3.357829e+10 -8.572075e+09 -8.068431e+08
3.256782e+10 -8.885072e+08 -2.565193e+08
2.890717e+10 2.462718e+09 -4.714852e+07
1.741522e+10 -2.879834e+10 -8.305038e+08
1.091179e+10 2.725884e+10 -9.227729e+08
-3.168384e+10 -4.981898e+09 -4.097192e+08
-1.209973e+10 2.654296e+10 5.231885e+08
5.645766e+09 -2.844244e+10 1.229546e+09
3.163433e+10 -9.615097e+09 -3.280000e+08
-2.128569e+10 3.121801e+10 1.537150e+09
-3.820359e+09 -2.748398e+10 7.551328e+08
9.506039e+09 2.747931e+10 -3.598873e+08
2.886335e+09 -3.304338e+10 2.069638e+08
2.709477e+10 3.246162e+09 -1.065245e+09
-4.307022e+09 -2.825157e+10 6.545686e+08
2.467288e+10 -1.857593e+10 3.804703e+08
9.417617e+09 3.177792e+10 1.395281e+08
-2.837490e+10 6.447907e+09 -1.105004e+09
7.745919e+09 2.919331e+10 -1.245919e+08
3.288167e+10 6.225962e+09 -3.343356e+08
-1.649830e+10 -2.129039e+10 -8.814961e+08
3.139819e+10 -1.363016e+10 3.054784e+07
-1.709345e+10 2.459782e+10 -7.616279e+08
-1.057478e+10 2.661012e+10 8.373653e+08
2.738533e+10 3.577325e+09 1.711771e+08
2.312249e+10 1.739256e+10 4.456959e+08
-2.507605e+10 -2.608283e+10 1.513143e+09
2.073276e+10 -2.782427e+10 5.517051e+08
1.211161e+08 2.828655e+10 -9.787854e+08
2.120036e+10 1.956009e+10 -3.041048e+08
-1.982819e+10 2.021022e+10 -3.524472e+08
2.566436e+10 2.128770e+10 -1.858305e+08
1.728795e+10 -2.311646e+10 4.856501e+07
-3.050738e+10 -2.095702e+10 -7.108795e+08
-1.752913e+10 3.103863e+10 7.409086e+08
2.798485e+10 4.568916e+09 -8.906456e+08
-8.370118e+09 -2.592409e+10 -5.192685e+08
-2.434196e+10 -1.577448e+10 1.168840e+09
3.235105e+10 -6.499992e+09 1.631658e+09
-7.825264e+09 2.758054e+10 -3.091641e+07
-2.762128e+09 3.453384e+10 3.597960e+08
-2.112562e+10 -2.710215e+10 5.075926e+08
3.006487e+10 -1.391578e+10 6.729762e+08
3.516059e+10 -1.326422e+10 -5.998681e+07
-2.124808e+10 1.871714e+10 -6.989935e+08
-1.710299e+10 -2.778494e+10 -8.645848e+08
2.656549e+10 5.578059e+09 -6.926075e+08
2.255765e+10 -1.699260e+10 -7.784170e+08
-2.599751e+10 -1.114322e+10 -1.319130e+09
2.895927e+10 -7.330982e+09 -7.461067e+08
-1.335963e+09 3.433138e+10 -2.205632e+09
-2.096020e+10 2.192812e+10 7.351875e+08
-2.501184e+10 1.372866e+10 -4.412141e+08
-2.860154e+10 2.285168e+09 -1.517054e+09
-2.830208e+10 -7.527490e+09 5.443367e+07
-2.979563e+10 -4.005042e+09 -4.068610e+08
-2.412181e+10 -1.861932e+10 -7.747722e+08
2.684727e+10 4.930570e+09 -2.165447e+08
2.098201e+10 2.784711e+10 6.004493e+08
-2.839068e+10 8.701437e+09 -5.594812e+08
3.459349e+10 4.269808e+08 -8.901687e+08
-1.250484e+10 -2.508865e+10 2.231757e+08
7.211598e+09 -2.739380e+10 -4.923733e+08
3.334029e+10 7.924668e+09 5.442530e+08
2.135956e+10 2.516480e+10 -2.439572e+08
2.861946e+10 -9.212311e+09 5.326622e+08
2.481649e+10 -2.390512e+10 3.721424e+08
-3.062808e+10 1.141586e+10 -2.805217e+08
2.756353e+10 5.359240e+09 -1.275082e+09
-8.142623e+08 3.556471e+10 6.745966e+08
-3.156703e+10 -1.502042e+10 -2.764852e+08
-2.266248e+09 3.379306e+10 1.264645e+08
2.548792e+09 -3.464105e+10 4.552975e+08
3.231032e+10 -1.097355e+10 1.848392e+08
2.726961e+10 -8.438762e+09 1.322054e+08
-6.713933e+09 2.766860e+10 -2.867749e+08
-2.553686e+10 -2.206315e+10 1.289623e+08
5.434414e+09 -2.770123e+10 6.954442e+06
-9.836438e+09 -3.250268e+10 3.925471e+08
2.568048e+10 8.339190e+09 -4.657001e+08
9.208249e+09 -2.619676e+10 -1.448976e+08
2.213820e+10 -2.706584e+10 -8.043582e+07
-2.672496e+10 2.076154e+10 -1.102214e+09
-3.415018e+10 5.820300e+09 1.668900e+08
-6.251111e+09 2.772347e+10 -6.370436e+07
1.695219e+10 2.422688e+10 1.461232e+09
2.384159e+10 -1.430456e+10 1.111016e+09
-2.185067e+10 1.648538e+10 1.633996e+09
9.301239e+09 -3.309646e+10 6.358863e+08
2.483460e+09 2.744428e+10 1.905007e+09
2.680732e+10 6.709157e+09 4.939040e+08
-1.043490e+10 -2.523879e+10 5.910104e+08
-1.656165e+10 2.550602e+10 9.089612e+07
-1.721278e+10 -2.755359e+10 -5.860583e+08
-3.370202e+10 -9.707396e+09 5.725969e+08
-8.574175e+09 -2.725033e+10 7.517123e+08
-3.034843e+10 -1.307254e+10 -3.615688e+09
-3.518428e+10 -4.474964e+09 3.688686e+07
-2.869962e+10 -2.106673e+10 -4.260628e+08
-3.431600e+10 5.260867e+08 -9.627647e+08
-2.956700e+10 1.624152e+10 -9.521021e+08
2.680572e+10 7.317296e+09 -5.414616e+07
1.444194e+10 -2.406359e+10 -3.075624e+08
-3.016347e+10 -1.519437e+10 1.194316e+09
2.534319e+10 1.462433e+10 1.993678e+09
2.675693e+10 9.457662e+09 -1.720690e+09
-1.614858e+10 -3.043444e+10 1.748805e+08
-1.312097e+10 -2.517628e+10 -1.046195e+08
-3.317182e+10 -7.426769e+09 6.517578e+07
-3.440780e+10 -6.184099e+09 3.014213e+08
3.389944e+10 -7.165804e+09 1.544255e+08
2.669623e+10 1.350693e+10 -1.540010e+09
2.780586e+10 8.510731e+09 9.112444e+08
2.975446e+10 1.065211e+10 1.480728e+09
2.977129e+10 -1.656309e+10 1.021445e+08
-3.199632e+10 1.418639e+10 -3.806612e+07
-3.461629e+10 2.595015e+09 4.608212e+08
2.685462e+10 -1.948666e+10 6.061998e+08
-3.603899e+10 -9.309719e+09 1.364825e+09
2.425185e+10 2.430669e+10 1.264040e+08
1.676659e+10 2.140107e+10 8.510897e+08
-2.805677e+10 -2.785005e+09 1.003495e+09
-1.223812e+09 2.816486e+10 8.464791e+08
2.519671e+10 9.905333e+09 1.173951e+09
2.819199e+10 5.396319e+09 -3.190106e+07
3.430729e+10 -2.082150e+09 -1.139182e+09
3.360957e+10 1.528464e+10 1.050670e+08
-2.125053e+10 -2.610757e+10 1.500914e+08
-2.780722e+10 -4.352478e+09 9.886069e+08
1.468360e+10 3.125372e+10 -1.574532e+09
-3.948038e+09 -3.211645e+10 -5.906735e+08
4.576726e+09 -3.431521e+10 -1.493215e+09
-1.632361e+10 -3.313184e+10 9.031512e+07
1.197536e+10 -2.582597e+10 9.360707e+08
2.588454e+10 8.165247e+09 -1.472607e+09
-2.515934e+10 -9.992693e+09 1.543834e+09
3.536604e+10 -2.327452e+09 4.122337e+08
1.426829e+10 2.868372e+10 -1.504299e+08
-2.586626e+10 -2.301249e+10 3.250440e+08
-6.618705e+09 -3.211852e+10 7.152512e+08
2.762689e+10 5.522703e+09 -4.010040e+08
1.251077e+10 -3.559829e+10 -8.197954e+08
-2.578265e+09 -3.457104e+10 9.848060e+08
-2.806716e+10 -2.070925e+10 7.076498e+08
2.259931e+10 -1.790589e+10 -7.038147e+08
2.495971e+10 1.144183e+10 6.245919e+08
2.934071e+10 -2.011540e+10 8.425141e+08
8.668115e+09 3.349613e+10 -1.055555e+09
3.180277e+10 -1.763755e+10 1.313131e+08
-1.744471e+10 -2.851672e+10 -2.605580e+08
-6.263098e+09 -2.778316e+10 1.625861e+08
2.827825e+10 2.091393e+09 1.279962e+09
9.520409e+08 -3.314193e+10 1.103075e+08
-2.044785e+10 -1.853058e+10 -1.251088e+09
1.725998e+10 2.805174e+10 -6.873872e+08
2.908811e+10 -5.250028e+09 -1.023653e+09
2.555884e+10 8.990560e+09 3.447508e+08
1.865464e+10 2.303762e+10 -7.033745e+08
5.499654e+09 2.875929e+10 1.540364e+08
1.275520e+10 2.905741e+10 -2.613967e+08
8.825792e+09 -3.391009e+10 7.782738e+08
1.426855e+10 3.169327e+10 1.465560e+09
1.933988e+10 -2.054316e+10 -5.846036e+08
3.284984e+10 -4.802448e+09 -1.127452e+08
-1.013815e+10 -3.289961e+10 -8.712550e+08
1.149705e+10 2.566886e+10 1.063003e+09
1.481380e+10 2.458863e+10 7.819979e+08
2.643982e+10 1.107867e+10 -6.174504e+08
-2.722580e+10 3.060049e+10 -2.542106e+08
-2.137634e+10 1.660081e+10 -3.750363e+07
-2.754269e+10 7.085795e+09 1.148750e+08
3.331544e+10 -1.010665e+10 5.386033e+08
-1.426211e+10 2.434013e+10 7.413021e+08
-2.740212e+10 -9.062506e+09 -6.462655e+08
-3.396371e+10 5.656680e+09 -8.680535e+08
-2.638801e+10 2.083228e+10 7.711516e+08
2.705824e+10 -6.889409e+09 -1.369895e+08
-2.684172e+10 -2.374629e+10 -2.464113e+08
2.353214e+10 1.265696e+10 3.999193e+08
3.317265e+10 9.020580e+09 -1.298350e+08
-2.552471e+10 2.367936e+10 5.359395e+07
-1.137556e+10 -2.588706e+10 -2.090473e+08
-3.156097e+10 1.044010e+10 3.116778e+07
-1.517561e+10 2.460134e+10 -1.669478e+09
-1.674784e+10 -2.366083e+10 -1.307700e+06
1.350307e+10 2.619219e+10 -1.049877e+09
2.716386e+10 1.836708e+10 1.490533e+09
2.751878e+10 9.372915e+09 1.441619e+09
-1.304451e+10 3.109147e+10 -4.918277e+08
2.620756e+10 1.115224e+10 6.005982e+08
-1.256063e+10 3.175799e+10 2.659690e+08
-9.510824e+09 2.701805e+10 -5.661345e+06
-5.754333e+09 -3.345360e+10 5.068512e+08
2.786341e+10 -1.698475e+10 1.768919e+08
1.870015e+10 2.028169e+10 1.297521e+09
3.492277e+10 2.721949e+09 7.771844e+08
2.736163e+10 -4.148076e+09 -4.711130e+08
-2.765850e+10 -1.781484e+09 -9.240229e+08
-6.664235e+09 3.267048e+10 -1.306133e+08
3.096374e+10 -1.574229e+10 -6.111214e+08
2.646858e+10 1.286902e+10 2.183724e+09
-9.122707e+08 -3.485850e+10 3.717065e+08
1.300645e+10 -3.263388e+10 -1.173212e+08
-5.516922e+09 3.363425e+10 -1.848695e+09
-2.636571e+10 2.445766e+10 4.725531e+07
-2.121025e+10 2.781723e+10 2.298662e+08
2.508671e+10 -1.168654e+10 -2.377627e+08
2.856353e+10 2.050583e+10 -1.739110e+09
1.852699e+10 2.954714e+10 -8.925856e+08
2.405229e+10 2.297014e+10 -4.854321e+08
-1.880888e+10 -1.994012e+10 5.514137e+08
2.375278e+10 1.337240e+10 -3.463836e+08
5.259107e+08 -2.879656e+10 -1.561644e+08
-2.489222e+10 -1.348131e+10 -5.170907e+08
-4.097514e+09 3.466734e+10 1.263514e+09
6.414950e+09 -2.821680e+10 -8.246250e+08
-1.288109e+10 2.567619e+10 -7.071298e+08
6.264187e+09 3.309240e+10 -2.087901e+07
-1.396246e+10 -2.515482e+10 -9.089490e+08
2.815695e+10 1.822047e+10 -3.407743e+08
-5.854081e+09 3.466728e+10 -5.150498e+08
-2.283227e+10 2.522404e+10 -1.849022e+08
2.417725e+10 1.264529e+10 3.030979e+08
-2.114643e+10 2.519622e+10 -2.112311e+08
-1.443010e+10 2.781798e+10 -6.456050e+08
-1.961337e+10 1.957426e+10 6.263155e+08
-2.027156e+10 -2.868857e+10 1.032258e+09
-2.730882e+10 -1.768503e+10 1.865233e+09
2.798498e+10 4.033093e+09 -2.575695e+08
1.835500e+10 -2.782958e+10 -5.990203e+05
-4.571938e+09 -3.413829e+10 -2.669627e+08
3.427178e+10 7.606603e+09 -1.197855e+09
3.992713e+09 3.230460e+10 6.126485e+08
2.488605e+10 1.461065e+10 -7.610861e+08
3.100524e+10 2.119129e+10 9.166825e+08
2.083756e+10 -3.198931e+10 -5.097363e+08
-2.662224e+10 -2.548381e+10 -8.452059e+08
3.320009e+10 4.143475e+09 -1.116279e+09
2.563587e+10 -2.449229e+10 1.194237e+09
1.938080e+10 -1.944784e+10 5.093934e+08
-9.370405e+09 3.339065e+10 5.009203e+08
-5.790591e+09 2.765452e+10 1.309357e+09
1.786798e+10 2.457725e+10 3.840129e+08
-2.107156e+10 1.854927e+10 -2.473186e+07
2.296691e+10 1.495164e+10 -1.248926e+08
3.489992e+09 3.690699e+10 -1.049787e+09
9.084498e+09 -2.574741e+10 -4.913879e+08
6.929455e+09 2.757173e+10 1.083270e+09
3.419915e+10 6.829064e+09 2.268505e+08
1.992619e+09 3.654467e+10 1.008545e+09
1.091541e+10 2.576212e+10 -1.490102e+07
-2.221080e+10 -2.512918e+10 -7.379449e+08
-2.466702e+10 2.712163e+10 4.761882e+08
2.088046e+10 2.207150e+10 8.099575e+08
3.481103e+10 6.018645e+09 -1.499338e+08
2.312455e+10 1.444947e+10 -2.036196e+08
2.392136e+09 -2.848664e+10 -5.463137e+08
2.874096e+10 -2.151048e+09 3.231179e+08
2.803617e+10 -1.389165e+09 -1.036945e+09
2.820666e+10 -3.329425e+09 2.785679e+08
3.690136e+09 2.735196e+10 2.802560e+08
-1.244015e+10 -3.034978e+10 1.587465e+09
-1.782952e+10 -2.111368e+10 9.379329e+08
1.229269e+10 2.645964e+10 -1.222556e+09
-3.710687e+09 2.834040e+10 -1.282603e+09
1.583371e+10 2.448743e+10 -3.253491e+08
2.383500e+10 1.416901e+10 7.095360e+08
-2.238335e+10 -2.411382e+10 5.536879e+08
-1.434908e+10 -2.721361e+10 -1.531793e+09
-2.370209e+10 -1.577367e+10 -1.158568e+09
2.123845e+10 1.992413e+10 -4.061175e+07
2.110576e+10 1.915243e+10 -5.057207e+08
1.583607e+10 -2.271991e+10 -1.771833e+09
2.411757e+10 1.603687e+10 3.468508e+08
2.891853e+10 -1.376704e+10 4.311371e+07
2.673072e+10 -1.059935e+10 1.265396e+08
-2.009058e+10 -2.405670e+10 -3.717943e+08
2.345345e+10 1.672862e+10 1.852748e+09
-1.543222e+10 -3.105769e+10 4.760417e+08
1.051355e+10 -3.316688e+10 2.785295e+08
-1.155562e+10 -2.465514e+10 -8.747715e+08
-2.199866e+10 3.260958e+10 2.010535e+08
-2.571100e+10 -1.863825e+10 -4.061469e+08
-2.663741e+10 2.229380e+10 -9.796193e+08
-2.608440e+10 -2.115728e+10 6.213824e+08
2.158485e+10 -2.089756e+10 -5.426962e+08
-1.984577e+10 2.576248e+10 8.251039e+08
2.637488e+10 1.257839e+10 -4.593320e+08
2.252412e+10 1.681338e+10 2.688104e+08
2.219294e+10 2.695834e+10 -7.640763e+08
-2.945266e+10 -1.546652e+10 1.726035e+08
2.972112e+10 1.552771e+10 1.832479e+09
7.750096e+09 2.758207e+10 2.620760e+08
-2.090159e+10 -2.341076e+10 1.533160e+08
3.356237e+10 1.056026e+10 2.436031e+08
-3.623083e+10 1.001984e+10 -8.983948e+08
2.774548e+10 1.639040e+10 -2.416899e+09
-4.702472e+09 3.423881e+10 -1.666789e+08
2.709177e+09 -2.877019e+10 -2.471987e+07
2.258944e+10 1.737119e+10 1.526240e+09
-2.189820e+10 -2.595374e+10 3.005348e+08
1.625176e+09 2.799517e+10 -4.777241e+08
3.208297e+10 1.417870e+10 8.973045e+08
-1.314094e+10 2.945290e+10 1.536977e+08
-3.172154e+10 -1.176865e+10 -5.932019e+08
1.607774e+10 3.041328e+10 -1.398423e+08
-2.426548e+10 1.456526e+10 1.250135e+09
2.234176e+09 3.713830e+10 -3.659429e+07
1.436968e+10 3.236873e+10 2.190964e+08
-2.013012e+10 2.834075e+10 -1.118072e+08
2.248037e+10 1.684498e+10 4.598668e+08
1.402297e+10 2.484677e+10 -2.732625e+08
-1.572645e+10 3.212617e+10 -2.115137e+08
-1.132608e+10 3.228174e+10 -2.305060e+08
1.367196e+10 -2.509541e+10 7.888155e+08
-3.119889e+10 -9.112177e+09 3.896566e+08
1.213190e+09 3.228478e+10 1.030707e+09
-1.567451e+10 -2.464836e+10 6.486336e+08
-7.939537e+09 3.456110e+10 -2.377397e+08
3.255567e+10 -3.868798e+09 3.525561e+08
-2.208364e+10 2.465256e+10 7.530917e+08
2.299748e+10 1.974296e+10 -6.150283e+08
-1.828782e+10 2.775550e+10 -3.554792e+07
-3.189603e+10 7.050547e+09 -4.309507e+08
-1.494294e+09 3.399721e+10 3.034892e+08
2.429714e+10 -2.410015e+10 -6.293133e+08
-1.180176e+10 -2.732075e+10 3.134636e+08
3.122869e+10 7.393414e+09 -2.532635e+08
1.958121e+10 -2.487453e+10 3.456123e+08
-1.510318e+10 2.361526e+10 -1.345893e+08
-3.139378e+10 -4.513614e+09 3.443013e+06
2.311592e+10 -2.935835e+10 -2.288806e+08
2.273629e+10 1.783835e+10 -2.207026e+08
-3.357240e+10 1.715052e+09 1.281907e+08
5.482471e+09 -3.248938e+10 1.733923e+08
-5.590373e+08 -3.484155e+10 6.726010e+07
2.766494e+10 4.385854e+09 -1.145257e+08
-1.099766e+10 2.981065e+10 3.194394e+08
-2.865673e+10 2.246719e+10 -5.628265e+08
2.809404e+10 1.842841e+09 5.406917e+08
1.962146e+10 -2.873849e+10 4.500554e+08
1.437181e+10 -3.102827e+10 7.047481e+08
-2.913360e+10 1.437006e+10 -1.107607e+09
2.085107e+10 1.981955e+10 4.032979e+07
5.495973e+09 -3.399356e+10 1.142823e+09
7.118968e+09 2.778571e+10 -4.163757e+08
-3.159165e+10 -1.122362e+10 4.227179e+08
3.038252e+10 1.511247e+10 8.913555e+08
-2.656028e+10 -9.815186e+09 -2.484481e+08
3.052824e+10 -1.781272e+10 -9.489259e+08
-1.538421e+10 -2.330951e+10 -1.250776e+09
3.006024e+10 1.142982e+10 -8.244037e+08
1.357342e+10 -3.137943e+10 -2.350695e+08
-1.791226e+10 2.302468e+10 7.039968e+08
2.010698e+10 1.893681e+10 -2.351008e+07
3.154040e+07 -3.310425e+10 1.683919e+08
-3.290901e+10 -2.377501e+09 -1.173738e+09
-3.235451e+10 -9.073384e+08 -2.932572e+08
-2.723668e+10 1.630414e+10 -9.516835e+08
2.214796e+10 1.841207e+10 -9.807142e+08
8.848510e+09 3.332565e+10 6.909237e+08
-1.076081e+10 -2.877247e+10 1.273362e+09
1.657211e+09 -3.371766e+10 4.933929e+08
2.318367e+10 -1.603841e+10 -4.530603e+08
-3.638495e+10 8.279807e+09 1.985386e+08
2.017183e+10 2.042220e+10 5.237638e+07
-1.640860e+10 2.611392e+10 -1.844203e+08
2.722834e+10 -2.298751e+10 -2.580526e+08
-2.665989e+10 2.448755e+10 -9.800417e+08
2.988334e+10 -1.900764e+10 6.994275e+08
-1.809676e+10 3.301549e+10 -5.646018e+08
3.426193e+10 -5.935139e+09 -1.872378e+09
-4.145642e+09 -2.730330e+10 -7.251537e+08
-1.687015e+10 -2.835807e+10 -1.042825e+08
2.514537e+10 -1.209189e+10 6.201340e+08
-2.601814e+10 9.372737e+09 6.994473e+08
1.898385e+10 2.085082e+10 1.327085e+09
1.948558e+10 2.697677e+10 -1.430996e+09
2.167424e+10 2.284427e+10 4.708039e+08
3.200394e+10 -1.144362e+10 1.507351e+09
-3.095072e+10 -1.534075e+10 -7.274479e+08
-2.829724e+10 -2.174603e+10 -9.466829e+08
-1.478155e+10 -2.925493e+10 -6.942627e+07
-3.266912e+10 1.083574e+10 -8.661030e+08
-3.296099e+10 1.264064e+10 -8.340019e+08
-1.638109e+10 2.210329e+10 9.511659e+08
3.081243e+10 1.121221e+10 4.392655e+08
1.906906e+10 2.017164e+10 -3.712788e+08
3.029984e+10 1.617193e+10 3.359470e+08
-3.081417e+10 -1.324422e+10 1.384048e+09
-2.962583e+10 7.789814e+09 1.038808e+09
2.599453e+10 1.962461e+10 -1.035812e+09
5.066491e+09 3.210870e+10 -4.525410e+08
7.855240e+08 3.574233e+10 -2.292303e+09
1.095783e+10 -2.532228e+10 -8.193234e+08
2.161351e+10 2.424155e+10 -8.621724e+08
-8.767541e+09 2.991061e+10 3.815739e+08
8.084935e+09 -3.357313e+10 2.476309e+08
1.939567e+10 2.010984e+10 2.739848e+08
9.162558e+09 -2.993472e+10 -1.660872e+09
1.748892e+10 2.726282e+10 3.383931e+08
2.468343e+10 -1.405031e+10 9.546305e+08
-3.419781e+10 -7.366019e+09 -3.762215e+08
-6.989123e+09 -2.840608e+10 -5.480084e+08
-3.205931e+10 -5.757545e+09 2.375667e+08
-3.330482e+10 1.420425e+09 7.131560e+08
-3.162067e+10 1.418718e+10 -1.675953e+07
3.213398e+10 -7.115953e+09 -6.017359e+07
-4.449400e+09 -3.466359e+10 1.935655e+08
1.954160e+10 2.278023e+10 1.127797e+09
-2.792197e+10 -1.012276e+10 -4.192492e+08
-2.869043e+10 -2.270648e+10 -1.247294e+08
2.606060e+10 -2.596206e+10 -8.672518e+08
2.742186e+10 3.439333e+09 1.680373e+09
5.235462e+09 -3.180700e+10 -4.598348e+07
-2.135848e+10 -2.216648e+10 -9.040977e+08
-2.155458e+10 2.343309e+10 -7.977452e+08
1.176825e+10 -2.426989e+10 -3.014642e+08
2.793971e+10 -2.633788e+09 -2.907347e+08
-8.613416e+09 2.693275e+10 -3.659484e+08
1.736255e+10 2.229035e+10 -1.143940e+09
3.125502e+10 -9.898660e+09 2.419985e+08
-2.140978e+09 3.172695e+10 -7.821705e+08
1.273578e+10 2.432576e+10 -1.118994e+09
1.887344e+10 3.018643e+10 -1.616946e+08
2.825603e+10 2.932198e+08 4.955448e+08
-2.556605e+10 1.193335e+10 7.685539e+08
-2.803878e+10 2.238809e+09 -4.022894e+08
-2.808919e+10 -3.426418e+09 -7.045962e+08
-2.787850e+10 -5.350806e+09 -2.321592e+08
2.813553e+10 4.516361e+09 1.240930e+08
1.718895e+10 2.140744e+10 1.024035e+08
3.782526e+09 -3.230846e+10 -1.075500e+08
-2.580036e+10 2.339239e+10 -2.445481e+08
-2.963399e+10 -1.284524e+10 6.010299e+08
2.412000e+10 1.376406e+10 8.213729e+08
2.269217e+10 2.419380e+10 7.282267e+08
-7.145449e+09 -3.276739e+10 -4.874934e+08
1.662783e+10 -2.223435e+10 3.745563e+08
2.575321e+10 2.288042e+10 -3.832743e+07
2.461794e+10 2.157974e+10 -5.821826e+08
2.615880e+10 1.118497e+10 1.619218e+08
1.700099e+10 2.250144e+10 -5.174576e+08
2.613090e+10 1.052397e+10 9.688283e+06
-1.339400e+10 -3.306570e+10 -5.873323e+08
-1.197136e+10 -3.210560e+10 -2.954286e+08
-3.021701e+10 -3.932865e+09 6.752031e+08
-2.036129e+10 2.611231e+10 -1.836345e+08
3.344094e+10 -3.540363e+09 1.011728e+09
-1.554604e+10 2.338250e+10 -1.439912e+08
-1.416654e+10 2.455164e+10 7.620445e+08
3.335399e+10 9.493421e+09 -4.069254e+08
2.295086e+10 1.812014e+10 3.525076e+08
1.639894e+10 2.328532e+10 3.344663e+07
-3.122834e+10 -1.839767e+09 -1.760598e+08
7.709193e+09 -3.265200e+10 3.101150e+08
3.554721e+10 -3.802374e+09 -8.270886e+08
3.332685e+10 5.836053e+09 -8.453303e+08
-1.855550e+10 2.658110e+10 9.185179e+08
2.621628e+10 -9.019568e+09 1.293532e+08
-1.021033e+10 2.703890e+10 -8.662088e+08
-1.042836e+10 3.030671e+10 -8.744099e+08
2.566221e+10 1.783858e+10 -5.487343e+08
9.375647e+09 -2.716659e+10 -4.334567e+08
1.650252e+10 2.356157e+10 4.093230e+08
-5.132416e+09 3.174754e+10 -4.444508e+08
2.590485e+10 -1.135503e+10 4.433231e+08
-2.983997e+10 -1.282408e+10 -6.996413e+08
2.099426e+10 -2.123739e+10 1.110600e+09
-3.271460e+09 2.940679e+10 5.466424e+08
3.147648e+10 1.316950e+10 7.066659e+08
-2.317075e+10 -1.664592e+10 7.151585e+08
3.131118e+10 1.501860e+10 -1.385041e+09