# vtk DataFile Version 2.0
Electric current density generated by TTH
ASCII
DATASET UNSTRUCTURED_GRID
POINTS 2099 double
-1.809334e-05 -1.092659e-05 -4.396420e-22
-6.889470e-06 1.865400e-05 -1.710595e-06
7.025761e-06 1.671698e-05 1.327340e-06
-1.350146e-05 1.130023e-05 -4.588730e-07
-7.511924e-06 1.947768e-05 -9.315307e-07
1.825393e-05 -4.225244e-06 1.689891e-06
1.825393e-05 4.225244e-06 1.689891e-06
1.771023e-05 2.357670e-06 -1.022551e-06
1.771025e-05 -2.359070e-06 -1.022845e-06
-8.001604e-06 -1.689620e-05 1.674468e-06
-1.638244e-07 -2.091372e-05 -8.652731e-07
-1.755715e-05 -1.176884e-05 -4.396420e-22
-9.873539e-06 -1.500557e-05 -1.148872e-06
-1.830924e-05 7.419924e-06 -1.746606e-06
-1.613424e-05 6.950250e-06 -2.727376e-07
-4.849903e-06 -1.804724e-05 1.671528e-06
2.581794e-06 1.966035e-05 -1.727524e-06
-2.698799e-06 1.805569e-05 1.429599e-06
-1.622643e-05 -6.716125e-06 2.290920e-07
-1.350276e-05 1.493544e-05 -1.610487e-06
1.805457e-05 9.319694e-07 1.275346e-06
1.805606e-05 -8.481740e-07 1.272729e-06
-1.698179e-05 -1.258484e-05 -4.396420e-22
-9.242223e-06 1.873565e-05 9.060564e-07
1.573591e-05 -1.189180e-05 -1.753806e-06
1.573591e-05 1.189180e-05 -1.753806e-06
-2.279147e-06 1.751129e-05 6.247962e-07
-2.012428e-05 4.792522e-07 -1.612625e-06
-1.774621e-05 9.006905e-06 -1.705597e-06
1.019243e-05 -1.831388e-05 7.784584e-07
1.721764e-05 -3.516337e-06 -3.061827e-07
1.721764e-05 3.516337e-06 -3.061827e-07
-4.986567e-06 1.694773e-05 -6.436665e-07
-1.636853e-05 -1.337276e-05 -4.396420e-22
-1.590539e-05 -8.131124e-06 1.017929e-06
-1.309036e-05 1.634251e-05 -8.191997e-07
-1.601020e-05 1.182429e-05 1.704871e-06
1.069625e-05 1.417734e-05 -8.480285e-07
1.068095e-05 -1.418789e-05 -8.465742e-07
1.084849e-05 -1.790205e-05 -8.312893e-07
1.085137e-05 1.790046e-05 -8.310293e-07
-1.691286e-05 -1.172439e-05 -1.300146e-06
-1.854450e-05 -7.296204e-06 -1.696458e-06
-1.450195e-05 -1.509292e-05 -8.344981e-07
-1.571875e-05 -1.413083e-05 -4.396420e-22
-5.612891e-06 1.737925e-05 -1.434806e-06
1.357093e-05 -1.154745e-05 9.502759e-07
1.357093e-05 1.154745e-05 9.502759e-07
-1.430625e-05 -1.407120e-05 1.642104e-06
3.286353e-06 -1.985910e-05 1.613015e-06
3.347568e-06 1.804802e-05 -1.500008e-06
-1.594707e-05 1.000720e-05 -1.719575e-06
1.166659e-05 1.323874e-05 5.880307e-07
1.159965e-05 -1.329539e-05 5.835503e-07
-1.227591e-06 -2.092326e-05 7.781626e-07
-1.503389e-05 -1.485737e-05 -4.396420e-22
1.323952e-05 -1.618488e-05 8.728399e-07
1.323952e-05 1.618488e-05 8.728399e-07
-1.143846e-05 1.747554e-05 -9.146178e-07
-1.929418e-05 -2.824332e-06 1.788000e-06
5.680829e-06 2.015731e-05 -8.120083e-07
-1.929546e-05 2.690174e-06 1.789477e-06
-9.743458e-06 1.851121e-05 -8.569917e-07
7.423003e-07 2.094153e-05 7.875639e-07
1.886190e-05 -7.581504e-07 -1.733813e-06
1.886190e-05 7.581504e-07 -1.733813e-06
-1.431549e-05 -1.555076e-05 -4.396420e-22
-9.755270e-06 -1.854615e-05 7.862807e-07
-1.803379e-05 3.920331e-06 1.560661e-06
-4.303843e-06 -1.775563e-05 -1.439770e-06
-1.267792e-05 -1.505081e-05 -1.763032e-06
-1.809881e-05 -7.813733e-06 1.756053e-06
1.991636e-05 -6.569762e-06 7.511355e-07
1.991636e-05 6.569762e-06 7.511355e-07
1.011622e-05 1.693215e-05 1.753795e-06
-1.720451e-05 1.190419e-05 -8.523613e-07
2.046661e-05 4.406346e-06 -8.255568e-07
-1.356514e-05 -1.620945e-05 -4.396420e-22
2.046661e-05 -4.406346e-06 -8.255568e-07
-2.000089e-05 4.698329e-07 1.667366e-06
-3.981675e-06 -1.950033e-05 -1.705064e-06
-8.331957e-07 -1.941024e-05 -1.792894e-06
-2.005546e-05 -1.457687e-06 1.623014e-06
-1.671397e-05 7.609434e-06 -1.505748e-06
2.062470e-05 3.581065e-06 8.299608e-07
2.062470e-05 -3.581065e-06 8.299608e-07
-6.016157e-06 -1.663824e-05 -7.085966e-07
1.725842e-05 4.798963e-06 -1.086886e-06
-1.278452e-05 -1.683198e-05 -4.396420e-22
1.725842e-05 -4.798963e-06 -1.086886e-06
-1.677581e-05 1.053954e-05 1.732310e-06
7.752376e-06 1.625910e-05 -1.206518e-06
1.737049e-05 -1.171383e-05 7.948923e-07
1.737049e-05 1.171383e-05 7.948923e-07
-1.683643e-05 -4.956763e-06 1.225098e-07
-1.792572e-05 -2.695758e-06 -1.321784e-06
-5.348578e-06 -1.686541e-05 7.101708e-07
-4.847383e-06 2.033909e-05 8.754079e-07
1.600638e-06 -1.985319e-05 1.700080e-06
-1.197538e-05 -1.741694e-05 -4.396420e-22
-5.995420e-06 1.892805e-05 -1.720056e-06
-3.193076e-06 -1.909390e-05 1.794891e-06
1.830748e-05 -1.018945e-05 -7.929201e-07
1.830748e-05 1.018945e-05 -7.929201e-07
-7.053938e-06 -1.973417e-05 -7.828098e-07
-1.571120e-05 8.952095e-06 1.279324e-06
-1.167343e-05 -1.467079e-05 -1.694072e-06
-1.571234e-05 7.836873e-06 -2.035530e-07
7.505285e-06 -1.957497e-05 7.672114e-07
-1.711389e-05 4.042012e-06 3.674378e-07
-1.113951e-05 -1.796304e-05 -4.396420e-22
-1.397625e-05 1.556775e-05 8.529984e-07
8.028717e-06 -1.722576e-05 -1.763098e-06
-1.848612e-05 5.781332e-07 1.582807e-06
-1.173883e-05 -1.729489e-05 -8.865443e-07
2.080251e-05 2.126984e-06 8.714231e-07
2.080251e-05 -2.126984e-06 8.714231e-07
3.306239e-06 1.723397e-05 7.371716e-08
3.836557e-06 -1.731620e-05 -8.025138e-07
1.296030e-05 1.283031e-05 1.414717e-06
1.296030e-05 -1.283031e-05 1.414717e-06
-1.027879e-05 -1.846905e-05 -4.396420e-22
-1.429234e-05 1.209602e-05 -1.685307e-06
1.540776e-06 -2.087429e-05 -8.341720e-07
-1.105193e-05 1.775145e-05 8.718104e-07
-7.168450e-06 -1.606225e-05 -3.884531e-07
-1.034762e-05 1.445142e-05 8.742782e-07
-1.108414e-05 1.404369e-05 1.056891e-06
8.841678e-06 -1.819265e-05 1.561244e-06
-7.540519e-06 -1.824163e-05 -1.750523e-06
1.526413e-05 -8.781166e-06 -4.713613e-07
1.526413e-05 8.781166e-06 -4.713613e-07
-9.395132e-06 -1.893386e-05 -4.396420e-22
-1.735719e-05 5.892881e-06 -1.482868e-06
-1.624469e-05 8.394085e-06 -1.451152e-06
1.516688e-05 -1.439614e-05 -8.707862e-07
1.516688e-05 1.439614e-05 -8.707862e-07
4.071131e-06 -1.822102e-05 1.664670e-06
-1.813795e-05 1.048230e-05 -7.989298e-07
-1.619153e-05 -1.009483e-05 1.775890e-06
-1.983949e-05 6.784229e-06 -7.610069e-07
8.426516e-06 1.921052e-05 7.392723e-07
-1.812579e-05 8.601325e-07 -1.338907e-06
-8.490509e-06 -1.935641e-05 -4.396420e-22
1.711119e-05 6.609710e-06 -1.491761e-06
1.711119e-05 -6.609710e-06 -1.491761e-06
-1.800899e-05 -8.922695e-06 -1.627768e-06
-1.477314e-06 -1.781591e-05 -1.037657e-06
-1.501626e-05 1.456268e-05 -8.587617e-07
-1.560713e-05 -9.239425e-06 1.330610e-06
-1.152004e-05 -1.618743e-05 -1.716035e-06
-1.457243e-05 -1.359477e-05 -1.696105e-06
1.283161e-05 -1.541428e-05 1.646654e-06
1.283161e-05 1.541428e-05 1.646654e-06
-7.566941e-06 -1.973577e-05 -4.396420e-22
-1.349885e-05 -1.124120e-05 2.659740e-07
-1.119720e-05 -1.389813e-05 9.947079e-07
1.756739e-05 3.528695e-06 1.093526e-06
1.756739e-05 -3.528695e-06 1.093526e-06
3.500779e-06 1.941055e-05 1.753854e-06
-1.895050e-05 8.816197e-06 8.893340e-07
3.303504e-06 2.064374e-05 -8.796006e-07
-1.744143e-05 3.254317e-06 -8.150241e-07
1.695184e-05 4.923695e-06 6.068137e-07
1.695184e-05 -4.923695e-06 6.068137e-07
-6.626488e-06 -2.007110e-05 -4.396420e-22
1.939040e-05 -4.322696e-06 1.716579e-06
1.939040e-05 4.322696e-06 1.716579e-06
-9.959119e-06 -1.511565e-05 1.297687e-06
1.983980e-05 -3.379336e-06 -1.614788e-06
1.983980e-05 3.379336e-06 -1.614788e-06
-1.561482e-05 -1.391939e-05 8.582140e-07
1.144736e-05 -1.620359e-05 1.724623e-06
1.164466e-05 1.603877e-05 1.730025e-06
-1.851446e-05 -9.687452e-06 8.982955e-07
1.150820e-05 -1.379070e-05 -1.147803e-06
-5.671249e-06 -2.036164e-05 -4.396420e-22
1.151039e-05 1.378931e-05 -1.148212e-06
-5.284762e-06 1.798295e-05 1.692326e-06
-1.784231e-05 -1.096564e-05 8.117975e-07
-1.013116e-05 1.519086e-05 1.431911e-06
-6.754267e-06 1.703958e-05 1.482292e-06
-3.783638e-06 1.899493e-05 1.794781e-06
-1.943122e-05 -3.979356e-06 -1.726002e-06
-1.850720e-05 -1.196699e-06 1.608896e-06
-9.690560e-06 -1.860018e-05 -7.485311e-07
6.436973e-06 1.803437e-05 -1.784569e-06
-4.703355e-06 -2.060674e-05 -4.396420e-22
7.845105e-06 -1.704541e-05 1.699503e-06
-1.377041e-05 -1.210713e-05 -1.486730e-06
-3.897490e-06 -1.960662e-05 1.673717e-06
-1.828113e-05 1.008808e-05 9.251991e-07
-1.090124e-06 1.841168e-05 1.554320e-06
-1.248087e-05 -1.377336e-05 1.628618e-06
-6.538990e-06 1.903544e-05 1.613954e-06
-1.764578e-05 -6.816269e-07 6.246740e-07
1.950214e-05 -5.284426e-06 -1.573518e-06
1.950214e-05 5.284426e-06 -1.573518e-06
-3.724965e-06 -2.080586e-05 -4.396420e-22
-1.962494e-06 -1.835580e-05 -1.563728e-06
-1.035865e-05 -1.715186e-05 -1.654773e-06
-6.357040e-06 -1.669471e-05 1.019093e-06
-4.508341e-08 2.097181e-05 -7.513621e-07
-1.489979e-05 1.468154e-05 8.591246e-07
-2.060100e-06 1.980487e-05 1.702063e-06
1.964051e-06 1.895930e-05 -1.772852e-06
4.086571e-06 -1.710039e-05 3.535791e-07
-4.204523e-06 1.715888e-05 -6.446763e-07
5.171995e-06 -2.027999e-05 -8.379222e-07
-2.738265e-06 -2.095856e-05 -4.396420e-22
3.308099e-06 -1.737685e-05 7.001878e-07
1.706856e-06 2.091207e-05 -7.298404e-07
1.435363e-05 1.273818e-05 -1.788623e-06
1.435363e-05 -1.273818e-05 -1.788623e-06
-1.167818e-05 -1.739993e-05 7.856605e-07
1.027150e-05 -1.829211e-05 -7.363889e-07
1.013023e-05 1.834641e-05 -7.819941e-07
3.679095e-06 2.060251e-05 8.392050e-07
-1.791371e-05 -4.834827e-06 1.613236e-06
-3.747588e-06 -1.715168e-05 -1.853396e-07
-1.745453e-06 -2.106449e-05 -4.396420e-22
4.839905e-06 1.838099e-05 1.763589e-06
9.734425e-06 1.462300e-05 2.674058e-07
-9.413591e-07 1.869089e-05 -1.681857e-06
-1.715601e-05 -9.738463e-06 -1.753070e-06
-4.777689e-06 -1.910531e-05 1.760137e-06
-1.919123e-05 -8.371909e-06 -8.212005e-07
-1.146652e-05 1.442491e-05 -1.544502e-06
-8.049094e-06 -1.936773e-05 -7.473192e-07
-2.191496e-06 -1.741546e-05 -1.475172e-07
-1.683034e-05 -1.242064e-05 8.599400e-07
-7.487476e-07 -2.112342e-05 -4.396420e-22
1.759471e-05 -6.813837e-07 -4.645737e-07
1.759471e-05 6.813837e-07 -4.645737e-07
-1.283942e-05 -1.654114e-05 8.180485e-07
1.611199e-05 -7.033001e-06 -3.443781e-07
1.611199e-05 7.033001e-06 -3.443781e-07
1.883956e-05 5.875277e-06 1.751486e-06
1.883956e-05 -5.875277e-06 1.751486e-06
5.584521e-06 -1.695330e-05 -9.974817e-07
1.735122e-05 -9.466734e-06 -1.744175e-06
1.735122e-05 9.466734e-06 -1.744175e-06
[...]
POINT_DATA 2099
VECTORS 10.000GHz_fone_imag double
-1.920065e+10 3.090830e+10 -1.554435e+09
2.914967e+10 9.886117e+09 3.752135e+09
2.968230e+10 -1.348821e+10 4.853074e+08
3.383915e+10 3.975718e+10 -9.634331e+08
2.040713e+10 6.259164e+09 1.227459e+09
-9.037963e+09 -4.709460e+10 1.152679e+09
7.464115e+09 -5.333867e+10 -1.863232e+09
5.835126e+09 -5.341987e+10 8.719646e+08
-8.474315e+09 -5.131166e+10 2.219408e+09
-4.538839e+10 2.092023e+10 -1.241797e+09
-2.338908e+10 7.645761e+08 1.188623e+09
-1.629655e+10 2.364497e+10 1.331575e+09
-4.647768e+10 2.671247e+10 -3.465375e+08
9.423781e+09 2.636993e+10 -7.042933e+08
1.948045e+10 4.851772e+10 -2.973591e+09
-4.223002e+10 1.329950e+10 -2.372410e+08
2.626914e+10 -2.296509e+09 -2.118457e+09
3.719886e+10 5.842644e+08 -2.278621e+08
-2.043178e+10 5.145726e+10 -1.012387e+07
3.116762e+10 2.530403e+10 -1.084975e+09
3.806801e+09 -5.906471e+10 5.915975e+08
-1.901765e+09 -4.913057e+10 7.457604e+08
-1.854805e+10 2.446058e+10 -6.889872e+08
2.258140e+10 1.207223e+10 3.349538e+08
-1.837238e+10 -2.526314e+10 -2.746684e+08
1.806450e+10 -2.505356e+10 -8.400119e+07
4.148208e+10 2.349523e+09 -2.333985e+09
3.834925e+09 3.271706e+10 -1.242271e+09
1.870502e+10 3.240052e+10 -7.588277e+08
-2.653024e+10 -1.513675e+10 2.351247e+09
-7.719867e+09 -4.105814e+10 -3.203467e+08
7.699044e+09 -3.970800e+10 2.692295e+09
5.427968e+10 1.521901e+10 4.243711e+09
-1.667195e+10 1.819578e+10 -1.410723e+09
-1.658652e+10 3.161733e+10 -4.968634e+08
1.470518e+10 1.137264e+10 3.977620e+08
2.001731e+10 2.971975e+10 -1.561539e+09
3.403956e+10 -2.688000e+10 1.459960e+09
-2.978903e+10 -2.314865e+10 9.925375e+08
-2.421333e+10 -1.634177e+10 1.656654e+09
2.763757e+10 -1.735738e+10 -2.773091e+08
-2.135671e+10 3.241874e+10 5.776382e+08
-1.531418e+10 3.614362e+10 3.766621e+08
-2.260273e+10 2.191438e+10 -1.268546e+09
-1.315917e+10 1.352587e+10 -5.743389e+08
5.030189e+10 1.645869e+10 1.291291e+09
-3.258353e+10 -3.788845e+10 2.649531e+09
3.286197e+10 -3.809846e+10 -2.842807e+09
-1.816279e+10 1.832913e+10 -9.763297e+08
-2.789377e+10 -5.021748e+09 3.433033e+09
4.063411e+10 -8.488038e+09 2.169844e+09
2.172459e+10 3.146450e+10 1.250564e+09
3.270703e+10 -2.561299e+10 -3.879633e+09
-4.451288e+10 -4.091585e+10 1.194837e+09
-3.230908e+10 2.373229e+09 7.181348e+08
-1.613107e+10 1.650466e+10 9.356879e+08
-2.411606e+10 -2.038931e+10 -5.958650e+08
2.265791e+10 -1.949395e+10 1.184256e+09
2.692843e+10 1.850187e+10 9.997430e+08
-5.601154e+09 4.728346e+10 3.520993e+08
2.577349e+10 -9.049742e+09 2.721678e+08
5.181532e+09 3.443326e+10 -1.213547e+07
1.863373e+10 9.582363e+09 1.173196e+09
2.019079e+10 -7.155068e+08 1.964889e+09
1.438823e+09 -4.358627e+10 -1.215863e+09
1.119744e+07 -3.563059e+10 6.050521e+08
-2.159620e+10 2.045635e+10 -1.655464e+09
-2.432090e+10 1.362343e+10 -8.652642e+08
9.781814e+09 4.736463e+10 -2.656194e+09
-5.411023e+10 1.165816e+10 5.206587e+08
-2.718473e+10 2.493510e+10 -5.678849e+08
-1.666264e+10 3.545671e+10 -3.772599e+08
-6.592838e+09 -2.400904e+10 -1.721086e+09
6.637772e+09 -2.397501e+10 1.878015e+09
2.750828e+10 -1.872348e+10 7.402564e+08
1.648761e+10 1.930477e+10 -7.698264e+08
4.740661e+09 -2.539964e+10 -1.333121e+09
-2.318235e+10 1.790203e+10 -1.144514e+09
-4.897306e+09 -2.711404e+10 1.728064e+09
-9.756124e+07 2.758313e+10 -6.582178e+08
-3.015759e+10 6.744398e+09 2.319203e+09
-2.833877e+10 2.190559e+09 4.366121e+07
-2.328875e+09 2.492888e+10 -7.569751e+08
2.160940e+10 3.898991e+10 1.695027e+09
3.623870e+09 -2.299753e+10 2.720880e+09
-3.419805e+09 -2.486058e+10 -2.547598e+09
-4.144907e+10 1.566287e+10 3.318620e+09
1.551715e+10 -5.207727e+10 -1.204437e+08
-2.239530e+10 1.896679e+10 7.145164e+08
-1.563173e+10 -5.191955e+10 3.047393e+08
2.147068e+10 2.932674e+10 4.531746e+08
4.651398e+10 -2.316313e+10 -2.006061e+09
-2.046371e+10 -3.125706e+10 -1.085918e+09
2.048424e+10 -3.129056e+10 1.088774e+09
-1.863587e+10 6.006738e+10 -1.493669e+08
-4.285171e+09 4.980128e+10 1.220766e+09
-3.591770e+10 1.241575e+10 8.713519e+06
2.766063e+10 5.924852e+09 -2.115172e+09
-2.723235e+10 -1.572056e+09 -7.570813e+07
-2.313335e+10 1.349606e+10 -1.874390e+09
2.340992e+10 7.398960e+09 -1.116516e+09
-3.606072e+10 7.614660e+09 5.324342e+08
-1.232574e+10 -2.604369e+10 2.669222e+09
1.226875e+10 -2.597254e+10 -2.715285e+09
-2.064893e+10 5.630491e+09 -3.176973e+08
2.199571e+10 4.172796e+10 3.301677e+09
-3.778323e+10 3.085692e+10 3.763040e+08
2.205123e+10 4.279672e+10 2.799919e+09
-2.279000e+10 -9.032643e+09 8.792781e+08
1.593959e+10 4.902358e+10 -3.095463e+09
-2.231146e+10 1.532165e+10 1.114358e+09
2.052053e+10 1.765558e+10 -6.201827e+08
-3.414113e+10 -1.456012e+10 -4.532334e+08
2.072244e+09 4.798813e+10 6.699960e+08
-2.383439e+10 1.456944e+10 -9.727414e+08
3.337948e+09 -2.713086e+10 -2.747623e+08
-3.606136e+09 -3.204953e+10 -1.069001e+08
4.229002e+10 -5.518195e+09 -1.914757e+09
-4.474659e+10 -6.562973e+09 2.421809e+08
3.887507e+10 -3.949919e+10 -2.602776e+09
-3.661845e+10 -3.713955e+10 2.156255e+09
-2.951336e+10 1.626812e+10 9.116779e+08
2.104894e+10 2.421337e+10 2.566809e+08
-2.556184e+10 -2.664078e+09 1.051866e+09
2.704685e+10 1.626335e+10 -6.655784e+08
-4.881477e+10 2.283269e+10 -1.726769e+09
4.432976e+10 3.153266e+10 2.298736e+09
4.084199e+10 3.244681e+10 9.881327e+07
-3.502187e+10 -1.618860e+10 1.371465e+09
-3.670046e+10 1.577763e+10 3.626402e+08
-1.952226e+10 -4.346972e+10 -1.636579e+07
1.952429e+10 -4.348954e+10 4.257297e+07
-2.748200e+10 1.397379e+10 -1.470107e+09
1.238114e+10 4.365646e+10 -2.595363e+09
1.543678e+10 4.076615e+10 -2.842505e+09
-1.781040e+10 -2.102330e+10 2.383111e+08
1.796248e+10 -1.905459e+10 -1.813240e+09
-3.159513e+10 -7.969238e+09 -3.248271e+09
1.214755e+10 2.146389e+10 -1.877462e+08
-1.916323e+10 3.381636e+10 -9.810229e+08
1.006424e+10 3.012388e+10 -4.038888e+08
2.828149e+10 -1.202756e+10 -8.444193e+08
1.493709e+09 4.978161e+10 -7.706948e+07
-3.002062e+10 1.276795e+10 9.170000e+08
1.963120e+10 -4.548093e+10 -6.310174e+08
-1.967455e+10 -4.550361e+10 6.508360e+08
-1.229570e+10 2.015296e+10 -1.029851e+09
-5.905824e+10 8.438593e+09 1.927586e+09
2.351021e+10 2.212911e+10 -4.497580e+09
-2.902196e+10 5.007609e+10 7.235142e+07
-2.582036e+10 1.699219e+10 -3.840626e+08
-2.241613e+10 2.191492e+10 1.441747e+09
-2.773284e+10 -2.296392e+10 -1.446873e+08
2.085572e+10 -2.022375e+10 1.173555e+09
-3.028031e+10 1.201468e+10 -9.271978e+08
-3.516486e+10 3.642263e+10 2.983754e+09
-4.667435e+10 3.971537e+10 -4.164213e+09
6.786102e+09 -5.358953e+10 -3.129110e+09
-7.153359e+09 -5.153097e+10 -1.169206e+09
4.070242e+10 -8.641208e+09 1.319793e+09
1.317881e+10 3.027925e+10 -3.440940e+08
3.574689e+10 -6.431988e+09 -1.280247e+08
7.930299e+09 4.033471e+10 4.048291e+09
7.663455e+09 -3.529967e+10 2.047900e+09
-7.490323e+09 -3.464869e+10 -1.592630e+09
-2.328583e+10 7.606124e+09 1.103815e+09
-7.523508e+09 -3.727688e+10 -9.017142e+08
5.780318e+09 -2.653262e+10 -1.362609e+09
-4.465399e+10 3.030274e+10 1.087146e+09
-4.082096e+09 -2.679670e+10 5.681391e+08
3.822160e+09 -2.275303e+10 -6.651371e+08
-2.139550e+10 2.422062e+10 4.646571e+08
-3.004646e+10 -2.200072e+10 2.225971e+08
2.296775e+10 -1.703278e+10 -4.015644e+08
-1.100380e+10 1.956444e+10 -3.396010e+06
-3.815034e+10 -3.239583e+10 5.184872e+08
-3.100978e+10 8.003233e+09 8.121965e+08
4.125004e+10 -3.607013e+10 5.179565e+05
4.370108e+10 1.210324e+10 -3.667777e+08
-1.601995e+10 2.264422e+10 -5.823479e+08
4.561550e+10 3.071348e+10 -8.142133e+08
4.335689e+10 1.841965e+10 1.174583e+09
3.912058e+10 9.950090e+09 -9.755461e+07
-6.004430e+09 2.644242e+10 -2.504234e+09
-4.701176e+08 4.705648e+10 -1.229637e+09
-2.934435e+10 1.565224e+10 7.464568e+08
2.479287e+10 -9.173391e+09 8.228431e+08
-2.414149e+10 3.975391e+09 3.345635e+08
-4.853202e+10 -2.726796e+10 2.029677e+09
-2.778152e+10 2.448547e+10 -3.107068e+09
-2.711704e+10 6.143559e+09 1.326698e+09
1.675309e+10 2.775479e+10 -3.002824e+08
4.874608e+10 5.551782e+09 1.092600e+09
-3.593133e+10 3.100776e+10 1.213804e+09
2.300353e+10 7.834601e+09 6.124523e+07
-9.526306e+08 5.072327e+10 -2.277265e+09
-1.500256e+10 -4.080809e+10 -1.040801e+09
1.492097e+10 -4.052836e+10 1.048802e+09
-1.926182e+10 4.425019e+09 8.641759e+08
-3.708335e+10 5.171291e+09 1.249160e+09
-3.306400e+10 2.213554e+10 -1.240748e+09
-4.294247e+10 1.878119e+10 -4.057031e+09
2.434980e+10 3.137614e+08 7.780920e+07
2.380508e+10 2.053323e+10 3.544415e+09
2.948793e+10 5.506566e+09 -1.366042e+09
3.317056e+10 -2.556990e+09 -1.613501e+09
-4.692002e+10 -9.614781e+09 -2.722459e+09
5.364790e+10 1.169355e+10 3.454213e+09
-3.002216e+10 -7.983743e+09 -1.622517e+09
-2.221987e+10 2.340269e+09 -2.565708e+09
-3.549159e+10 -1.456843e+10 1.221614e+09
3.680145e+10 -2.494706e+09 2.160896e+09
2.440237e+10 -2.417985e+10 -1.735726e+06
-2.412236e+10 -2.442891e+10 3.493528e+08
-2.468999e+10 1.261746e+10 -1.414135e+09
-2.588142e+10 -1.474138e+10 1.706233e+09
2.986018e+10 -1.778936e+10 -4.646573e+08
2.129050e+10 -5.244988e+09 -1.791483e+09
-1.008888e+10 3.348230e+10 -9.711703e+07
-5.807683e+10 1.258673e+10 -2.039669e+09
-2.455052e+10 3.156107e+09 7.146841e+08
3.929278e+10 -1.380365e+10 -1.572306e+09
4.413824e+10 -2.879711e+10 -7.746351e+07
3.978953e+10 -1.130693e+09 2.011230e+09
-1.112327e+10 2.437974e+10 1.046348e+08
-3.694296e+10 1.020512e+10 -1.209195e+08
-7.678286e+09 1.758811e+10 -2.983434e+08
3.161168e+10 2.746994e+10 3.441948e+08
-2.212670e+10 9.395344e+09 5.974096e+08
-6.004749e+10 8.556371e+09 2.819335e+09
-1.209660e+10 1.825554e+10 6.279794e+08
-3.098835e+10 2.199237e+09 -7.500283e+08
-1.205667e+08 -4.866959e+10 -2.667753e+09
1.413648e+09 -5.137936e+10 7.018067e+08
-2.223274e+10 1.988792e+10 5.079754e+06
-2.229564e+10 -4.163362e+10 -1.799642e+09
2.231337e+10 -4.169082e+10 1.833502e+09
1.051027e+10 -2.887788e+10 -2.035924e+09
-1.039488e+10 -2.899135e+10 2.034036e+09
-3.811187e+10 -1.071834e+10 2.797430e+09
-2.209997e+10 -3.403375e+10 -3.520962e+09
2.207719e+10 -3.404353e+10 3.510870e+09
-3.371480e+10 -7.885666e+08 2.135366e+09
-1.498957e+10 -3.645284e+10 5.695010e+07
1.494411e+10 -3.649108e+10 -4.547324e+07
-2.069336e+10 1.594876e+10 1.342175e+09
1.658922e+10 -2.971294e+10 -1.786081e+09
-1.662775e+10 -2.968682e+10 1.804327e+09
2.938280e+10 1.133102e+10 4.651617e+08
-4.565057e+10 2.035674e+09 7.710452e+08
-7.200800e+09 4.628153e+10 -4.507350e+09
-4.516857e+09 4.645859e+10 2.311978e+09
3.518243e+10 5.625824e+09 1.450846e+09
-2.672011e+10 -4.189567e+09 1.828977e+09
2.573783e+10 -3.014864e+09 -2.947569e+08
-4.429560e+10 2.544930e+10 1.652765e+09
2.866174e+10 -4.222398e+10 2.428216e+09
-2.869212e+10 -4.224624e+10 -2.434670e+09
-2.523433e+10 -5.053704e+09 1.436352e+09
1.957392e+10 -9.012874e+09 1.101798e+09
4.214900e+10 2.553451e+10 3.297610e+08
2.412089e+10 3.207439e+10 2.659547e+09
1.958665e+09 4.167178e+10 -5.809923e+08
-3.288518e+10 -4.718302e+09 -8.413063e+08
-2.491246e+10 -4.405949e+08 -3.247347e+08
-4.454003e+10 1.736283e+10 -6.268202e+08
-2.494005e+10 -1.247549e+10 7.330513e+08
2.693914e+10 4.137520e+10 -2.731310e+09
-1.122467e+10 4.343448e+10 -1.364616e+09
-1.268489e+10 -1.942061e+10 -1.402557e+09
1.263846e+10 -1.937734e+10 1.404138e+09
2.871183e+10 1.126092e+10 9.852140e+08
2.346380e+10 -3.590273e+10 -3.202510e+09
-2.349964e+10 -3.592248e+10 3.191071e+09
-2.389004e+10 2.393481e+10 2.057469e+09
-3.116191e+10 -5.266383e+09 9.302886e+08
3.382126e+10 -1.261721e+10 -8.469479e+07
2.656012e+10 -1.428096e+10 6.162934e+08
-1.644597e+10 -3.257100e+10 -5.986079e+08
1.643083e+10 -3.256617e+10 5.917233e+08
1.333786e+10 -2.214679e+10 -2.285585e+09
-1.329825e+10 -2.209781e+10 2.318716e+09
1.705159e+10 2.333380e+10 -2.399482e+09
-3.089000e+10 1.161725e+10 -3.272930e+08
4.286509e+10 1.535312e+10 -4.789511e+08
-1.976777e+10 1.968835e+10 -1.349854e+08
-2.028854e+10 -4.141735e+09 -2.358048e+09
-2.368505e+10 2.341363e+10 -4.092550e+08
4.132356e+10 1.005596e+10 -7.620861e+06
-6.713148e+09 3.513083e+10 -3.619603e+08
-2.264619e+10 -3.656457e+10 -1.390956e+09
2.263816e+10 -3.658290e+10 1.386697e+09
-3.777865e+10 4.069610e+10 3.172928e+08
-1.474276e+10 -2.930869e+10 -2.641664e+08
1.472689e+10 -2.927635e+10 2.631809e+08
-1.883782e+10 3.252647e+10 -1.241336e+09
2.739353e+10 3.287707e+10 -1.666880e+09
-2.370497e+10 -5.509949e+09 -3.936220e+08
1.852659e+10 3.475541e+10 -3.580011e+08
2.068445e+10 2.770509e+10 1.782489e+09
2.857723e+10 -2.757763e+10 1.065093e+08
-3.363671e+10 -2.726845e+10 -2.135691e+09
-1.558925e+10 -1.235471e+10 -1.217025e+08
-2.826272e+10 2.639054e+09 -9.309277e+08
2.011649e+10 2.157273e+10 -1.091592e+09
-2.644325e+10 7.049413e+09 2.621686e+08
-1.157320e+10 3.106362e+10 -2.444342e+09
-2.473588e+10 -9.696702e+09 6.111971e+08
-2.245488e+10 -6.608126e+09 -1.361834e+09
-2.132112e+10 -1.508222e+09 1.634180e+08
4.755772e+09 4.225657e+10 -6.993867e+08
5.147558e+10 2.059854e+10 -3.188490e+09
-4.706848e+09 1.837730e+10 -1.430673e+09
-1.689257e+10 3.455915e+10 1.577333e+08
2.432682e+10 -1.698581e+10 5.475294e+07
1.318882e+10 -2.908316e+10 1.755811e+09
-1.322117e+10 -2.912566e+10 -1.745821e+09
-4.489599e+10 -1.971819e+10 -8.548263e+08
-4.052512e+10 1.318446e+09 -2.804113e+08
-2.991456e+10 -1.129620e+10 -9.462284e+08
-5.685871e+10 1.143101e+10 2.576849e+09
-3.572467e+10 1.136320e+10 3.169228e+08
2.191908e+10 -2.632571e+10 5.996896e+08
-2.178382e+10 -2.631810e+10 -5.739513e+08
-4.547695e+10 -1.386950e+09 -4.727606e+08
1.577856e+10 1.940421e+10 1.382377e+09
3.262425e+09 4.810585e+10 -3.904988e+08
-4.104824e+10 2.344927e+10 -7.052567e+06
4.040737e+10 3.364665e+10 2.730632e+09
4.181689e+10 9.991956e+09 -1.267289e+09
-2.058671e+10 -8.413022e+09 -7.425493e+08
2.286866e+10 3.059394e+10 1.506192e+09
6.502901e+09 2.508918e+10 -1.315858e+09
2.135359e+10 1.823351e+10 6.120818e+08
5.872436e+09 5.256157e+10 2.761213e+07
-3.737739e+09 -3.053594e+10 -1.822407e+09
2.620281e+09 -2.979892e+10 -4.585669e+08
3.276578e+10 1.145218e+10 -2.219653e+07
3.923515e+10 -3.435782e+10 3.849029e+08
-3.486421e+10 -3.187947e+10 -8.097553e+08
4.077203e+10 -1.606732e+10 -1.220553e+08
-2.216318e+10 -1.003298e+10 -1.585382e+09
6.687574e+09 2.409844e+10 4.715878e+08
1.971747e+09 -3.820399e+10 2.139247e+08
-3.370200e+09 -3.886347e+10 -9.761915e+08
-1.532036e+10 -1.458540e+10 -4.087847e+08
1.541103e+10 -1.769634e+10 9.352910e+08
-7.889355e+09 -4.458165e+10 1.768178e+09
7.889530e+09 -4.468656e+10 -1.614622e+09
-3.754208e+10 -5.387336e+09 -3.934369e+07
-3.507784e+10 1.837751e+09 3.904974e+09
3.968949e+10 -2.807891e+09 7.944620e+08
-2.289188e+10 -1.138368e+10 -1.511473e+08
2.917585e+10 -9.353527e+09 1.047331e+08
2.412139e+09 -3.527546e+10 -2.617184e+09
-1.745591e+09 -2.895756e+10 2.088326e+09
-2.720742e+10 3.776246e+10 -1.536226e+09
1.768717e+10 1.825538e+10 3.707008e+08
2.770726e+10 1.751589e+10 -9.564955e+07
-3.680076e+10 8.846950e+09 -6.163626e+08
5.331015e+09 -3.650902e+10 -5.613036e+08
-4.068048e+09 -3.428515e+10 -4.772402e+07
2.008243e+10 4.216654e+10 -2.159603e+08
-2.344311e+10 -1.444694e+10 1.037315e+09
-2.778631e+10 1.194641e+10 9.742810e+08
1.630592e+10 2.086786e+10 1.160472e+09
9.447133e+09 5.483837e+10 1.501000e+08
-2.695773e+10 -1.067005e+10 -4.719865e+08
4.185223e+10 -1.649303e+10 5.182157e+08
-2.587282e+10 2.946799e+09 -2.108907e+09
4.775132e+10 5.039490e+09 -3.232482e+09
1.876305e+10 2.813117e+10 -2.922960e+09
4.868468e+10 -9.974962e+09 -4.638693e+09
8.440137e+09 2.207033e+10 -3.977487e+08
-2.080225e+10 -1.324951e+10 8.270688e+08
-1.004368e+10 3.117713e+10 -9.650926e+08
4.069736e+10 -1.895357e+09 3.470622e+09
2.516385e+10 2.696480e+09 1.466413e+09
4.382095e+10 7.164700e+09 -1.469752e+09
-2.870934e+10 -2.163734e+09 -2.819555e+09
-1.801308e+10 2.598708e+10 -7.164899e+08
3.748051e+10 3.648975e+10 4.010935e+09
-2.475206e+10 9.051084e+08 6.467901e+08
-1.094276e+10 2.491379e+10 -6.496957e+08
1.470795e+09 2.463727e+10 3.953672e+08
-2.412541e+10 -1.730060e+10 -1.420034e+08
-2.384071e+10 -8.487471e+09 1.438640e+07
3.504179e+10 1.945363e+10 2.419704e+09
5.152456e+09 2.957638e+10 2.909050e+09
-2.259533e+10 2.704707e+10 2.327983e+09
3.030170e+10 1.952095e+10 -1.672462e+09
6.468311e+09 5.450664e+10 2.830174e+09
1.161023e+10 -5.626722e+10 4.091857e+08
-1.211606e+10 -5.664984e+10 3.078916e+08
3.521368e+10 -5.711959e+09 1.948582e+09
-5.420948e+09 2.744598e+10 -7.616728e+08
-1.764609e+10 -1.539507e+10 -1.526791e+09
-1.054198e+10 -2.365480e+10 2.406123e+09
1.051478e+10 -2.359391e+10 -2.415306e+09
-2.274567e+10 2.026520e+10 -1.411540e+09
3.914431e+10 6.395588e+09 1.026263e+09
4.178077e+09 -3.880349e+10 -3.302032e+07
-4.030576e+09 -3.655602e+10 7.314882e+07
1.831530e+10 9.323260e+09 4.304669e+08
5.067668e+10 -5.486320e+09 -1.560269e+09
4.046828e+09 5.675801e+10 5.413688e+08
-3.584456e+10 1.998565e+10 -2.660742e+09
-2.000698e+10 -1.828641e+10 1.459393e+09
-3.340994e+10 1.821572e+10 -6.419714e+08
3.884796e+10 -1.685280e+10 2.700990e+07
3.415246e+10 -2.569433e+09 4.000901e+09
3.339472e+10 -1.233334e+10 5.633585e+09
-9.620537e+09 -2.666954e+10 -7.029247e+08
9.641467e+09 -2.670778e+10 7.421186e+08
-3.463715e+10 -2.247925e+10 1.009655e+09
-2.083158e+09 2.593992e+10 -8.280086e+08
-3.174415e+10 1.062368e+10 -2.053052e+09
-3.749530e+10 1.613385e+10 -9.410915e+08
-2.085387e+10 -1.790577e+10 -6.759046e+07
2.214227e+10 1.528433e+10 1.055295e+09
-2.340154e+10 3.254257e+10 -9.508080e+08
-3.504130e+10 -1.103675e+10 9.147073e+08
-3.855983e+10 2.957227e+09 4.853422e+07
-1.488522e+09 4.835771e+10 -1.060101e+09
-2.322514e+10 2.653824e+09 -8.643659e+08
-3.329092e+10 7.113255e+09 -1.385978e+09
2.521003e+10 4.193041e+10 5.199042e+08
-3.124203e+10 -3.092530e+10 -3.043757e+08
3.274740e+10 -3.067498e+10 5.095734e+08
-2.307912e+10 -2.433439e+10 9.538451e+08
-2.750045e+10 3.522412e+10 -1.577927e+09
3.624063e+09 4.270230e+10 3.477627e+08
2.829503e+10 -1.152489e+10 -6.735742e+08
-2.279561e+10 3.156712e+09 -3.739070e+07
1.709276e+10 -1.637474e+10 2.032891e+09
-2.355760e+10 -1.656575e+10 -2.810724e+09
3.334902e+10 -1.151528e+10 6.156946e+07
3.403078e+10 4.255588e+09 -7.285031e+08
-7.098661e+09 -2.556757e+10 1.367855e+09
6.489066e+09 -2.528522e+10 -1.896532e+09
-1.395650e+10 -1.722209e+10 3.654876e+08
-4.931181e+10 -1.039603e+10 -2.214000e+09
1.942690e+10 -3.401168e+10 9.796310e+07
-1.943305e+10 -3.399795e+10 -9.874726e+07
3.288774e+10 3.062723e+10 -9.114144e+08
-2.816240e+10 3.139398e+10 -3.099534e+09
2.996700e+10 -2.839073e+10 6.502954e+08
-3.023012e+10 -2.890371e+10 1.892217e+07
3.842190e+10 -9.028070e+09 -5.742137e+08
-9.044081e+09 5.374015e+10 -1.802637e+09
2.599752e+10 -3.301749e+10 -8.750812e+08
-1.180590e+10 -1.743180e+10 4.639690e+08
-2.599946e+10 -3.298062e+10 8.895198e+08
1.278859e+10 -4.863469e+10 7.538710e+09
-1.287533e+10 -4.488796e+10 -7.778031e+09
3.572780e+10 2.626451e+10 7.756387e+08
-3.799823e+10 -2.262018e+10 2.289876e+09
-5.859751e+10 -9.916098e+09 1.725492e+09
-4.135181e+10 -9.277333e+09 -2.795263e+09
-3.425512e+10 -6.970192e+09 -1.817302e+09
-4.063941e+10 2.438835e+09 3.740534e+08
-2.826484e+10 2.311657e+10 -6.153851e+08
-1.601178e+10 -1.922976e+10 -2.441335e+09
-3.541929e+09 2.911252e+10 9.421855e+08
-4.452319e+09 -3.206229e+10 1.450659e+09
6.454823e+09 -5.248154e+10 2.668591e+09
-4.299376e+09 -3.007543e+10 -1.151949e+09
4.875488e+09 -3.053342e+10 2.875272e+09
5.241675e+10 5.213643e+09 2.070538e+09
-2.256173e+09 2.698887e+10 7.018398e+08
-3.614295e+10 -3.137355e+10 8.372101e+08
3.569023e+10 -3.286177e+10 -1.075005e+09
-1.873468e+10 -1.170331e+10 -3.304412e+09
-1.093313e+10 -1.712851e+10 3.061678e+08
2.166403e+10 -1.772522e+10 -5.705430e+08
-5.292003e+08 4.894766e+10 1.345271e+09
7.131229e+08 3.003825e+10 -1.864473e+09
-1.893375e+10 -2.295446e+10 -3.749372e+08
1.998979e+10 -2.471950e+10 -1.425522e+07
5.194748e+09 3.331922e+10 -5.298009e+08
-3.602258e+10 6.845628e+09 -8.447055e+08
-1.267219e+10 -3.206891e+10 6.870544e+08
1.261935e+10 -3.203851e+10 -5.980865e+08
-4.813117e+10 -1.475240e+09 -4.365615e+09
-1.432299e+10 -2.632587e+10 1.562123e+09
-3.797409e+10 2.425381e+10 8.496358e+08
-7.392970e+09 3.434366e+10 3.284806e+09
4.603668e+10 1.637566e+09 -9.747284e+08
2.780682e+10 1.875359e+10 7.021310e+08
-5.343907e+09 1.927005e+10 -2.739965e+07
-2.341023e+10 -2.512177e+09 -2.871728e+09