# vtk DataFile Version 2.0
Electric current density generated by TTH
ASCII
DATASET UNSTRUCTURED_GRID
POINTS 5099 double
1.062775e-05 3.307201e-05 -2.188364e-22
-1.837662e-05 2.736461e-05 -1.440286e-07
-1.308037e-05 3.088152e-05 -8.391723e-07
-1.301334e-05 3.053427e-05 6.103203e-07
-1.523277e-05 2.927103e-05 2.849958e-07
2.927727e-06 -3.283772e-05 1.745922e-07
1.101084e-05 3.240383e-05 -8.089760e-07
1.524270e-05 -2.924640e-05 2.273983e-07
-2.779290e-05 -1.993023e-05 8.194531e-07
-3.419004e-05 8.371219e-07 8.194531e-07
-2.987243e-05 1.665225e-05 8.194531e-07
1.009221e-05 3.323935e-05 -2.188364e-22
1.549456e-05 3.048914e-05 -8.193920e-07
9.941473e-06 -3.272510e-05 8.187816e-07
-2.901362e-05 1.817081e-05 8.039520e-07
-3.422200e-05 -9.071721e-07 8.039520e-07
-2.880081e-05 -1.850625e-05 8.039520e-07
8.272003e-06 -3.321961e-05 8.039504e-07
3.008509e-05 1.624523e-05 8.234538e-07
2.969801e-05 1.704180e-05 8.009020e-07
3.008509e-05 -1.624523e-05 8.234538e-07
2.969801e-05 -1.704180e-05 8.009020e-07
9.554028e-06 3.339802e-05 -2.188364e-22
1.249303e-05 -3.188499e-05 7.984729e-07
3.224875e-05 -7.505895e-06 -5.101698e-07
3.224950e-05 7.505056e-06 -5.109423e-07
3.266182e-05 1.031861e-05 -7.944685e-07
3.409106e-05 -2.174900e-06 8.356648e-07
3.409106e-05 2.174900e-06 8.356648e-07
-5.425506e-06 3.250302e-05 5.934876e-08
1.926730e-05 2.673549e-05 8.432719e-08
1.047356e-05 -3.258333e-05 -8.081383e-07
1.738703e-05 2.824304e-05 -5.815357e-07
9.013355e-06 3.354797e-05 -2.188364e-22
-2.603617e-05 2.020565e-05 1.037381e-07
-2.568219e-05 2.279087e-05 -7.455871e-07
-2.339391e-05 2.495578e-05 8.168419e-07
2.896878e-06 -3.410734e-05 -8.058240e-07
-3.015178e-05 1.618502e-05 -8.100828e-07
-2.813953e-05 1.949013e-05 -8.058510e-07
-3.419322e-05 1.381486e-06 -8.100828e-07
-2.748923e-05 -2.038203e-05 -8.100828e-07
-3.414025e-05 -2.478562e-06 -8.058419e-07
-2.962083e-05 -1.716249e-05 -8.041176e-07
8.470331e-06 3.368917e-05 -2.188364e-22
-1.582446e-05 -3.035259e-05 -8.058846e-07
6.724298e-06 -3.356295e-05 -8.059260e-07
-1.412517e-05 3.019887e-05 -7.369434e-07
-2.275358e-05 2.383465e-05 4.154603e-08
3.179329e-06 -3.413392e-05 7.790568e-07
-5.775313e-06 3.374377e-05 -8.037535e-07
2.272321e-05 2.459241e-05 8.173198e-07
-1.913036e-06 -3.404095e-05 -8.576484e-07
-3.860037e-06 -3.387545e-05 -8.576484e-07
-9.496580e-06 -3.274540e-05 -8.576484e-07
7.925098e-06 3.382159e-05 -2.188364e-22
-1.135691e-05 -3.214758e-05 -8.576484e-07
-3.312845e-05 8.059268e-06 -8.576484e-07
-2.556045e-05 -2.256346e-05 -8.576484e-07
-3.285087e-05 -9.125068e-06 -8.576484e-07
-3.200765e-05 1.174550e-05 -8.576484e-07
-1.827551e-05 -2.878284e-05 -8.576484e-07
-3.331967e-05 -7.228117e-06 -8.576484e-07
-2.140623e-05 -2.653714e-05 -8.576484e-07
-3.382621e-05 4.270115e-06 -8.576484e-07
-3.161158e-05 -1.277318e-05 -8.576484e-07
7.377796e-06 3.394518e-05 -2.188364e-22
-1.389759e-05 -3.134025e-05 7.780542e-07
-3.414097e-05 3.577216e-06 7.512462e-07
-3.116960e-05 1.427622e-05 7.780542e-07
-2.621054e-05 -2.216778e-05 7.512462e-07
1.398213e-06 -3.418339e-05 8.142747e-07
2.031491e-05 2.766825e-05 -7.528773e-07
1.073013e-06 -3.293571e-05 -6.585460e-08
3.279708e-05 -3.290015e-06 -1.393407e-07
3.279708e-05 3.290015e-06 -1.393407e-07
-2.086846e-05 -2.725764e-05 -7.505975e-07
6.828570e-06 3.405991e-05 -2.188364e-22
-3.251717e-05 1.100476e-05 -7.505975e-07
-3.214477e-05 -1.204929e-05 -7.505975e-07
-3.355116e-05 7.265772e-06 -7.505975e-07
-4.255008e-06 3.286207e-05 -5.452187e-07
-3.220671e-05 7.799187e-06 5.467562e-07
-3.073709e-05 -1.238269e-05 5.467581e-07
-3.112119e-05 1.139308e-05 5.512383e-07
-2.078769e-05 -2.581090e-05 5.512383e-07
2.850189e-05 -1.906517e-05 -7.740259e-07
2.850189e-05 1.906517e-05 -7.740259e-07
6.277563e-06 3.416576e-05 -2.188364e-22
-2.505589e-06 3.285794e-05 6.779672e-08
-1.952099e-05 2.815408e-05 7.910304e-07
6.569075e-06 3.231121e-05 -1.946482e-07
1.661265e-05 -2.852755e-05 -3.254526e-07
-4.846866e-06 3.393807e-05 -7.786282e-07
2.674858e-05 2.144554e-05 -7.776985e-07
2.674858e-05 -2.144554e-05 -7.776985e-07
2.511122e-06 3.300780e-05 -4.991398e-07
-1.124594e-06 3.314456e-05 -5.788647e-07
-2.669919e-05 2.155858e-05 -7.584685e-07
5.724918e-06 3.426270e-05 -2.188364e-22
2.623127e-05 2.001086e-05 -2.703594e-07
2.623127e-05 -2.001086e-05 -2.703594e-07
-1.155097e-05 3.094164e-05 3.620918e-07
2.039607e-05 -2.757010e-05 -7.717284e-07
-1.486988e-05 3.087438e-05 7.862175e-07
1.771411e-05 -2.804419e-05 5.865670e-07
3.196367e-05 8.877060e-06 5.902265e-07
1.691605e-05 -2.842917e-05 4.649591e-07
-2.405270e-05 2.277429e-05 -5.287695e-07
5.562219e-06 3.260210e-05 -4.514184e-07
5.170779e-06 3.435069e-05 -2.188364e-22
5.664186e-06 -3.386415e-05 7.468783e-07
2.154250e-05 -2.496021e-05 -1.894395e-07
1.712752e-05 -2.971360e-05 7.705366e-07
1.869738e-05 2.735500e-05 -5.426163e-07
-2.524233e-05 2.135383e-05 -4.335383e-07
-2.497094e-05 2.161484e-05 3.599989e-07
3.435062e-05 7.761835e-07 7.299905e-07
3.435062e-05 -7.761835e-07 7.299905e-07
2.966480e-05 -1.538367e-05 7.843954e-07
2.966480e-05 1.538367e-05 7.843954e-07
4.615291e-06 3.442973e-05 -2.188364e-22
-2.077015e-05 2.697629e-05 -8.704198e-07
-1.572074e-05 2.968711e-05 -8.573195e-07
2.993586e-05 -1.655407e-05 -8.160200e-07
2.993586e-05 1.655407e-05 -8.160200e-07
-5.174926e-06 3.391930e-05 7.613564e-07
4.759355e-06 3.397958e-05 7.616776e-07
-3.384113e-06 3.413639e-05 7.662510e-07
1.916610e-05 -2.713591e-05 6.411265e-07
-2.126832e-05 2.681095e-05 8.095124e-07
-2.983923e-05 1.400597e-05 -1.463052e-07
4.058599e-06 3.449978e-05 -2.188364e-22
-1.364348e-05 -3.000671e-05 -1.463052e-07
-1.658099e-05 -2.848066e-05 -9.377901e-08
-1.612290e-05 -2.899986e-05 -5.980365e-07
3.275390e-05 6.109257e-06 -7.226316e-07
3.275390e-05 -6.109257e-06 -7.226316e-07
1.993722e-05 -2.631737e-05 -3.366822e-07
1.651656e-05 2.878715e-05 6.072124e-07
2.204727e-05 -2.624931e-05 7.800705e-07
-1.758603e-05 2.953458e-05 7.195878e-07
3.245468e-05 -5.697018e-06 -1.640603e-08
3.500848e-06 3.456083e-05 -2.188364e-22
3.245468e-05 5.697018e-06 -1.640603e-08
-1.232828e-05 -3.204489e-05 7.469003e-07
-3.144326e-05 -1.374091e-05 7.596254e-07
-1.924417e-05 -2.848271e-05 7.191266e-07
-3.187067e-05 1.271817e-05 7.596254e-07
-2.511866e-05 -2.338553e-05 7.565498e-07
-3.392356e-05 5.198281e-06 7.565498e-07
-3.372506e-05 -6.333410e-06 7.596254e-07
-9.658229e-07 -3.430100e-05 7.596253e-07
-3.399740e-05 -4.718290e-06 7.541985e-07
2.942184e-06 3.461287e-05 -2.188364e-22
-3.075960e-05 -1.522933e-05 7.541985e-07
-4.832344e-06 -3.403859e-05 7.150819e-07
-3.282240e-05 -1.011955e-05 7.385900e-07
-3.316891e-05 9.044334e-06 7.150819e-07
-2.232137e-05 -2.614822e-05 7.151253e-07
-8.640966e-06 -3.324272e-05 7.382983e-07
-2.820821e-05 -1.753553e-05 -6.337466e-07
-3.318590e-05 -1.376194e-06 -6.337466e-07
2.981742e-05 -1.466771e-05 -6.486766e-07
2.981749e-05 1.466799e-05 -6.488515e-07
2.382753e-06 3.465587e-05 -2.188364e-22
3.069214e-05 1.230488e-05 -4.404546e-07
2.806279e-05 1.779714e-05 6.492253e-07
2.806279e-05 -1.779714e-05 6.492253e-07
-2.935242e-05 -1.497472e-05 -3.850688e-08
-3.269086e-05 -4.136973e-06 -3.850688e-08
3.301354e-05 -1.798561e-06 4.326476e-07
3.301354e-05 1.798561e-06 4.326476e-07
8.267784e-06 3.197408e-05 3.582356e-07
-1.731641e-05 2.957993e-05 -7.823205e-07
3.261667e-05 4.856189e-06 2.117310e-07
1.822699e-06 3.468984e-05 -2.188364e-22
3.261667e-05 -4.856189e-06 2.117310e-07
-1.869307e-05 2.875077e-05 -7.723427e-07
3.372712e-05 -5.964087e-06 7.958124e-07
3.372712e-05 5.964087e-06 7.958124e-07
-2.050766e-05 2.579156e-05 -2.134613e-08
-1.956063e-05 2.807611e-05 -8.114258e-07
-1.976640e-05 2.637331e-05 1.173030e-07
-1.794235e-05 2.795612e-05 -6.378307e-07
3.267558e-05 1.022714e-05 8.016724e-07
3.267967e-05 -1.022439e-05 8.001501e-07
1.262171e-06 3.471475e-05 -2.188364e-22
2.764327e-05 -2.029461e-05 -7.724806e-07
2.764327e-05 2.029461e-05 -7.724806e-07
-2.759284e-05 2.043074e-05 7.476762e-07
-2.442990e-05 2.230899e-05 4.684250e-07
-2.515465e-05 2.328383e-05 7.818168e-07
1.560898e-05 -3.059635e-05 -7.379792e-07
9.372763e-06 3.169221e-05 -4.075615e-07
2.902078e-05 -1.837580e-05 -7.369973e-07
2.902078e-05 1.837580e-05 -7.369973e-07
3.258934e-05 -6.305543e-06 6.125081e-07
7.013127e-07 3.473061e-05 -2.188364e-22
3.258934e-05 6.305543e-06 6.125081e-07
-1.792106e-05 2.841097e-05 8.567999e-07
-7.131516e-06 3.234791e-05 -5.296954e-07
1.226473e-05 3.206897e-05 -7.470847e-07
-1.765409e-05 -2.934581e-05 7.976295e-07
1.436895e-05 -2.981158e-05 4.848581e-07
1.078544e-05 -3.265490e-05 7.074408e-07
1.183255e-05 3.228415e-05 7.118088e-07
9.714434e-06 -3.189220e-05 7.368464e-07
-2.746006e-05 -2.070617e-05 7.059514e-07
1.402717e-07 3.473741e-05 -2.188364e-22
-3.043260e-05 1.602052e-05 7.059514e-07
-3.435150e-05 1.665855e-06 7.059514e-07
3.411214e-05 3.825136e-06 -7.524861e-07
3.411214e-05 -3.825136e-06 -7.524861e-07
2.892764e-05 -1.849314e-05 7.474425e-07
2.892764e-05 1.849314e-05 7.474425e-07
1.173015e-05 -3.080972e-05 -1.705703e-07
-1.261518e-05 3.199813e-05 7.034335e-07
2.728977e-05 -1.899590e-05 6.673997e-07
2.728977e-05 1.899590e-05 6.673997e-07
-4.208059e-07 3.473514e-05 -2.188364e-22
2.868832e-05 -1.682779e-05 6.755623e-07
2.868832e-05 1.682779e-05 6.755623e-07
-6.555367e-06 -3.363405e-05 7.871500e-07
-2.088755e-05 -2.716491e-05 7.871500e-07
-3.206159e-05 -1.209449e-05 7.871500e-07
-3.255242e-05 1.070337e-05 7.871500e-07
-3.330979e-05 -8.042381e-06 7.871500e-07
-2.355288e-05 -2.488943e-05 7.871500e-07
-3.347540e-05 7.322550e-06 7.871500e-07
-1.065891e-05 -3.256701e-05 7.871500e-07
-9.817737e-07 3.472381e-05 -2.188364e-22
-3.085767e-06 -3.412770e-05 7.871500e-07
1.664817e-05 2.998838e-05 7.686900e-07
1.275431e-05 -3.084151e-05 -7.601585e-07
3.219098e-05 -8.561095e-06 -7.161124e-07
3.216298e-05 8.646222e-06 -7.123134e-07
2.241835e-05 2.537079e-05 8.933836e-07
1.331714e-05 3.167272e-05 7.306090e-07
-2.614638e-05 -2.070412e-05 7.450442e-07
-3.326437e-05 2.403354e-06 7.450442e-07
-1.445490e-05 -3.004381e-05 7.377915e-07
-1.542485e-06 3.470343e-05 -2.188364e-22
-2.986237e-05 1.482993e-05 7.389437e-07
[...]
POINT_DATA 5099
VECTORS 10.000GHz_fone_imag double
3.238422e+10 -1.001842e+10 -1.197141e+08
3.295734e+10 2.142439e+10 8.661019e+08
3.614459e+10 1.578043e+10 -4.616369e+06
3.935799e+10 1.646872e+10 -3.567712e+08
3.658022e+10 1.803776e+10 3.412014e+08
-4.142383e+10 -2.505233e+09 5.467630e+08
3.444413e+10 -1.258487e+10 -2.900288e+08
-3.813295e+10 -1.910779e+10 6.568707e+08
-2.005838e+10 3.001370e+10 8.281373e+08
8.608888e+07 3.398833e+10 -5.898514e+08
1.786942e+10 3.136878e+10 3.336665e+08
3.382006e+10 -1.004780e+10 6.501848e+08
3.160319e+10 -1.614965e+10 5.486780e+08
-3.456588e+10 -9.124523e+09 7.342073e+08
1.984360e+10 3.135079e+10 5.690703e+08
-1.112921e+09 3.619919e+10 2.574064e+08
-1.942323e+10 3.099792e+10 9.135977e+07
-3.445131e+10 -7.985127e+09 -3.373401e+08
1.752445e+10 -3.206340e+10 -1.322886e+08
1.844275e+10 -3.139546e+10 1.465860e+08
-1.751706e+10 -3.205235e+10 1.331996e+08
-1.844192e+10 -3.139100e+10 -1.459874e+08
3.348766e+10 -9.228350e+09 -4.838240e+07
-3.334565e+10 -1.317756e+10 -1.058207e+09
-1.036665e+10 -4.095771e+10 1.690885e+09
1.023387e+10 -4.034152e+10 -1.719441e+09
1.096455e+10 -3.635733e+10 -1.503142e+08
-3.065930e+09 -3.507578e+10 -8.272829e+08
2.706445e+09 -3.703069e+10 -3.811881e+08
4.185648e+10 4.798133e+09 -2.807182e+08
3.515038e+10 -2.573146e+10 1.371194e+08
-3.467899e+10 -1.145514e+10 4.759940e+08
3.448191e+10 -2.131484e+10 3.706475e+08
3.434397e+10 -8.677365e+09 1.448309e+09
2.522233e+10 3.234837e+10 1.070814e+08
2.351763e+10 2.681826e+10 4.700045e+07
2.661725e+10 2.595071e+10 -1.229770e+09
-3.877028e+10 -3.775902e+09 1.121718e+07
1.749447e+10 3.301743e+10 -1.324454e+08
2.094108e+10 2.915446e+10 1.223027e+09
1.484542e+09 3.680915e+10 2.564383e+08
-2.186680e+10 2.823040e+10 5.670053e+08
-2.122948e+09 3.600755e+10 -4.441643e+07
-1.988306e+10 3.344931e+10 2.131235e+08
3.314106e+10 -8.557073e+09 1.221337e+08
-3.265836e+10 1.655121e+10 2.945693e+08
-3.429372e+10 -6.559304e+09 -3.869732e+08
3.785485e+10 1.817886e+10 -1.667354e+08
2.989754e+10 2.819796e+10 -2.379978e+08
-3.755100e+10 -3.895440e+09 1.269069e+09
3.641702e+10 4.997062e+09 -3.938405e+08
2.922920e+10 -2.579349e+10 -7.413372e+08
-3.710728e+10 2.916075e+09 1.206221e+09
-3.722936e+10 3.658128e+09 -1.408875e+09
-3.725035e+10 1.082003e+10 5.792901e+08
3.306809e+10 -6.649734e+09 -9.823928e+08
-3.648072e+10 1.283931e+10 -9.007761e+08
7.944983e+09 3.747289e+10 -9.559690e+07
-2.395021e+10 2.791817e+10 7.394738e+08
-8.647345e+09 3.823699e+10 6.618907e+08
1.266851e+10 3.562655e+10 -1.326162e+09
-3.148107e+10 1.997841e+10 -8.369450e+08
-9.667681e+09 3.770015e+10 -2.267928e+07
-3.016918e+10 2.296700e+10 -1.088133e+08
4.273881e+09 3.687109e+10 -7.223208e+08
-1.452577e+10 3.387731e+10 7.622627e+08
3.329130e+10 -7.316657e+09 -7.663239e+08
-3.531689e+10 1.588193e+10 -1.883928e+09
3.850683e+09 3.612009e+10 1.140697e+09
1.498759e+10 3.084207e+10 -8.157212e+08
-2.343662e+10 2.792972e+10 -9.181079e+08
-3.732905e+10 -1.260907e+09 5.881938e+08
2.931737e+10 -2.057988e+10 -4.462251e+08
-4.105057e+10 -1.895879e+09 1.204163e+09
-4.525654e+09 -4.112284e+10 1.370361e+08
4.501783e+09 -4.182272e+10 -3.434823e+08
-2.856247e+10 2.118100e+10 1.870229e+08
3.304789e+10 -7.416768e+09 -7.523603e+08
1.233337e+10 3.383930e+10 -9.951114e+08
-1.245180e+10 3.215294e+10 4.073619e+08
7.381237e+09 3.497079e+10 -1.169890e+08
3.988343e+10 6.282098e+09 1.195913e+09
1.072728e+10 4.095321e+10 3.267297e+08
-1.503294e+10 3.859539e+10 -1.765369e+09
1.397987e+10 3.821765e+10 -2.810237e+08
-3.277553e+10 2.768572e+10 5.662986e+08
-1.940511e+10 -3.016290e+10 1.002751e+09
1.940665e+10 -3.016360e+10 -1.002350e+09
3.386296e+10 -5.849208e+09 3.102386e+08
4.197059e+10 1.825656e+09 -2.719671e+08
2.907445e+10 2.107921e+10 -5.748858e+08
4.096677e+10 -8.532070e+09 -4.940465e+08
-3.578625e+10 -2.194322e+10 1.608930e+07
3.508098e+10 5.629198e+09 -7.129884e+08
2.336281e+10 -2.889103e+10 -2.863989e+08
-2.336210e+10 -2.889535e+10 2.887319e+08
4.105118e+10 -3.343263e+09 -4.966478e+08
4.240959e+10 2.256611e+09 6.189827e+08
2.274333e+10 2.924848e+10 -5.054797e+08
3.624737e+10 -6.580751e+09 -2.369839e+08
2.434260e+10 -3.199034e+10 -8.600245e+08
-2.434223e+10 -3.199073e+10 8.587174e+08
3.791904e+10 1.600147e+10 -3.485372e+08
-2.826601e+10 -2.262622e+10 4.144835e+08
3.444863e+10 1.602745e+10 2.203808e+06
-3.566067e+10 -2.238706e+10 -8.252260e+08
1.013920e+10 -3.841109e+10 -6.106289e+08
-3.534988e+10 -2.143390e+10 8.525721e+08
2.806763e+10 2.933403e+10 -9.485718e+07
4.214492e+10 -7.271733e+09 -1.781972e+07
3.396101e+10 -4.430471e+09 -4.301079e+07
-3.577894e+10 -5.325542e+09 -2.115124e+08
-3.114030e+10 -2.796062e+10 7.378695e+08
-3.242999e+10 -1.772235e+10 1.125264e+09
3.319056e+10 -2.296770e+10 3.621327e+08
2.710339e+10 3.211465e+10 -2.678605e+08
2.606525e+10 3.290506e+10 -1.975700e+08
2.023751e+09 -3.653132e+10 6.883206e+08
-1.426593e+09 -3.786936e+10 -6.016329e+08
-1.718871e+10 -3.736417e+10 1.106427e+09
1.719362e+10 -3.735012e+10 -1.098669e+09
3.385234e+10 -3.991571e+09 -3.654609e+08
2.872846e+10 2.221507e+10 -8.361684e+07
3.503807e+10 1.797884e+10 7.129747e+08
-1.842174e+10 -3.206781e+10 -2.628202e+07
1.842862e+10 -3.206711e+10 2.933464e+07
3.544560e+10 4.174537e+09 -3.111568e+08
3.735045e+10 -5.163106e+09 4.270293e+08
3.610996e+10 3.589730e+09 1.156095e+09
-3.168037e+10 -2.433481e+10 1.827113e+09
2.868340e+10 2.396903e+10 -1.179828e+08
1.821685e+10 3.897643e+10 -4.780246e+08
3.393693e+10 -4.431400e+09 -2.318439e+08
-3.755761e+10 1.741315e+10 -9.921267e+08
-3.650844e+10 2.099648e+10 -2.855970e+08
-3.675128e+10 1.905360e+10 -5.639890e+08
7.758584e+09 -3.860099e+10 5.076948e+08
-8.064012e+09 -3.866608e+10 -5.563123e+08
-3.309517e+10 -2.449104e+10 3.540756e+07
3.536159e+10 -1.886482e+10 -7.833891e+07
-2.828304e+10 -2.341711e+10 5.589311e+08
2.967157e+10 1.773460e+10 1.877317e+09
-7.228072e+09 -4.126560e+10 1.131602e+09
3.305222e+10 -3.954833e+09 3.284482e+08
7.457439e+09 -4.255332e+10 4.837138e+08
-3.142657e+10 1.205829e+10 -2.129413e+08
-1.386763e+10 3.140040e+10 -3.729773e+08
-2.878015e+10 1.998712e+10 1.449831e+09
1.401654e+10 3.333590e+10 -7.467953e+08
-2.455793e+10 2.598238e+10 1.813756e+08
5.633869e+09 3.613738e+10 -2.056777e+08
-6.244903e+09 3.408213e+10 3.586329e+08
-3.482792e+10 1.427575e+09 3.848367e+08
-4.741099e+09 3.433730e+10 -4.156592e+08
3.486201e+10 -2.162486e+09 1.408732e+08
-1.630351e+10 3.153186e+10 2.765159e+08
-3.400198e+10 4.312391e+09 -2.627927e+07
-9.779817e+09 3.380683e+10 2.501897e+08
8.949560e+09 3.448888e+10 1.007524e+08
-2.752525e+10 2.271865e+10 2.210036e+08
-3.396189e+10 8.800625e+09 5.344657e+08
-2.153370e+10 3.490787e+10 1.125048e+09
-1.286297e+09 3.988280e+10 1.237063e+08
-1.828074e+10 -3.839517e+10 -3.246075e+08
1.829262e+10 -3.838012e+10 3.242014e+08
3.447187e+10 -3.143922e+09 -1.101126e+08
1.596258e+10 -3.738272e+10 -9.261527e+08
2.199635e+10 -3.472954e+10 6.308793e+08
-2.199758e+10 -3.473269e+10 -6.304204e+08
-2.033440e+10 4.053517e+10 1.922704e+09
-5.107969e+09 4.323398e+10 -3.853823e+08
-3.410846e+09 -4.126581e+10 4.896966e+08
2.766704e+09 -4.150239e+10 -7.667688e+08
3.891485e+10 -1.048015e+10 -4.555687e+07
3.212918e+10 1.790530e+10 -2.759858e+08
6.731549e+09 -4.003492e+10 -6.147334e+08
3.583059e+10 -2.864734e+09 4.292784e+07
-6.343132e+09 -4.235609e+10 5.240346e+08
3.001876e+10 1.877398e+10 7.985530e+08
-5.831546e+09 -3.788326e+10 -1.478635e+08
5.702004e+09 -3.844465e+10 3.633185e+07
3.300197e+10 2.664616e+10 4.202491e+08
2.946883e+10 2.095307e+10 -1.775847e+08
3.384204e+10 2.523750e+10 2.635687e+08
3.542183e+10 2.166999e+10 6.192932e+08
1.002521e+10 -3.461933e+10 6.131640e+08
-1.091418e+10 -3.464069e+10 7.189631e+08
3.454909e+10 2.902886e+08 -2.471451e+08
-2.259412e+10 -3.185448e+10 8.472776e+08
2.259564e+10 -3.185564e+10 -8.469852e+08
2.301902e+10 2.961340e+10 3.630897e+08
2.666615e+10 3.062652e+10 -5.270140e+08
2.431334e+10 2.627669e+10 -1.026951e+09
-3.163557e+10 -1.602069e+10 -8.633425e+08
3.876671e+10 -1.097446e+10 3.014931e+08
-2.057343e+10 -2.973551e+10 6.948792e+08
2.057620e+10 -2.973688e+10 -6.939645e+08
-8.081690e+09 -4.005098e+10 -3.362654e+08
3.447139e+10 -9.746141e+08 4.870639e+08
7.901902e+09 -4.057656e+10 4.468570e+08
3.414834e+10 2.086328e+10 -1.188518e+08
4.095631e+10 9.761036e+09 2.800302e+08
3.310454e+10 -1.346879e+10 -2.368164e+08
-3.144404e+10 1.875552e+10 4.378876e+08
-3.649303e+10 -1.886007e+10 4.916895e+08
-3.301113e+10 -1.037603e+10 8.251870e+08
3.468477e+10 -1.361093e+10 2.839448e+08
-3.888222e+10 -1.194026e+10 -8.878184e+08
-2.117564e+10 2.777775e+10 1.702191e+08
3.413053e+10 -8.048998e+08 6.180363e+08
1.627650e+10 3.089161e+10 -7.984652e+08
7.621029e+08 3.429281e+10 -3.586642e+08
3.730688e+09 -3.503240e+10 2.919080e+08
-4.426164e+09 -3.581804e+10 -6.286939e+08
-1.910358e+10 -2.869118e+10 2.365410e+08
1.910508e+10 -2.869184e+10 -2.370459e+08
-3.905671e+10 -1.561050e+10 2.554489e+08
3.303293e+10 1.323452e+10 6.648323e+08
-2.439109e+10 -3.308949e+10 -1.626393e+09
2.439019e+10 -3.308803e+10 1.626550e+09
3.361881e+10 1.432513e+09 3.035948e+08
-2.022666e+10 -3.599502e+10 1.622114e+08
2.022360e+10 -3.598875e+10 -1.618483e+08
-3.532600e+10 7.231944e+09 5.229603e+08
-2.857299e+10 2.124545e+10 -2.036317e+08
-1.326850e+10 3.648603e+10 -3.190190e+08
1.291915e+10 3.598774e+10 4.433059e+08
-9.950926e+09 3.473107e+10 -6.788024e+08
-2.425629e+10 2.564530e+10 9.377932e+08
7.209956e+09 3.531255e+10 -3.219420e+08
-3.549891e+10 1.066677e+10 -2.785057e+08
3.367357e+10 1.258613e+09 3.795180e+08
-3.640452e+10 3.032429e+09 -3.311463e+08
3.203008e+10 -1.792114e+10 -9.683854e+08
-3.607271e+10 -1.607499e+10 -5.141623e+08
-1.187844e+10 -3.886764e+10 -4.969510e+08
1.181240e+10 -4.048180e+10 4.714941e+08
2.961197e+10 -2.581292e+10 7.623865e+08
3.216110e+10 -1.420305e+10 6.061925e+08
-2.412606e+10 3.041164e+10 -3.887687e+08
2.076465e+09 4.156683e+10 -1.077088e+08
-3.473311e+10 1.839056e+10 -4.019937e+08
3.408912e+10 1.225543e+09 -7.850262e+07
1.837584e+10 3.481885e+10 1.001666e+08
-3.946399e+10 -1.235870e+10 -6.130918e+08
-4.123835e+10 3.639777e+09 -3.361678e+08
-3.962095e+10 1.273079e+10 -8.738932e+08
-1.053309e+10 4.212597e+10 2.202192e+08
-3.624091e+10 -1.931085e+10 -2.489583e+08
2.866228e+10 -2.887145e+10 -3.817617e+08
-2.862233e+10 -2.915289e+10 8.791526e+08
1.210061e+10 -3.743930e+10 1.324311e+09
3.751699e+10 -1.601578e+10 1.900016e+09
3.451860e+10 1.636281e+09 1.487039e+07
2.035741e+10 -2.910330e+10 8.887810e+07
-2.035733e+10 -2.910288e+10 -8.870155e+07
-3.532274e+10 -4.049499e+09 -8.401224e+08
2.370592e+10 -2.667910e+10 2.505656e+08
-2.360026e+10 -2.668189e+10 -3.359977e+08
3.779950e+10 -1.647543e+10 1.114775e+09
3.978250e+09 4.176247e+10 2.577631e+08
-2.624246e+10 3.017378e+10 -2.351542e+08
-1.342309e+10 -3.819789e+10 -5.627958e+08
1.591225e+09 -3.620978e+10 -3.881835e+08
3.371048e+10 3.567284e+09 -7.590759e+08
-9.835285e+08 -3.588820e+10 1.690244e+07
-3.185475e+10 1.592610e+10 1.123666e+09
2.807646e+10 -2.865924e+10 -4.877281e+07
3.041258e+10 2.757207e+10 -2.781934e+08
-2.741977e+10 -2.699466e+10 -1.802548e+09
-3.522195e+10 -2.593312e+10 -8.399873e+08
-3.167407e+10 -2.650450e+10 1.717295e+08
-3.857604e+10 -9.810306e+08 -5.560894e+08
4.195695e+10 9.231188e+09 2.583733e+08
9.037508e+09 -3.621158e+10 -4.503312e+08
3.445541e+10 3.237757e+09 8.854228e+08
-9.216641e+09 -3.490354e+10 6.172752e+08
-2.318211e+10 -3.295595e+10 2.876009e+08
2.318247e+10 -3.295598e+10 -2.878480e+08
4.024693e+10 -4.133178e+09 1.923521e+08
4.054350e+10 2.583656e+09 4.972114e+07
3.525116e+10 8.522232e+09 -4.443120e+08
3.425154e+10 1.155850e+10 1.241648e+09
3.653074e+10 -2.451604e+09 -7.165006e+08
3.441106e+10 1.765299e+09 7.079407e+08
3.884308e+10 1.671835e+10 1.422692e+08
3.506373e+10 3.165434e+09 -5.421292e+08
3.483516e+10 1.094693e+08 -2.260621e+08
3.561242e+10 -1.839787e+09 5.395485e+08
3.361601e+10 9.896933e+09 -4.084342e+08
3.454149e+10 7.998169e+09 -1.458321e+08
-2.390770e+10 -3.365894e+10 -1.787483e+08
2.390716e+10 -3.365803e+10 1.789066e+08
2.320394e+10 2.874700e+10 5.827491e+08
-3.497736e+10 1.778444e+10 -4.432083e+08
1.384319e+10 -3.385267e+10 1.693025e+08
-3.452214e+10 -1.622434e+09 1.288394e+09
3.543154e+10 4.725194e+09 5.044818e+08
-3.461996e+10 6.479134e+09 -5.584205e+08
-5.608298e+09 3.593459e+10 -6.748132e+08
1.451117e+10 3.173523e+10 -6.113177e+08
-1.569827e+10 3.024051e+10 1.470115e+09
-2.573060e+10 2.487987e+10 7.869342e+08
-3.134172e+10 1.399480e+10 -5.401971e+08
-3.610897e+10 5.044002e+09 6.164086e+08
-3.434703e+10 1.367294e+10 3.388008e+08
-1.518341e+10 3.304639e+10 4.994218e+08
-9.240751e+09 3.352957e+10 -1.155579e+09
3.409648e+10 4.958122e+09 7.357757e+08
-2.930397e+10 2.035620e+10 -3.659244e+08
8.039137e+09 3.409280e+10 6.461238e+08
-6.373296e+09 3.531565e+10 6.324881e+08
-2.308293e+10 2.561357e+10 -1.940365e+08
1.337341e+10 3.367400e+10 -1.608872e+08
4.656358e+09 3.294708e+10 2.307260e+08
-2.713384e+10 2.142852e+10 7.031678e+08
-3.371347e+10 8.662259e+09 3.535652e+08
-3.636468e+10 2.140005e+09 -7.708720e+08
3.893055e+10 -1.384259e+10 5.348509e+08
3.431125e+10 5.347333e+09 3.819859e+08
2.929717e+10 2.832075e+10 7.947798e+08
-3.296715e+10 -1.237752e+10 1.479048e+08
-3.111954e+10 -2.349893e+10 -1.503331e+09
8.486428e+09 -3.625702e+10 -1.014712e+09
-8.156313e+09 -3.617181e+10 6.202684e+08
-4.126156e+10 -3.187578e+09 -3.985330e+08
3.404895e+10 -7.243995e+09 1.224410e+09
1.312127e+10 -3.825813e+10 1.702705e+08
3.001827e+10 -1.943955e+10 -6.413174e+08
2.533752e+10 -2.410444e+10 6.348575e+08
3.472763e+10 6.072768e+09 2.357752e+08
2.725334e+10 -2.311679e+10 -6.491371e+08
2.672292e+10 -2.341697e+10 -5.157817e+08
1.865967e+09 3.962335e+10 1.084540e+08
-2.399370e+10 3.333964e+10 -7.730753e+08
1.960740e+10 3.517319e+10 -4.214200e+08
4.185543e+10 -9.948362e+09 -2.512379e+08
3.439712e+10 -3.989106e+09 -7.529907e+08
3.828088e+10 3.452421e+09 4.185551e+08
3.582987e+10 6.521260e+09 -1.672826e+08
-2.631963e+10 -2.521423e+10 7.807949e+07
3.530014e+10 6.807956e+09 1.545081e+09
-2.703378e+10 -2.555568e+10 3.166704e+08
2.617645e+10 -2.465462e+10 -2.097774e+08
3.704728e+10 1.052956e+10 -1.219590e+08
3.852038e+10 -3.821252e+08 -8.263659e+07
2.324723e+10 -2.628827e+10 2.303107e+08
-2.320994e+10 -2.639051e+10 1.523935e+08
-2.653342e+10 -2.994368e+10 5.898714e+08
2.671662e+10 -2.992965e+10 -6.520481e+08
2.379339e+10 2.502234e+10 2.490970e+08
3.516873e+10 1.433582e+10 -2.241872e+08
3.365107e+10 8.494408e+09 9.235362e+08
-1.026932e+10 -3.782825e+10 3.925999e+08
-2.582280e+10 -2.424726e+10 -2.971671e+08
3.081091e+09 -3.369013e+10 -3.074083e+08
-4.078359e+09 -3.567168e+10 8.779876e+07
-3.971724e+10 -9.142266e+09 7.152605e+08
2.272878e+10 3.377991e+10 1.587498e+09
-3.583854e+10 -4.727876e+09 -5.189546e+08
-9.347752e+07 3.533945e+10 2.865346e+08
1.783193e+10 3.073930e+10 7.220087e+08
-2.426389e+10 2.693427e+10 6.088066e+08
3.297171e+10 7.636650e+09 -1.225163e+08
-1.989550e+10 2.959890e+10 6.538462e+06
-2.997464e+10 1.803901e+10 -3.157110e+08
4.077654e+09 3.706799e+10 2.655466e+08
-3.501475e+10 -9.070196e+09 -1.509835e+08
3.154028e+10 2.548105e+10 1.279961e+09
3.697307e+10 -1.077358e+10 -5.939427e+08
-1.667786e+10 -3.552049e+10 9.338412e+08
-1.363864e+10 -3.780652e+10 1.184222e+09
3.476534e+10 -2.318159e+10 1.831076e+07
3.137364e+10 1.625810e+10 -9.380351e+08
3.291107e+10 5.972181e+09 -6.060751e+08
3.863574e+10 9.400611e+09 -5.236218e+08
3.809431e+10 1.099039e+10 8.654175e+08
3.944047e+10 -2.826614e+09 1.994588e+08
4.018643e+10 -1.269071e+09 -4.554050e+08
1.660362e+10 -3.524677e+10 -9.496372e+08
-1.673103e+10 -3.151723e+10 -5.106013e+08
1.646307e+10 -3.133269e+10 4.068014e+08
3.297960e+10 -2.134680e+10 -2.804559e+08
-3.511435e+10 2.430133e+09 -1.282073e+09
-3.325231e+10 1.078241e+10 7.548255e+08
3.519849e+10 1.026039e+10 -3.541898e+08
-8.024978e+09 3.472936e+10 1.100835e+09
-8.783899e+09 -3.980732e+10 2.217921e+08
-3.217883e+10 -1.401916e+10 -1.312585e+09
8.620505e+09 -3.950237e+10 -3.667774e+08
-9.018838e+09 -3.855091e+10 -1.441425e+09
8.979334e+09 -3.820989e+10 1.354913e+09
-3.700621e+10 -6.788984e+09 5.676789e+08
2.021229e+10 3.038153e+10 -6.891457e+07
-1.548391e+09 3.531915e+10 1.275940e+09
-1.831801e+10 3.098298e+10 -1.519051e+09
3.399721e+10 9.230876e+09 4.202647e+08
1.139935e+10 -3.281390e+10 -8.269063e+07
1.831049e+10 3.750938e+10 -2.127251e+08
2.325459e+09 4.011711e+10 9.605949e+08
-2.560379e+10 3.325214e+10 -2.249461e+08
-3.703708e+10 1.693437e+10 1.346648e+08
-1.177123e+10 -3.271367e+10 3.431949e+08
3.036408e+10 -1.874056e+10 1.281416e+09
2.773142e+10 3.101976e+10 -1.771125e+08
9.091846e+09 -3.385009e+10 1.291771e+09
-9.289115e+09 -3.489690e+10 1.835222e+08
3.301252e+10 9.087079e+09 6.425533e+08
3.802323e+10 -1.331573e+10 -1.795780e+08
3.017156e+10 -2.659406e+10 9.394049e+07
-5.568714e+09 -3.934739e+10 -1.147827e+08
4.615641e+09 -3.970508e+10 3.490044e+08
-3.130325e+10 -1.372804e+10 1.462644e+09
1.566288e+10 -3.240023e+10 -5.150611e+08
1.459427e+10 -3.317677e+10 -2.946261e+08
-1.562905e+10 -3.234118e+10 5.159341e+08
-1.444190e+10 -3.292682e+10 2.619124e+08
2.714516e+10 2.756909e+10 2.157391e+07
3.206106e+10 1.100856e+10 7.816798e+08
-3.916470e+09 4.136720e+10 1.562227e+09
-1.949338e+10 3.647998e+10 -1.279931e+09
2.510552e+10 2.569338e+10 -5.734981e+05
-2.283765e+10 -3.276440e+10 -1.299937e+09
2.283692e+10 -3.276300e+10 1.300054e+09
2.560015e+10 -2.770811e+10 -1.111713e+09
2.915569e+10 -2.910555e+10 4.048666e+08
-2.599555e+10 -2.813663e+10 1.132826e+09
-2.934077e+10 -2.939678e+10 -2.947570e+08
-3.159370e+10 -1.567677e+10 4.047180e+08
3.298716e+10 1.110075e+10 1.015422e+09
-2.436626e+10 -2.888455e+10 7.772279e+08
2.406927e+10 -2.695603e+10 -1.503955e+09
-3.853665e+10 -1.699378e+10 -4.182136e+07
1.682865e+10 -3.678405e+10 -6.558684e+08
-1.680472e+10 -3.680912e+10 6.741158e+08
3.309370e+10 -1.099896e+10 -8.473950e+08
3.864417e+10 6.180637e+09 4.137522e+08
-3.899702e+10 -1.269859e+10 -6.487226e+08
-1.949269e+10 -3.524124e+10 -9.247886e+08
1.948924e+10 -3.523503e+10 9.245387e+08
3.284245e+10 1.125032e+10 -2.069706e+08
-2.626903e+10 -3.220807e+10 1.511492e+08
2.627353e+10 -3.220117e+10 -1.540818e+08
-3.948164e+10 7.956256e+09 -5.292329e+08
-3.343009e+10 2.430872e+10 4.959953e+08
-1.401963e+10 3.779832e+10 5.111660e+08
7.702125e+09 4.283063e+10 1.056374e+09
1.382347e+10 3.894669e+10 -1.628370e+09
-2.865990e+10 2.861299e+10 -4.673450e+08
-3.038284e+10 2.848257e+10 -1.931514e+08
-4.015774e+10 7.886599e+09 -6.055579e+08
3.306731e+10 1.233303e+10 -1.074525e+09
6.606491e+09 -3.372388e+10 -6.761454e+08
-6.795029e+09 -3.405772e+10 5.429682e+08
3.768594e+10 -4.059626e+09 5.613522e+08
4.032454e+10 3.300329e+09 -2.961821e+08
3.288958e+10 -2.614832e+10 -1.974276e+08
2.981384e+10 -2.670669e+10 -1.625040e+09
-1.189667e+10 -3.288052e+10 -8.077581e+08
-3.983947e+10 6.673707e+09 -2.542107e+08
-3.102284e+10 2.958591e+10 9.855078e+08
1.268634e+10 -3.405602e+10 6.246887e+08
3.189832e+10 1.184529e+10 -9.668652e+08
2.961804e+10 1.935344e+10 9.749620e+08
3.447243e+10 -2.391577e+10 1.134099e+09
3.860832e+10 -1.150199e+10 -1.131119e+08
-4.090984e+10 -1.059774e+09 2.232474e+08
1.784938e+10 3.704280e+10 1.038611e+09
-1.805644e+10 3.714519e+10 -5.974143e+08
-6.102805e+09 4.240661e+10 6.022734e+08
-3.706023e+10 1.603241e+10 4.302337e+08
-2.812691e+10 3.019021e+10 -3.778746e+08
-3.088455e+10 2.777173e+10 9.772223e+08
3.215777e+10 1.352221e+10 -1.263160e+08
5.862747e+09 4.229663e+10 2.485097e+08
-1.235512e+10 3.965841e+10 -2.372462e+08
1.243863e+10 4.007303e+10 1.021994e+09
-3.376049e+10 2.315174e+10 9.479410e+08
-4.057772e+10 6.077856e+09 5.271014e+08
-4.070397e+10 1.127811e+10 1.940944e+08
3.880095e+10 -1.060714e+10 -1.163150e+09
2.323339e+10 2.755011e+10 -3.447182e+07
2.381030e+10 -2.509367e+10 7.818565e+08
-2.415880e+10 -2.509034e+10 -5.522302e+08
3.126429e+10 1.367983e+10 -2.978047e+07
2.908162e+10 -2.740977e+10 -1.791539e+08
-3.181026e+10 -2.559486e+10 -5.371529e+08
3.747023e+10 -7.157664e+09 2.824357e+08
2.856137e+10 -2.777574e+10 1.952771e+08
-3.270110e+10 -2.649614e+10 -7.522046e+08
3.216934e+10 1.416914e+10 2.216768e+07
-3.243835e+10 -2.256453e+10 -2.276321e+08
-4.173705e+10 3.177319e+08 -5.062737e+08