# vtk DataFile Version 2.0
Electric current density generated by TTH
ASCII
DATASET UNSTRUCTURED_GRID
POINTS 1745 double
1.991608e-05 -4.878033e-21 -4.594579e-22
1.794377e-05 8.641263e-06 -4.594579e-22
4.431745e-06 -1.941674e-05 -4.594579e-22
5.417987e-07 1.735593e-05 1.749914e-06
-6.392445e-06 1.514693e-05 -9.798807e-07
-7.889580e-06 1.644822e-05 1.864937e-06
1.797515e-05 -5.300461e-06 -1.740320e-06
-1.593254e-05 6.287541e-06 1.639325e-06
1.778032e-05 -6.325879e-06 1.681323e-06
-3.976035e-06 1.929963e-05 -8.646220e-07
-1.250607e-05 1.029660e-05 3.612755e-07
1.573359e-05 1.182392e-05 -9.088114e-07
-6.392898e-06 -1.486055e-05 -2.202946e-07
5.394081e-06 -1.917170e-05 -4.594579e-22
-4.414899e-06 1.808594e-05 1.785002e-06
1.577682e-05 -8.310249e-06 1.864252e-06
-1.842115e-05 -6.993158e-06 8.666478e-07
-1.046218e-05 -1.244778e-05 -5.929865e-07
-9.726777e-06 1.315652e-05 8.375349e-07
-1.390789e-05 -8.352601e-06 -4.666734e-07
1.106891e-05 -1.484602e-05 -1.813948e-06
1.343274e-05 -1.447705e-05 7.738767e-07
-1.848007e-05 -8.475042e-07 -1.818784e-06
-5.917121e-07 1.637004e-05 -8.746928e-07
6.343006e-06 -1.887900e-05 -4.594579e-22
-7.987392e-06 -1.546006e-05 -1.763794e-06
1.658681e-05 -1.071289e-05 -7.813970e-07
1.604888e-05 -5.810745e-06 -1.604550e-06
1.612050e-05 2.050963e-06 5.618790e-07
-4.755978e-07 1.729405e-05 -1.723919e-06
-1.073451e-05 1.209503e-05 1.646893e-07
-9.620042e-06 -1.719560e-05 8.671041e-07
1.590962e-05 -7.642791e-06 -1.834883e-06
1.845594e-05 -4.195100e-06 -1.653181e-06
-1.944657e-05 -3.428955e-06 -7.792569e-07
7.276161e-06 -1.853936e-05 -4.594579e-22
-1.395340e-05 1.268259e-05 -1.689240e-06
4.661741e-06 1.628070e-05 1.515708e-06
-1.343118e-05 1.447537e-05 7.789203e-07
5.498304e-07 1.880689e-05 1.708428e-06
1.420919e-05 8.093710e-06 8.192153e-07
1.757612e-05 8.564485e-07 -1.822766e-06
1.048691e-05 1.411793e-05 1.820231e-06
-7.510456e-07 -1.667126e-05 -1.300361e-06
2.364573e-06 1.866926e-05 1.706842e-06
1.465317e-05 7.418753e-06 9.525487e-07
8.191227e-06 -1.815362e-05 -4.594579e-22
1.322386e-05 -1.061291e-05 -1.530790e-06
8.104214e-06 -1.495402e-05 -1.566919e-06
-3.521176e-06 1.581441e-05 -3.724632e-07
1.511441e-05 -5.929560e-06 5.133094e-07
-1.589206e-05 -6.301082e-06 1.620722e-06
2.243998e-06 -1.730454e-05 -1.780425e-06
-1.001891e-05 -1.351690e-05 -1.429175e-06
1.300656e-06 -1.838792e-05 -1.834108e-06
1.402935e-05 -1.235889e-05 -1.757268e-06
-1.851415e-05 8.597418e-07 -1.809691e-06
9.085928e-06 -1.772276e-05 -4.594579e-22
4.040376e-06 1.619606e-05 -1.304765e-06
1.042393e-05 1.311322e-05 -1.363207e-06
1.496540e-05 1.131868e-05 -1.730749e-06
1.873306e-05 2.829107e-06 1.642980e-06
1.343470e-05 1.447917e-05 -7.674759e-07
1.487785e-06 1.964090e-05 -8.794204e-07
-7.473760e-07 -1.969397e-05 8.584281e-07
-9.461548e-06 1.314812e-05 -3.568722e-07
8.199854e-06 1.707926e-05 -1.642872e-06
-1.206292e-06 1.856205e-05 1.790027e-06
9.958040e-06 -1.724783e-05 -4.594579e-22
-1.970478e-05 -1.466806e-06 -7.507428e-07
1.958615e-05 -2.132121e-06 8.705349e-07
-1.239936e-05 -1.319178e-05 1.874782e-06
-1.314992e-05 1.118685e-05 -1.708023e-06
-1.589121e-05 4.082376e-06 -9.231708e-07
-1.600124e-05 3.352597e-06 8.110011e-07
1.882157e-05 2.166472e-06 -1.642780e-06
-1.966698e-05 -1.605715e-06 8.095125e-07
1.204190e-05 -1.192177e-05 1.523035e-06
1.054243e-05 1.662599e-05 8.988633e-07
1.080540e-05 -1.673002e-05 -4.594579e-22
8.136357e-06 1.396998e-05 9.340895e-08
-8.744080e-07 -1.614540e-05 -1.333242e-07
-1.568501e-05 8.583432e-06 -1.869027e-06
-1.628059e-05 4.669828e-06 1.517252e-06
-6.096993e-06 1.759960e-05 1.782142e-06
1.702472e-05 6.805660e-06 1.852632e-06
1.298931e-05 -1.334348e-05 -1.783450e-06
5.380726e-06 -1.764451e-05 1.831304e-06
-1.769405e-05 -5.594408e-06 -1.803173e-06
-7.784983e-06 1.418069e-05 -2.183954e-07
1.162589e-05 -1.617062e-05 -4.594579e-22
5.488180e-07 1.627372e-05 -6.565543e-07
5.168044e-06 -1.902133e-05 -8.530509e-07
-9.284296e-06 -1.600988e-05 -1.816834e-06
1.855226e-05 3.901101e-06 -1.636035e-06
6.667545e-06 1.858133e-05 7.905237e-07
1.890853e-05 5.590179e-06 8.398582e-07
1.469105e-05 6.746224e-06 -7.860669e-08
3.941494e-06 -1.603679e-05 1.090783e-06
1.296272e-05 1.483243e-05 8.768047e-07
1.346018e-05 -1.068130e-05 1.668737e-06
1.241747e-05 -1.557102e-05 -4.594579e-22
1.216096e-05 1.082418e-05 6.496630e-07
-3.861595e-06 -1.571432e-05 -2.557467e-07
-1.827326e-05 3.359501e-06 1.796683e-06
-1.296678e-05 -1.130367e-05 -1.678219e-06
5.203294e-06 1.548295e-05 7.793888e-07
3.155167e-06 1.692160e-05 -1.683761e-06
9.066640e-06 -1.382830e-05 -1.120306e-06
-1.191010e-05 1.177985e-05 -1.363220e-06
-1.205491e-05 -1.084636e-05 4.380017e-07
1.559358e-05 8.224358e-06 1.830372e-06
1.749073e-05 9.524945e-06 -4.594579e-22
1.317819e-05 -1.493270e-05 -4.594579e-22
-1.535961e-05 -1.086763e-05 1.708168e-06
1.338123e-05 9.308443e-06 -7.015531e-07
-3.928683e-06 1.935106e-05 7.808521e-07
-4.145046e-06 -1.743079e-05 -1.871820e-06
1.189448e-05 -1.158746e-05 -1.208725e-06
-5.788554e-06 -1.888773e-05 -7.608724e-07
9.986223e-06 1.614619e-05 -1.620675e-06
-1.417893e-05 9.003758e-06 -1.403994e-06
6.502099e-06 1.580950e-05 -1.619980e-06
1.731615e-05 -2.159770e-06 -1.780719e-06
1.390614e-05 -1.425726e-05 -4.594579e-22
1.244038e-06 1.968902e-05 8.181017e-07
-8.887494e-06 1.761703e-05 8.106376e-07
-1.683449e-05 1.294778e-06 -1.477367e-06
1.416917e-05 -9.226635e-06 -1.496028e-06
1.084651e-05 -1.443330e-05 1.875825e-06
1.667020e-05 4.531277e-06 -1.712747e-06
-1.685896e-05 1.576062e-06 1.513885e-06
1.716878e-05 7.759968e-06 1.696350e-06
-1.085929e-06 1.971631e-05 -7.800749e-07
-1.376842e-05 -9.002299e-06 9.954828e-07
1.459952e-05 -1.354637e-05 -4.594579e-22
1.846096e-05 -2.562470e-06 1.778095e-06
-1.605628e-05 -5.437454e-06 -1.527981e-06
1.283803e-05 1.206050e-05 -1.826938e-06
-4.035553e-06 -1.932503e-05 -7.893994e-07
-1.105611e-05 1.487667e-05 -1.809396e-06
-1.144013e-05 1.605849e-05 -8.414186e-07
3.462532e-06 1.863266e-05 1.639567e-06
-9.454257e-06 1.736093e-05 -7.298476e-07
-1.193969e-05 -1.574017e-05 -7.577159e-07
-1.572912e-05 -3.937617e-06 4.309945e-07
1.525660e-05 -1.280181e-05 -4.594579e-22
-1.580891e-05 -7.117581e-06 -1.739207e-06
1.946709e-05 -3.380899e-06 -7.525912e-07
-1.849286e-05 -3.836284e-06 -1.674086e-06
1.645402e-05 -3.151427e-06 -1.364659e-06
1.723607e-05 -1.625409e-06 1.728996e-06
-1.684911e-05 -3.739583e-07 -1.452613e-06
1.830283e-05 7.219843e-06 9.193355e-07
-7.199857e-06 -1.518088e-05 -1.408910e-06
1.108814e-05 -1.319556e-05 1.694612e-06
-1.596361e-05 3.136086e-06 -6.171181e-07
1.587576e-05 -1.202542e-05 -4.594579e-22
-1.311796e-05 9.494636e-06 3.294810e-07
1.684740e-05 4.059443e-06 1.736067e-06
4.527823e-06 1.745895e-05 1.875876e-06
-1.807543e-05 5.417849e-06 -1.682403e-06
1.473323e-05 -8.553176e-06 -1.584450e-06
1.572305e-05 4.535078e-06 8.422250e-07
1.452434e-05 -1.333324e-05 8.424177e-07
5.952344e-06 -1.882282e-05 7.901358e-07
1.970062e-05 8.653759e-07 -8.357462e-07
1.194624e-05 -1.287805e-05 -1.814897e-06
1.645544e-05 -1.121913e-05 -4.594579e-22
-9.042043e-07 1.873869e-05 -1.732081e-06
6.021841e-06 -1.620135e-05 1.716832e-06
-1.595196e-05 -1.168308e-05 -7.192930e-07
-1.239369e-05 1.436240e-05 1.628913e-06
6.481368e-06 -1.762625e-05 1.723789e-06
-1.878432e-05 -8.591816e-07 1.713359e-06
-1.904537e-05 -5.175979e-06 -8.016040e-07
-1.452990e-05 -8.000075e-06 -1.185875e-06
-1.364725e-05 -1.026759e-05 1.610531e-06
-7.765485e-06 -1.815888e-05 -7.725322e-07
1.699421e-05 -1.038495e-05 -4.594579e-22
-9.694282e-06 -1.540348e-05 -1.869046e-06
8.544193e-06 -1.511881e-05 1.750576e-06
1.620980e-05 -7.827877e-07 4.871868e-07
1.475193e-05 -6.754511e-06 4.723478e-07
-8.849950e-06 -1.659522e-05 1.711766e-06
1.900495e-05 8.565510e-07 1.597058e-06
1.874595e-05 -6.298303e-06 7.119668e-07
4.839209e-06 -1.835356e-05 1.623015e-06
1.558206e-05 -5.792254e-06 1.229933e-06
1.516747e-05 6.858387e-06 -1.255054e-06
1.749073e-05 -9.524945e-06 -4.594579e-22
-1.354603e-05 1.320010e-05 1.659962e-06
-1.213870e-05 1.553425e-05 -8.459907e-07
1.216660e-05 -1.295292e-05 1.856446e-06
9.856775e-07 -1.974992e-05 -7.149332e-07
-4.887547e-06 -1.912975e-05 7.843040e-07
1.506927e-05 8.846768e-06 1.788459e-06
-7.695319e-06 1.488718e-05 1.369699e-06
6.072257e-06 -1.500829e-05 -3.102140e-07
-1.910528e-05 -5.098280e-06 7.165641e-07
-1.145906e-05 -1.175910e-05 -9.438921e-07
1.794377e-05 -8.641263e-06 -4.594579e-22
-1.546110e-05 1.232981e-05 -7.125351e-07
-5.950985e-06 -1.883045e-05 7.751964e-07
-4.860282e-06 1.549458e-05 5.239235e-07
-1.491648e-05 -6.506018e-06 6.308706e-07
-1.576717e-05 5.455696e-06 1.296404e-06
1.317680e-05 -9.555312e-06 6.396179e-07
4.870252e-06 -1.560639e-05 8.109418e-07
4.311317e-06 -1.673230e-05 1.714414e-06
-3.024804e-06 1.860103e-05 1.694293e-06
6.339240e-06 -1.498408e-05 6.203620e-07
1.835219e-05 -7.736099e-06 -4.594579e-22
7.621927e-06 1.567548e-05 1.773954e-06
-1.137112e-05 -1.155739e-05 4.264847e-07
-1.111802e-05 -1.381139e-05 1.850110e-06
-1.267242e-05 1.173287e-05 -1.710440e-06
3.239625e-07 -1.630139e-05 7.117918e-07
1.857239e-05 -3.331474e-06 1.682947e-06
-1.487540e-05 1.134226e-05 -1.753648e-06
9.720141e-06 -1.580145e-05 1.804787e-06
-1.738787e-05 -7.047157e-06 1.731591e-06
-1.944752e-05 -3.574636e-06 7.177976e-07
1.699421e-05 1.038495e-05 -4.594579e-22
1.871499e-05 -6.811701e-06 -4.594579e-22
-1.673677e-05 -1.381934e-06 1.401861e-06
-1.136152e-05 1.237971e-05 -1.410070e-06
1.709814e-05 7.806610e-06 -1.716886e-06
1.270051e-05 1.011029e-05 -5.041201e-07
-1.179711e-05 -1.223424e-05 1.558083e-06
1.779276e-05 -3.929302e-06 1.867102e-06
-1.157110e-05 1.318137e-05 -1.807860e-06
-1.437523e-05 7.391778e-06 -5.299288e-09
-1.648283e-05 -6.590849e-06 -1.853562e-06
-1.751069e-05 1.017057e-07 1.799683e-06
1.903126e-05 -5.870368e-06 -4.594579e-22
3.085261e-06 -1.953436e-05 -7.100576e-07
1.643511e-06 1.821541e-05 -1.859253e-06
8.803154e-06 1.443035e-05 1.492307e-06
-1.807791e-05 -2.127114e-06 1.868835e-06
6.730954e-06 1.753204e-05 1.723954e-06
-1.264707e-05 -1.147478e-05 1.609626e-06
-1.741783e-05 -9.229587e-06 -8.507238e-07
[...]
POINT_DATA 1745
VECTORS 10.000GHz_fone_imag double
-7.702766e-05 1.117979e-04 2.149268e-02
-3.296993e-04 -2.614421e-04 2.068981e-02
-5.483136e-05 -3.218028e-04 2.162537e-02
9.568662e-04 -3.049287e-02 -1.439204e-02
-6.732238e-03 1.749283e-02 -3.060555e-02
1.277661e-02 -2.621866e-02 1.452560e-03
2.349362e-02 -6.820490e-03 8.244566e-03
2.631625e-02 -1.005328e-02 -1.785252e-02
-2.026689e-02 6.524623e-03 9.376912e-03
-1.723804e-03 9.247576e-03 1.873200e-02
6.424581e-03 -5.209223e-03 -4.212915e-02
7.992620e-03 6.123595e-03 1.799183e-02
7.528800e-05 -1.599048e-03 -3.952329e-02
2.723577e-04 5.409348e-04 2.187638e-02
6.003276e-03 -2.544509e-02 7.063721e-03
-2.540543e-02 1.270704e-02 -4.753642e-03
9.842398e-03 3.986852e-03 1.941700e-02
-5.902218e-03 -1.081311e-02 -3.823207e-02
8.747013e-03 -1.385993e-02 -3.752279e-02
-9.569711e-03 -6.014662e-03 -4.054091e-02
1.505032e-02 -2.220220e-02 4.871499e-03
-6.621685e-03 7.506448e-03 1.952638e-02
-2.650990e-02 -1.147604e-03 5.382814e-03
-2.390386e-03 1.721006e-02 -3.494306e-02
-1.065248e-03 -1.984988e-04 2.077773e-02
-1.371639e-02 -2.768502e-02 -1.183623e-02
8.257700e-03 -5.771059e-03 1.935814e-02
2.711470e-02 -1.137075e-02 -1.951112e-02
-1.258852e-02 -1.223977e-03 -4.099375e-02
-9.402325e-04 3.115800e-02 -1.546288e-02
2.126986e-03 -2.361219e-03 -4.253351e-02
4.837983e-03 7.276803e-03 1.843496e-02
2.476159e-02 -1.217840e-02 -8.084585e-03
1.933863e-02 -4.186579e-03 1.052955e-02
-8.262745e-03 -5.510184e-04 1.877014e-02
1.200903e-03 -1.098691e-03 2.022071e-02
-1.582714e-02 1.401485e-02 1.051431e-02
-7.964682e-03 -2.630871e-02 -1.946172e-02
5.432890e-03 -7.108400e-03 1.804894e-02
-1.293021e-03 -2.386949e-02 1.090827e-02
-1.114226e-02 -8.062619e-03 -3.635782e-02
3.113455e-02 1.158235e-03 -8.687732e-03
-1.690310e-02 -2.297056e-02 -6.670402e-03
-2.732722e-03 -2.589971e-02 -2.655504e-02
-1.673967e-03 -2.351037e-02 9.746453e-03
-1.823070e-02 -6.809533e-03 -3.499865e-02
-3.707023e-04 5.292970e-04 1.851870e-02
2.151094e-02 -1.559247e-02 -2.243217e-02
1.352107e-02 -2.303179e-02 -2.135051e-02
-2.216040e-03 8.299891e-03 -3.841392e-02
-9.383863e-03 3.304066e-03 -3.681264e-02
2.486163e-02 1.048922e-02 -2.013419e-02
3.264699e-03 -3.023074e-02 -1.096629e-02
-1.425225e-02 -2.149381e-02 -2.378611e-02
1.676313e-03 -2.802352e-02 4.999435e-03
1.882656e-02 -1.612625e-02 8.502984e-03
-2.609042e-02 9.801911e-04 6.247025e-03
2.722323e-04 -9.712686e-04 1.972114e-02
4.830469e-03 2.352880e-02 -2.756770e-02
1.811715e-02 2.087274e-02 -2.746375e-02
1.966199e-02 1.540007e-02 9.678358e-03
-2.194021e-02 -3.346434e-03 1.205858e-02
7.209272e-03 7.055572e-03 1.712212e-02
1.646244e-03 1.085274e-02 1.803825e-02
-4.041961e-04 9.122492e-03 1.895768e-02
-2.059860e-03 3.677393e-03 -4.024251e-02
9.666590e-03 1.891463e-02 1.074675e-02
2.432872e-03 -2.422805e-02 7.087194e-03
4.271921e-04 3.994305e-04 2.099702e-02
-8.723959e-03 -5.405562e-04 1.922810e-02
-1.041551e-02 1.150766e-03 1.926557e-02
2.055934e-02 2.197393e-02 -7.202438e-04
-2.284287e-02 1.964772e-02 -1.615820e-02
-1.876313e-02 4.145247e-03 -3.709258e-02
1.889607e-02 -1.893823e-03 -3.431518e-02
2.101071e-02 2.874029e-03 9.275879e-03
9.706851e-03 -1.710739e-04 1.839591e-02
-2.183910e-02 2.020051e-02 -2.310476e-02
-5.463392e-03 -8.350712e-03 1.856399e-02
-3.879910e-04 3.664719e-04 2.040131e-02
-1.723389e-03 -1.365894e-03 -3.798253e-02
-5.232669e-04 -1.827220e-03 -4.229481e-02
-2.507930e-02 1.449303e-02 -2.957276e-03
2.862776e-02 -6.843850e-03 -2.318343e-02
7.788095e-03 -2.165433e-02 9.280390e-03
-2.660267e-02 -1.013515e-02 2.458737e-03
1.633710e-02 -1.770726e-02 5.567979e-03
-7.260667e-03 2.617773e-02 4.267275e-03
-2.469000e-02 -7.786023e-03 4.866521e-03
-3.755982e-04 3.020274e-03 -4.289171e-02
-4.958707e-04 1.145620e-03 1.895622e-02
1.652813e-03 1.290424e-02 -3.594763e-02
3.252297e-03 -1.120866e-02 1.752887e-02
-1.325569e-02 -2.399158e-02 4.867272e-03
2.194257e-02 4.475551e-03 1.124430e-02
-3.364167e-03 -7.171155e-03 1.775372e-02
-9.276356e-03 -2.495106e-03 1.823332e-02
3.837181e-03 1.722589e-03 -4.203533e-02
-5.544402e-03 1.978741e-02 -3.055027e-02
-6.798353e-03 -8.767948e-03 1.901799e-02
-2.457757e-02 1.910526e-02 -1.818505e-02
-6.985467e-04 -7.954264e-05 1.909783e-02
-9.590464e-03 -1.003261e-02 -4.036236e-02
-1.043198e-03 -4.498671e-03 -4.364306e-02
2.590398e-02 -4.545910e-03 7.337525e-03
-2.230148e-02 -1.971935e-02 -1.787634e-02
-4.559572e-03 -1.700933e-02 -3.786648e-02
5.733436e-03 2.900815e-02 -1.566962e-02
9.408431e-03 -1.860331e-02 -3.341028e-02
-1.881632e-02 1.829043e-02 -2.815663e-02
8.440369e-03 4.823013e-03 -4.077001e-02
-2.638597e-02 -1.534164e-02 -7.155646e-03
1.264212e-03 -6.718885e-04 2.015552e-02
7.611282e-06 -2.320075e-05 2.119008e-02
1.729636e-02 1.369525e-02 9.505235e-03
1.316980e-02 7.441163e-03 -3.524150e-02
2.429249e-03 -9.066060e-03 1.884594e-02
-5.149573e-03 -2.635455e-02 -4.872329e-03
1.806827e-02 -1.710771e-02 -3.019523e-02
-2.917854e-03 -7.661028e-03 1.862296e-02
1.084732e-02 1.821394e-02 9.647065e-03
-2.366767e-02 1.566993e-02 -2.560594e-02
1.312333e-02 2.692883e-02 -1.936705e-02
3.145023e-02 -4.437098e-03 -1.094435e-02
3.905954e-04 4.379193e-04 2.078602e-02
-3.024408e-04 -1.018895e-02 1.873401e-02
3.980741e-03 -8.500316e-03 1.891460e-02
-2.684743e-02 1.794666e-03 -2.485148e-02
2.482989e-02 -1.525156e-02 -2.353082e-02
-1.841296e-02 2.425522e-02 -1.481174e-03
3.036024e-02 7.684069e-03 -1.420790e-02
2.760127e-02 -1.950787e-03 -1.881290e-02
-2.196982e-02 -9.563335e-03 1.069538e-02
-8.067601e-04 9.065907e-03 1.986557e-02
1.563129e-02 8.838902e-03 -3.155915e-02
-5.028638e-04 -3.843005e-04 2.095568e-02
-2.504002e-02 3.411974e-03 8.183995e-03
-2.801907e-02 -9.031156e-03 -2.165521e-02
2.248787e-02 2.011912e-02 -1.024163e-02
-3.201224e-03 -8.712878e-03 1.924622e-02
-1.575538e-02 2.009340e-02 4.969712e-03
-5.488647e-03 7.799524e-03 1.947332e-02
-4.833273e-03 -2.029230e-02 1.043983e-02
-3.592803e-03 6.680673e-03 1.758171e-02
-6.450249e-03 -7.189694e-03 1.979477e-02
9.574518e-03 3.715249e-03 -3.678115e-02
2.995486e-04 -2.045370e-04 2.083807e-02
-2.810355e-02 -1.271774e-02 -1.402868e-02
9.537363e-03 -6.135767e-04 1.951895e-02
-2.059255e-02 -4.398875e-03 1.023134e-02
2.536974e-02 -4.538872e-03 -2.764432e-02
-2.912306e-02 2.497685e-03 -1.678961e-02
-2.604840e-02 -1.967609e-03 -2.275193e-02
-9.425197e-03 -3.140081e-03 1.839530e-02
-1.208602e-02 -2.501058e-02 -2.704895e-02
-1.962000e-02 2.271156e-02 -1.697236e-02
-1.524842e-02 1.022930e-03 -3.939565e-02
-3.942588e-05 9.643615e-04 2.031216e-02
6.096348e-03 -4.526289e-03 -4.198279e-02
-2.847842e-02 -7.742723e-03 -1.465104e-02
-6.083946e-03 -2.931729e-02 -1.768805e-03
-2.309429e-02 7.108864e-03 1.081885e-02
2.680432e-02 -1.498219e-02 -1.971929e-02
-1.478464e-02 -4.343321e-03 -3.436987e-02
-8.033316e-03 6.017806e-03 1.910294e-02
-3.062696e-03 8.924161e-03 1.755398e-02
1.127488e-02 5.988688e-04 1.938967e-02
2.195643e-02 -2.108823e-02 -7.522543e-03
-5.187143e-04 9.386133e-05 2.083563e-02
2.884607e-04 2.363890e-02 7.371659e-03
-1.069620e-02 2.927230e-02 -1.531001e-02
-6.546668e-03 -4.874932e-03 1.774153e-02
1.456273e-02 -1.790857e-02 1.088015e-02
-7.616645e-03 2.094436e-02 8.136970e-03
2.445059e-02 9.122121e-04 9.564761e-03
-8.842985e-03 -1.341734e-03 1.853455e-02
-2.014514e-02 -9.953962e-03 -2.888069e-02
2.107391e-02 1.621855e-02 -2.058445e-02
-3.482665e-03 -8.702576e-03 1.800061e-02
-2.464136e-04 2.918349e-04 2.122177e-02
-1.460391e-02 -2.209151e-02 -2.210901e-03
-1.526835e-02 2.703968e-02 -1.420643e-02
-1.048586e-02 3.262181e-04 -4.059349e-02
-6.629007e-03 2.806312e-03 -3.714964e-02
9.845249e-03 2.153699e-02 8.878914e-03
-1.842146e-02 -5.363968e-04 1.288100e-02
-8.428001e-03 3.101534e-03 2.004454e-02
-5.135231e-03 2.050303e-02 1.221829e-02
-2.228590e-02 6.764259e-03 -3.012336e-02
1.879955e-02 9.386009e-03 -2.912597e-02
-3.219007e-04 -9.119625e-04 2.062741e-02
1.709862e-02 -1.491022e-02 1.093783e-02
-6.140655e-03 7.496686e-03 1.951466e-02
-2.146062e-02 2.246135e-02 -5.826601e-03
3.085705e-04 -8.948736e-03 1.988989e-02
1.983072e-03 8.670818e-03 1.965660e-02
-2.763031e-02 -1.616314e-02 -1.047049e-02
1.129827e-02 -2.437662e-02 -2.307969e-02
3.004296e-03 -4.890304e-03 -4.181744e-02
8.619227e-03 1.735823e-03 2.008380e-02
-1.330830e-02 -1.134566e-02 -3.302144e-02
2.122939e-04 -3.593185e-04 1.923823e-02
-7.599253e-03 4.367438e-03 1.886144e-02
2.862436e-03 8.375809e-03 1.968242e-02
4.464986e-03 -1.086906e-02 -4.038012e-02
1.205056e-02 6.113400e-03 -3.835780e-02
2.347890e-02 -9.144726e-03 -2.986943e-02
-9.400816e-03 6.860305e-03 -3.618493e-02
-5.108295e-03 1.717604e-02 -3.808230e-02
-7.528818e-03 2.982363e-02 -1.594854e-02
3.533414e-03 -2.268429e-02 1.047711e-02
-5.694386e-03 9.579992e-03 -3.708082e-02
7.759690e-04 4.663949e-04 1.947407e-02
-1.274974e-02 -2.519633e-02 -1.042228e-02
6.347424e-03 6.593397e-03 -4.152432e-02
1.731296e-02 2.154019e-02 -8.121660e-03
-2.248678e-02 2.148776e-02 -1.558678e-02
-8.875613e-04 1.638287e-02 -3.793436e-02
-2.293739e-02 3.880307e-03 1.053306e-02
-1.989313e-02 1.622166e-02 7.688901e-03
-1.362596e-02 2.257177e-02 7.268414e-03
2.122517e-02 7.637536e-03 8.566672e-03
8.404422e-03 1.921779e-03 1.914171e-02
1.141298e-03 7.442971e-04 1.972228e-02
6.576550e-04 -9.138177e-04 2.064821e-02
2.653695e-02 -2.382943e-04 -2.193884e-02
-1.855014e-02 1.988149e-02 -2.690470e-02
2.045773e-02 8.416163e-03 8.926793e-03
7.223828e-03 7.307982e-03 -3.572801e-02
2.074303e-02 1.856145e-02 -1.952340e-02
-2.933889e-02 6.209938e-03 1.289530e-03
-1.981859e-02 2.394100e-02 -9.807690e-03
-1.661243e-03 3.260555e-04 -4.322663e-02
-2.597855e-02 -1.097621e-02 -7.514329e-03
2.804609e-02 -7.446530e-04 -1.016582e-02
2.632393e-04 -3.360634e-05 2.135332e-02
1.578901e-03 -7.610308e-03 1.763727e-02
1.148851e-03 2.900350e-02 2.475435e-03
-1.357149e-02 -2.489594e-02 -2.354494e-02
2.924982e-02 3.597492e-03 1.239995e-03
-8.429513e-03 -2.408593e-02 8.333653e-03
1.868089e-02 1.993143e-02 -1.829351e-02
-7.507592e-03 -4.576561e-03 1.851968e-02
-7.611424e-03 -5.046641e-03 2.013977e-02
-2.289994e-02 -1.085492e-02 4.274611e-03
8.850838e-03 -2.637023e-02 -6.537666e-03
4.396629e-04 -2.104106e-05 2.134152e-02
-2.160791e-02 2.064472e-02 7.498522e-04
7.904173e-03 2.426056e-02 -2.100620e-02
7.485812e-03 5.043953e-03 1.904906e-02
3.824915e-03 -7.582090e-03 1.929551e-02
-6.714217e-03 6.580854e-03 1.972546e-02
2.216970e-02 -2.591603e-03 1.133811e-02
1.220475e-02 1.474064e-02 1.470837e-02
8.235653e-03 -4.769015e-03 -4.184250e-02
6.854877e-03 -1.190710e-02 -4.032716e-02
2.497432e-02 1.416224e-02 -1.695850e-02
-2.195244e-04 7.898751e-04 2.115834e-02
9.127248e-03 1.599612e-02 -3.572552e-02
3.360647e-03 -8.995565e-03 1.824426e-02
-2.054341e-02 1.699377e-02 -6.775562e-06
1.150831e-02 2.171775e-02 -2.965143e-02
-7.369633e-03 1.505381e-03 -4.089834e-02
9.449425e-03 -1.020264e-02 -4.019695e-02
-1.508746e-02 -2.082966e-02 -2.864316e-02
-1.481037e-02 -2.499179e-02 -2.256926e-02
1.620177e-02 1.525058e-02 1.184767e-02
-1.023380e-02 1.039308e-02 -3.267838e-02
4.408535e-05 -2.856708e-05 1.956675e-02
-3.995073e-03 2.261002e-02 8.489451e-03
-8.474008e-03 3.701979e-03 1.982236e-02
3.235710e-03 1.928297e-02 -3.168798e-02
1.639569e-02 2.166150e-02 -2.335551e-02
3.245035e-03 -5.885709e-04 -4.170354e-02
-2.351541e-03 -1.726942e-02 -3.806458e-02
9.254280e-03 -1.173435e-03 1.805138e-02
2.091615e-02 -9.791327e-03 -3.212666e-02
1.728706e-02 2.454750e-02 -1.754011e-02
6.055570e-03 -3.233745e-03 1.842074e-02
2.759353e-04 -7.700293e-04 1.956330e-02
4.094293e-04 -6.687740e-03 1.829566e-02
-1.033728e-02 -2.015279e-02 -3.463425e-02
1.266468e-02 -5.462793e-03 -4.124399e-02
-9.330126e-03 -2.809908e-02 -1.838871e-02
2.437725e-02 1.733847e-02 -1.380605e-02
2.119588e-02 1.709381e-02 6.307789e-03
-2.590530e-02 -1.583251e-02 -2.802897e-03
2.990149e-03 8.374083e-03 1.924693e-02
-4.645910e-03 -3.103749e-02 -1.331703e-02
-2.635488e-02 -1.305842e-03 -2.393777e-02
6.232595e-04 3.349339e-04 2.080866e-02
3.546852e-03 9.538477e-03 1.928134e-02
1.394996e-02 -1.641360e-02 1.313308e-02
1.577886e-02 2.192897e-02 -3.476088e-04
8.033154e-03 -2.168682e-03 1.978050e-02
-2.039148e-02 -1.855387e-02 6.144859e-03
-9.087744e-04 8.828334e-03 1.951027e-02
6.280776e-03 -4.032722e-03 1.814626e-02
-2.029264e-02 7.618111e-03 1.227024e-02
-2.800889e-02 -3.957070e-03 -1.507252e-02
-1.095831e-02 1.844246e-02 1.181723e-02
-1.232391e-02 2.650177e-04 1.711172e-02
-9.241128e-03 2.911919e-02 -9.554213e-03
-2.495415e-02 -7.840141e-03 3.605119e-03
1.510313e-02 1.361355e-02 1.333163e-02
2.527327e-02 -1.284109e-03 -2.777223e-02
2.515664e-02 5.126199e-03 -2.785887e-02
-2.234102e-02 1.526418e-02 -5.605628e-03
-1.836547e-02 1.282369e-02 1.044931e-02
-1.485989e-02 1.677811e-02 9.178045e-03
5.566478e-03 -1.961108e-03 -3.922730e-02
-9.574210e-03 1.086150e-03 1.929955e-02
-2.022507e-02 -3.987076e-04 1.156667e-02
-8.467032e-03 2.923216e-03 1.713581e-02
-7.532873e-03 -2.392862e-03 1.903219e-02
-2.081467e-04 8.706309e-03 1.939611e-02
-1.902316e-02 -1.086961e-02 1.215183e-02
9.336833e-03 5.722100e-03 -3.831367e-02
-8.286831e-03 -2.617428e-02 5.365948e-03
1.803048e-02 1.041337e-02 1.262536e-02
8.395811e-03 -4.156208e-03 1.919094e-02
-1.179371e-02 -2.114769e-02 9.924139e-03
3.028650e-02 -2.745801e-03 -1.516611e-03
-3.076244e-02 -1.781221e-05 -1.140768e-03
-1.804907e-02 -1.263992e-02 1.199329e-02
-1.318612e-02 2.848389e-02 -5.922985e-03
-4.793530e-03 -6.687745e-03 1.997552e-02
-1.854866e-03 1.340703e-03 -4.098140e-02
-1.344611e-02 2.318799e-02 -2.683101e-02
1.568870e-03 -9.969231e-03 -4.014597e-02
9.089522e-03 -1.719493e-03 1.983808e-02
-6.834222e-03 2.999434e-03 2.004419e-02
-3.058835e-02 -4.866955e-03 -1.361725e-02
5.003867e-03 -6.801467e-03 1.989337e-02
1.614227e-04 1.177952e-03 1.938296e-02
-3.024785e-02 -4.420998e-05 -2.079145e-02
7.584406e-04 -2.145367e-02 1.104014e-02
8.064157e-03 4.118604e-03 1.929212e-02
2.391995e-02 -7.418304e-03 8.156079e-03
-6.710391e-03 8.725795e-03 -3.652899e-02
-2.570462e-03 -9.163584e-03 1.946884e-02
-1.984743e-02 1.188538e-02 7.796360e-03
-2.246500e-02 -1.857953e-02 -1.796087e-02
9.864415e-04 1.000365e-02 1.806825e-02
-7.694209e-04 1.618739e-02 -3.866961e-02
-7.003933e-03 -2.843421e-02 -2.059383e-02
-1.670935e-02 -1.502544e-04 -3.234954e-02
-1.237088e-02 1.855182e-02 -3.239892e-02
-1.567937e-03 -1.514951e-03 -4.231293e-02
-5.754476e-03 8.259130e-03 1.839426e-02
5.303346e-03 -2.159637e-02 1.115155e-02
4.471032e-03 -2.519158e-02 7.987017e-03
8.378303e-03 -5.310108e-03 1.925116e-02
-2.464053e-03 -2.028523e-02 1.354831e-02
8.201174e-03 -1.631627e-02 -3.337201e-02
-8.193970e-04 3.093946e-02 -1.360432e-02
3.057362e-03 8.885729e-03 -3.638203e-02
-1.190587e-03 4.416822e-04 -4.200716e-02
1.892553e-02 9.977308e-03 1.200103e-02
5.902177e-03 -2.076297e-02 1.128023e-02
-2.090724e-02 -5.154022e-03 1.268534e-02
4.189195e-04 8.493453e-03 1.865559e-02
-1.053016e-02 9.202789e-03 -3.458346e-02
1.748018e-02 2.490692e-02 -2.040323e-02
7.809723e-03 -2.932073e-03 1.836431e-02
-1.385760e-02 1.719373e-02 1.194893e-02
-2.899444e-02 -1.609445e-03 -2.985393e-04
-1.944284e-02 1.707289e-02 7.828859e-03
1.718203e-02 2.393257e-04 -3.472142e-02
-1.101258e-02 2.284433e-02 8.358830e-03
1.984390e-02 -2.151011e-02 -1.156794e-02
-3.443313e-05 -6.269980e-03 -4.161727e-02
-4.306605e-03 8.100955e-03 1.749464e-02
2.009403e-02 1.678531e-03 -3.540458e-02
-1.495565e-02 1.723807e-02 1.009941e-02
-3.017931e-03 -1.049679e-02 -4.062156e-02
-6.665851e-04 7.924710e-03 1.754622e-02
6.675641e-03 -2.826021e-02 2.485970e-03
-1.264193e-02 1.842793e-02 1.105628e-02
3.007862e-02 2.308759e-04 -1.972010e-02
3.007571e-02 -7.877959e-03 -9.340347e-03
2.594165e-03 -1.062453e-02 -3.692923e-02
-1.497773e-03 1.748911e-02 1.313429e-02
-6.855675e-03 -3.810398e-03 1.799771e-02
-1.934366e-02 -1.290254e-03 1.309175e-02
-3.083092e-02 -5.195745e-03 -1.211158e-02
-5.235796e-03 -1.956751e-02 1.434775e-02
2.864041e-02 6.134125e-03 -8.691037e-03
3.522534e-03 -1.966752e-02 -3.429835e-02
4.138102e-03 3.152156e-02 -8.868050e-03
3.008064e-02 1.032627e-04 -8.299243e-04
1.745564e-02 -1.677844e-02 -2.985977e-02
1.148332e-02 1.392684e-02 -3.661303e-02
-8.871820e-03 -3.714681e-03 -4.218782e-02
-9.951363e-03 2.929216e-02 -1.470207e-02
-1.489442e-02 2.640329e-02 -8.873705e-03
2.045558e-02 2.611803e-04 1.388715e-02
-1.971195e-02 -1.940949e-02 -2.074433e-02
-1.634696e-03 -2.137458e-03 -4.170528e-02
2.942418e-02 -5.777834e-03 -5.993246e-05
2.314043e-02 1.392221e-02 -2.254044e-02
1.944097e-02 -4.381153e-04 1.051136e-02
-8.800646e-03 -3.877294e-03 1.810338e-02
8.768517e-03 3.066848e-04 1.760345e-02
1.303680e-02 -2.008226e-02 9.270121e-03
-1.303476e-02 1.744700e-02 -2.642497e-02
4.632936e-03 -6.560109e-03 -4.105688e-02
6.523466e-03 2.961094e-03 1.925084e-02
4.805245e-03 1.550309e-02 -3.688477e-02
8.941995e-03 2.624186e-02 -2.408476e-02
9.221529e-03 -1.452640e-03 -3.752531e-02
1.010602e-02 -1.896200e-02 1.273847e-02
1.211086e-02 -3.929283e-04 1.865860e-02
-4.428282e-03 -5.440104e-03 2.008563e-02
-1.695872e-02 2.554587e-02 -1.472932e-02
-4.080811e-03 -2.710151e-02 -8.897711e-03
-1.848308e-02 1.183062e-02 1.057585e-02
1.939177e-02 2.393439e-02 -1.273214e-02
5.625868e-04 -1.387988e-03 -4.036558e-02
8.601872e-03 -2.221383e-02 1.038754e-02
2.425694e-02 1.299580e-02 2.935856e-04
-7.263179e-03 3.361405e-03 1.983316e-02
5.199367e-03 -1.034224e-02 -3.534494e-02
1.020228e-03 1.624626e-03 -3.955026e-02
-7.833076e-03 1.716178e-03 1.747649e-02
-1.926434e-02 5.424369e-03 1.073255e-02
-1.862458e-02 -1.068015e-02 1.091968e-02
-2.338005e-02 -6.943368e-03 -3.108792e-02
1.031448e-04 -2.454801e-02 1.004741e-02
-6.126598e-03 -1.132611e-02 -3.959036e-02
-8.392402e-03 -1.855556e-03 -4.121130e-02
1.416161e-02 2.239122e-02 1.051196e-03
2.605119e-02 1.729089e-02 -5.954150e-03
2.748516e-02 9.534300e-03 1.624251e-03
-1.034573e-02 2.407429e-02 -2.846339e-02
-7.943303e-03 -1.872645e-02 1.013790e-02
1.048878e-03 -1.280399e-02 -3.793265e-02
-2.933456e-02 2.085245e-03 2.094967e-03
-1.146266e-02 9.998842e-03 -3.918671e-02
-4.273432e-03 -1.793479e-02 1.508436e-02
2.790872e-03 2.434749e-02 -2.455021e-02
-6.542154e-03 -2.251118e-03 1.869042e-02
-1.919069e-02 1.572621e-02 9.060933e-03
9.707403e-03 1.788639e-03 1.990530e-02
7.784463e-03 2.224598e-02 9.937302e-03
8.221606e-04 -2.243368e-04 1.999446e-02
-1.957214e-02 -2.130876e-02 -1.118774e-02
1.016888e-03 3.060522e-02 -4.256870e-04
-9.648605e-03 -1.355179e-03 1.793850e-02
2.768149e-03 4.188115e-03 -4.196851e-02
5.351672e-03 -3.667909e-03 1.781861e-02
-1.766912e-02 -7.007667e-03 -3.375881e-02
-7.742433e-03 -2.625779e-02 -7.112468e-03
-2.667925e-02 -1.046222e-02 -1.145456e-02
-1.958476e-02 -9.890113e-03 9.879608e-03
7.167145e-03 2.031501e-03 1.800085e-02
2.047787e-02 7.307418e-04 -2.948042e-02
-2.267098e-02 1.508303e-02 4.621166e-03
-9.513878e-03 -2.038624e-03 -4.175495e-02
2.343345e-02 -2.046957e-02 -4.653139e-03
-8.420294e-04 -6.962650e-03 2.015060e-02
2.745485e-02 -1.454706e-02 -5.506204e-03
3.456333e-03 2.523672e-03 -4.008124e-02
2.185449e-03 8.655239e-03 1.746022e-02
1.357874e-02 2.668257e-02 -6.982376e-04
-1.587537e-02 -1.128552e-02 1.425346e-02
-6.815030e-03 -6.473833e-03 1.954280e-02
2.663712e-03 1.882628e-02 1.365892e-02
2.619913e-02 -1.089289e-02 -5.924741e-03
7.771563e-03 4.283105e-03 1.997433e-02
-3.311905e-03 2.885328e-02 1.703881e-03
-2.917962e-02 -1.022867e-02 -1.980751e-02
-3.684032e-03 -2.753071e-03 -4.255812e-02
-1.599844e-02 -1.865995e-03 -3.717297e-02
2.460230e-03 2.149389e-02 1.076760e-02
-3.135576e-02 -1.190995e-03 -1.147189e-02
-1.591533e-02 -1.970716e-02 -3.014871e-02
-1.674377e-02 -1.780517e-03 -3.851228e-02
-4.286988e-03 2.256121e-02 1.162422e-02
-8.974690e-03 -2.948054e-02 -7.183210e-03
3.813039e-03 -5.444970e-03 1.996461e-02
2.539283e-02 1.657640e-03 -2.738934e-02
-2.151922e-03 6.917791e-03 1.904665e-02
-1.176022e-02 2.253342e-02 -2.804876e-02
-2.490867e-02 -1.760016e-02 -2.596425e-03
-9.948376e-03 2.069661e-02 -2.561556e-02
-2.487195e-02 -1.210377e-02 3.685720e-03
1.977973e-02 4.998276e-03 1.351828e-02
-1.345151e-02 1.423990e-02 1.184495e-02
-1.907150e-02 -3.023618e-03 -3.380350e-02
2.829376e-03 2.835717e-02 3.944438e-03
-1.094546e-02 -3.763685e-04 -4.109408e-02