# vtk DataFile Version 2.0
Electric current density generated by TTH
ASCII
DATASET UNSTRUCTURED_GRID
POINTS 1551 double
1.590553e-05 -3.895731e-21 -5.245673e-22
1.342948e-05 8.522608e-06 -5.245673e-22
1.587414e-05 -9.987163e-07 -5.245673e-22
8.755923e-06 -1.310257e-05 -7.787760e-07
1.364963e-05 2.858742e-06 -2.133965e-06
-4.846666e-06 -1.139902e-05 1.640177e-06
1.106760e-05 -8.503879e-06 2.132947e-06
7.618240e-07 -1.267724e-05 1.858881e-06
-1.389249e-05 5.100715e-06 1.874763e-06
4.331959e-06 -1.412432e-05 -1.888666e-06
1.053920e-05 -5.711757e-06 1.196421e-06
-1.008315e-05 -1.209701e-05 8.055582e-07
1.087873e-05 8.039302e-06 -2.128564e-06
1.569343e-05 -3.843782e-21 9.292525e-07
-1.045036e-05 1.028589e-05 -1.943713e-06
-9.539511e-07 1.515790e-05 -1.599673e-06
1.678830e-06 1.567552e-05 7.625860e-07
-1.162910e-05 -8.896212e-06 -1.953534e-06
1.127635e-05 3.166059e-06 -6.152480e-07
-5.755234e-06 -1.061258e-05 1.314134e-06
-1.447851e-05 -6.204531e-06 7.964463e-07
1.212691e-05 -5.083957e-06 -2.051703e-06
1.460790e-05 -2.579395e-06 -1.855234e-06
-6.562879e-06 1.157151e-05 2.091557e-06
1.509915e-05 -3.698226e-21 1.674455e-06
1.132826e-05 -5.705570e-06 -1.849549e-06
1.420506e-05 6.786676e-06 8.183390e-07
1.183500e-05 1.912563e-06 -1.198043e-06
-2.433849e-06 -1.557526e-05 -7.649111e-07
-9.320484e-06 1.267302e-05 -8.459033e-07
5.202783e-06 -1.384012e-05 -1.882180e-06
1.129565e-05 1.101571e-05 -7.286760e-07
1.340010e-05 8.264620e-06 8.164928e-07
8.622472e-06 7.895907e-06 5.409443e-07
1.562943e-05 -1.895570e-06 -8.160705e-07
1.424039e-05 -3.487891e-21 2.088011e-06
9.974428e-06 6.712723e-06 -1.247428e-06
-1.161560e-05 8.965437e-06 1.939081e-06
-1.234917e-06 -1.155990e-05 -1.235082e-07
-9.169236e-06 -1.043865e-05 -2.137755e-06
1.345094e-05 -8.193243e-06 8.016760e-07
1.416200e-06 1.478246e-05 -1.845756e-06
1.009138e-05 -1.207039e-05 8.419418e-07
5.334726e-07 -1.507269e-05 1.687892e-06
4.981481e-06 1.302917e-05 2.133689e-06
-9.526255e-06 -6.727330e-06 4.123595e-07
1.328724e-05 -3.254436e-21 2.088011e-06
-9.354359e-06 6.897571e-06 -3.609570e-08
-1.403043e-05 7.189859e-06 7.620318e-07
-1.120876e-05 3.690342e-06 8.560421e-07
1.155078e-05 5.971619e-06 2.002058e-06
-1.015415e-05 5.905974e-06 -7.200893e-07
2.303596e-06 -1.300669e-05 2.068626e-06
1.353055e-05 -5.573833e-06 -1.957123e-06
5.079908e-06 -1.194556e-05 1.993450e-06
1.448259e-05 4.117526e-06 1.707564e-06
7.293340e-06 -1.324425e-05 1.657922e-06
1.242849e-05 -3.044101e-21 1.674455e-06
-5.651191e-06 -1.019247e-05 -3.698579e-07
-3.029682e-06 -1.457612e-05 1.823157e-06
-1.324204e-05 4.230966e-06 2.137276e-06
8.795729e-06 9.895196e-06 -2.076493e-06
2.649490e-06 1.145817e-05 7.574002e-07
-1.059797e-05 7.654427e-06 2.027287e-06
-5.469638e-06 1.151751e-05 -1.886710e-06
1.303176e-05 4.161369e-06 -2.140070e-06
-1.278001e-05 -2.617332e-06 -2.017573e-06
8.391659e-07 1.375898e-05 2.141608e-06
1.183421e-05 -2.898545e-21 9.292525e-07
-8.391582e-06 8.062733e-06 -2.544598e-07
5.441052e-06 1.166040e-05 -1.945084e-06
-1.373235e-05 -5.067612e-06 -1.955375e-06
-5.351483e-06 -1.412157e-05 -1.672529e-06
1.411355e-05 5.347661e-06 -1.679579e-06
-1.485999e-05 5.349927e-06 -6.829929e-07
-2.128405e-06 1.166991e-05 9.856800e-07
8.854171e-06 -1.045239e-05 -2.140712e-06
1.435999e-05 4.433065e-06 -1.728305e-06
1.572034e-05 1.457247e-06 7.004814e-07
1.162211e-05 -2.846596e-21 -1.400436e-20
-1.209297e-05 -5.688143e-06 -2.104047e-06
-5.043225e-06 1.132340e-05 1.647782e-06
-6.647839e-06 -1.329570e-05 -1.836909e-06
-1.079075e-05 4.323756e-06 -1.066706e-07
1.714725e-06 -1.292454e-05 -2.014893e-06
-3.445694e-06 -1.541515e-05 6.774620e-07
1.250995e-05 8.698127e-07 -1.757712e-06
9.624613e-06 -9.273246e-06 2.104269e-06
5.966091e-06 1.370913e-05 1.782515e-06
-9.055000e-06 -1.205923e-05 1.689248e-06
1.183421e-05 -2.898545e-21 -9.292525e-07
6.705213e-06 9.875696e-06 -1.117691e-06
1.415006e-05 -5.384634e-06 1.641079e-06
-1.511855e-05 -4.489412e-06 -7.470087e-07
9.732786e-06 -1.242237e-05 -7.194251e-07
-6.433133e-06 -1.440399e-05 -7.354303e-07
-4.215234e-06 1.427810e-05 -1.823364e-06
6.442889e-07 -1.306208e-05 -2.028918e-06
1.199826e-05 1.020623e-05 7.962967e-07
-1.029795e-05 -1.102328e-05 1.685558e-06
6.944552e-08 1.525465e-05 -1.537491e-06
1.242849e-05 -3.044101e-21 -1.674455e-06
-1.076730e-05 -4.398164e-06 1.941824e-07
1.161153e-05 7.917602e-07 2.643913e-07
2.526087e-06 1.555620e-05 7.760959e-07
7.505007e-06 1.292805e-05 1.784178e-06
-8.104382e-06 -1.249555e-05 -1.819471e-06
-5.827845e-06 1.372603e-05 1.807926e-06
-6.702911e-06 1.424236e-05 -8.236044e-07
-5.583047e-06 -1.473179e-05 7.906657e-07
4.638788e-06 -1.239132e-05 -2.074409e-06
6.569621e-06 1.270860e-05 2.071883e-06
1.286784e-05 9.349035e-06 -5.245673e-22
1.328724e-05 -3.254436e-21 -2.088011e-06
-1.070464e-05 -8.608596e-06 -2.141537e-06
-1.320098e-06 -1.490022e-05 1.777483e-06
-1.018053e-05 -5.755963e-06 -5.542077e-07
-5.063982e-06 1.491804e-05 7.910086e-07
-1.277865e-05 -9.200602e-06 -8.104390e-07
1.004522e-05 5.909478e-06 3.712872e-07
1.184768e-05 4.373406e-06 1.816406e-06
-1.321722e-05 -1.055044e-07 -2.070895e-06
1.037808e-05 -7.763368e-06 1.985344e-06
1.071726e-05 -7.045228e-06 -1.925247e-06
1.424039e-05 -3.487891e-21 -2.088011e-06
1.419366e-05 -6.823654e-06 8.044058e-07
-3.943511e-06 1.177099e-05 -1.662806e-06
1.572490e-05 -1.458231e-06 6.869563e-07
-6.388140e-06 1.056244e-05 1.603413e-06
1.173097e-05 -4.192162e-06 1.697203e-06
4.417332e-06 1.109741e-05 -1.129648e-06
1.308269e-05 8.849580e-06 -6.801045e-07
1.188549e-05 -1.679584e-06 1.220031e-06
-8.922511e-06 -1.301442e-05 7.243919e-07
5.363456e-06 -1.480332e-05 8.135495e-07
1.509915e-05 -3.698226e-21 -1.674455e-06
1.259479e-05 7.845918e-06 -1.852440e-06
1.304506e-05 -8.847085e-06 -7.705095e-07
1.114838e-05 1.119106e-05 6.749319e-07
-1.343745e-06 -1.513313e-05 -1.595402e-06
-6.338271e-06 -1.169301e-05 2.090967e-06
1.649235e-06 -1.199042e-05 -1.352634e-06
1.522012e-05 8.871702e-07 -1.546023e-06
2.471905e-06 -1.560699e-05 -6.592619e-07
1.193626e-05 2.947967e-06 1.558599e-06
-9.077229e-06 7.776239e-06 1.143066e-06
1.569343e-05 -3.843782e-21 -9.292525e-07
-1.164930e-05 1.429356e-06 6.910513e-07
-1.424197e-05 6.720099e-06 -8.066662e-07
-1.474595e-05 2.630485e-06 -1.763774e-06
-1.057680e-05 -1.169987e-05 -7.444224e-07
-1.163554e-05 4.684454e-07 -3.120236e-07
3.343828e-06 1.113344e-05 1.061228e-07
1.414511e-05 5.467557e-06 1.619727e-06
5.633208e-06 1.411907e-05 -1.587582e-06
1.281858e-05 6.404630e-07 1.929613e-06
1.513779e-05 -4.484483e-06 -6.994984e-07
-6.196545e-07 1.160558e-05 0.000000e+00
-1.162306e-05 -2.407837e-06 -9.998809e-07
-8.360987e-06 -9.341429e-06 -1.755292e-06
1.162853e-05 -3.235862e-06 1.311140e-06
-2.863268e-06 -1.484887e-05 -1.655645e-06
-4.453088e-07 -1.289154e-05 1.959439e-06
8.786392e-06 1.243731e-05 1.563181e-06
6.186846e-06 -1.165771e-05 -2.065533e-06
1.046632e-05 -8.365251e-06 -2.110331e-06
6.818911e-06 1.366533e-05 -1.520471e-06
-1.576935e-05 -5.770539e-07 -7.227025e-07
6.584972e-06 -1.101453e-05 -1.928781e-06
-1.413966e-05 -6.985941e-06 -7.463186e-07
3.729784e-06 -1.468463e-05 1.631846e-06
1.425564e-05 6.691021e-06 -8.066908e-07
-1.500760e-05 -5.536835e-07 1.736206e-06
1.359787e-05 6.697259e-06 1.626059e-06
1.170665e-05 -5.575678e-06 1.987821e-06
-8.641058e-06 8.200996e-06 -1.078010e-06
-9.176549e-06 1.002020e-05 2.134418e-06
1.291534e-05 2.066562e-06 2.029481e-06
6.647469e-06 1.034028e-05 1.556502e-06
9.575174e-06 9.887303e-06 -2.141709e-06
-8.620742e-06 -1.190569e-05 -1.926715e-06
1.090725e-05 -4.756701e-06 -1.053864e-06
-2.175093e-06 1.561265e-05 -7.671093e-07
5.912813e-06 -1.060684e-05 1.400614e-06
-9.013282e-06 1.222029e-05 -1.602514e-06
1.705989e-06 -1.193673e-05 1.295056e-06
-7.867911e-06 -1.109269e-05 2.135411e-06
1.121110e-05 -9.907048e-06 1.775702e-06
-1.174263e-05 2.291328e-06 1.160986e-06
9.590689e-06 -7.958243e-06 1.701056e-06
1.115867e-05 -7.598341e-06 2.125400e-06
-4.101629e-06 -1.523938e-05 7.176793e-07
1.364855e-05 -7.926181e-06 -7.136377e-07
-6.119197e-07 -1.291495e-05 -1.972491e-06
1.362705e-05 -5.977205e-06 1.827667e-06
-1.021270e-05 6.444327e-06 -1.318343e-06
-1.574198e-05 3.931580e-07 8.089184e-07
-1.007826e-05 9.444068e-06 2.141174e-06
-1.361325e-05 -2.556695e-06 2.139923e-06
3.109906e-06 -1.543629e-05 8.099925e-07
-1.168745e-05 -8.698983e-06 1.984409e-06
1.027285e-06 1.295203e-05 -1.998075e-06
9.290053e-06 -7.467427e-06 1.088270e-06
-5.800965e-06 1.192332e-05 2.081506e-06
1.278876e-05 5.026475e-06 -2.141588e-06
-1.560897e-05 2.449688e-06 -6.639134e-07
1.136268e-05 -2.713558e-06 -5.037606e-07
-1.284411e-05 9.135136e-06 7.723761e-07
-1.370612e-05 7.839533e-06 6.946526e-07
1.270626e-05 -7.067810e-07 1.873405e-06
1.222307e-05 8.570533e-06 -1.797401e-06
-7.173692e-06 -1.407608e-05 6.680628e-07
-3.192009e-06 -1.407409e-05 -2.034965e-06
-1.355391e-05 8.109168e-06 -6.805524e-07
-9.255271e-06 8.532987e-06 1.790443e-06
3.449058e-06 1.543020e-05 -6.293333e-07
-1.546761e-05 -3.000293e-06 -7.864294e-07
9.212736e-06 -8.653620e-06 1.822927e-06
1.282028e-05 -6.054898e-07 -1.929613e-06
1.111038e-05 3.867199e-06 7.670311e-07
1.096775e-05 -3.920071e-06 3.272195e-07
-1.328393e-05 -7.629145e-06 1.472705e-06
-1.386075e-05 -1.583642e-06 2.133520e-06
1.225542e-05 1.013856e-05 -5.245673e-22
-1.447797e-05 -6.203335e-06 -7.988395e-07
-1.378945e-05 -8.746572e-09 2.141555e-06
1.218449e-05 7.249393e-07 1.469774e-06
1.142483e-05 3.083028e-06 9.277985e-07
-4.321954e-06 1.435302e-05 1.756231e-06
-1.579808e-05 5.253296e-07 -6.427133e-07
7.568085e-06 -9.024169e-06 -8.011213e-07
-6.438307e-06 1.320939e-05 1.928734e-06
-2.618905e-06 -1.360984e-05 -2.139569e-06
7.103234e-06 -1.091550e-05 2.009582e-06
-7.168538e-06 -1.356279e-05 -1.449256e-06
-1.171916e-05 -2.057487e-07 -6.431578e-07
-1.395006e-05 1.289298e-06 -2.127569e-06
1.322498e-05 7.744246e-06 -1.465541e-06
-1.557720e-06 -1.568869e-05 7.608324e-07
8.691966e-06 -1.244317e-05 1.608098e-06
-6.409011e-06 1.442656e-05 7.051779e-07
-1.543295e-05 3.449674e-06 6.200708e-07
-1.439590e-05 4.327395e-06 -1.725694e-06
1.248202e-05 9.632309e-06 7.590987e-07
[...]
POINT_DATA 1551
VECTORS 10.000GHz_fone_imag double
-3.607490e-04 -8.750925e-04 2.412585e-02
8.252689e-05 -1.379775e-03 2.316585e-02
7.848348e-04 4.904043e-04 2.415308e-02
5.106526e-03 -8.178239e-03 2.398004e-02
3.771669e-02 6.783371e-03 1.205355e-03
1.580410e-02 3.804632e-02 -3.927112e-02
-2.715374e-02 2.163308e-02 3.871916e-03
-2.066587e-03 4.198324e-02 -2.646017e-02
2.727010e-02 -9.092390e-03 1.404955e-02
8.862597e-03 -2.806510e-02 1.366443e-02
-2.993908e-02 1.656449e-02 -5.254144e-02
6.845461e-03 8.457781e-03 2.132529e-02
3.271315e-02 2.300525e-02 -6.905491e-03
-1.076161e-02 -5.822885e-04 2.326444e-02
-2.122605e-02 2.265643e-02 1.171617e-02
-1.451308e-03 2.232418e-02 1.846663e-02
-1.112579e-03 -8.982006e-03 2.331328e-02
-2.558139e-02 -1.930262e-02 1.188502e-02
1.509482e-02 6.452909e-03 -6.430988e-02
1.674293e-02 2.786015e-02 -4.393399e-02
8.514914e-03 4.607374e-03 2.263759e-02
4.047906e-02 -1.637562e-02 -1.632795e-02
2.886697e-02 -5.665802e-03 1.414389e-02
2.160321e-02 -3.632463e-02 -1.070017e-02
-2.446290e-02 7.634855e-04 1.564122e-02
3.584080e-02 -1.832869e-02 -2.815698e-02
-8.362995e-03 -4.875469e-03 2.314720e-02
2.975500e-02 6.153377e-03 -4.790488e-02
-7.886357e-04 -9.951217e-03 2.370743e-02
-6.713541e-03 8.006782e-03 2.323964e-02
9.528043e-03 -2.463308e-02 1.336151e-02
5.930981e-03 5.765533e-03 2.098227e-02
-7.845540e-03 -4.205917e-03 2.213705e-02
-8.380458e-03 -8.795266e-03 -5.877274e-02
7.558666e-03 -9.076027e-04 2.122931e-02
-3.357104e-02 1.022762e-04 6.040522e-03
2.874893e-02 1.879897e-02 -4.729589e-02
2.195577e-02 -1.780153e-02 1.211394e-02
-2.273115e-03 -2.376836e-03 -6.499420e-02
-2.590974e-02 -2.949947e-02 -1.665737e-03
-9.399805e-03 4.531086e-03 2.369319e-02
2.608613e-03 2.577987e-02 1.274280e-02
-5.639199e-03 7.169916e-03 2.262395e-02
-1.315355e-04 2.287489e-02 1.621931e-02
-1.350630e-02 -3.610391e-02 2.474742e-03
9.645024e-03 8.196466e-03 -6.640147e-02
-4.312647e-02 -1.362381e-03 -1.035357e-02
-4.211936e-04 3.905896e-03 -6.118505e-02
8.104826e-03 -4.000214e-03 2.401012e-02
2.090981e-02 -8.735647e-03 -5.919311e-02
-3.701462e-02 -1.931230e-02 -1.664033e-02
-1.930085e-02 1.011195e-02 -6.210844e-02
-7.539794e-03 3.999185e-02 -9.537632e-03
2.591129e-02 -1.051382e-02 9.969383e-03
-1.806951e-02 3.555496e-02 -1.844925e-02
-2.374461e-02 -6.536628e-03 1.736187e-02
-1.069774e-02 1.833393e-02 1.644282e-02
-4.129014e-02 1.540972e-03 -3.804277e-02
-6.285038e-03 -1.029041e-02 -6.457757e-02
4.657972e-03 2.492264e-02 1.402134e-02
3.828303e-02 -1.220018e-02 2.878749e-05
3.032429e-02 3.364927e-02 -1.353371e-02
-6.614666e-03 -2.220580e-02 -6.029176e-02
3.284047e-02 -2.252652e-02 -1.585548e-02
-1.796774e-02 4.073626e-02 -2.657121e-02
3.982212e-02 1.330112e-02 -3.643424e-03
-4.138356e-02 -9.536540e-03 -1.813838e-02
-1.225362e-03 -3.732413e-02 -1.066222e-03
-2.447784e-02 -1.872569e-03 -5.333553e-02
-9.145527e-03 5.782824e-03 -6.111969e-02
1.704318e-02 3.919164e-02 -2.342879e-02
-2.776077e-02 -9.613615e-03 1.207105e-02
-8.273766e-03 -2.087529e-02 1.461931e-02
2.164703e-02 8.651092e-03 1.572077e-02
-7.411670e-03 3.048052e-03 2.334933e-02
4.888060e-03 -2.780024e-02 -5.271486e-02
2.638761e-02 -3.242674e-02 -4.511048e-03
2.337740e-02 6.239373e-03 1.523850e-02
-8.999931e-03 -5.554816e-04 2.356182e-02
-9.459004e-04 1.941696e-03 -6.670186e-02
-4.068012e-02 -1.813058e-02 -1.007804e-02
1.508749e-02 -3.553156e-02 -3.830394e-02
-1.223058e-02 -2.547545e-02 1.396938e-02
-4.510402e-03 -1.033732e-04 -6.596195e-02
5.842790e-03 -3.933030e-02 -1.831260e-02
2.540582e-03 7.247529e-03 2.203119e-02
4.348368e-02 1.605166e-03 -3.288323e-02
-2.910254e-02 3.015575e-02 -1.182643e-02
-1.056214e-02 -2.311046e-02 1.418516e-02
1.445651e-02 2.020689e-02 1.616047e-02
2.376180e-02 -2.309265e-03 -5.403976e-02
1.767044e-02 2.654781e-02 -5.445634e-02
-2.254826e-02 8.644030e-03 1.770783e-02
-8.478256e-03 -2.449324e-03 2.360971e-02
5.437147e-03 -7.510687e-03 2.442660e-02
-4.336516e-03 -7.948895e-03 2.341992e-02
-7.868668e-03 2.408751e-02 1.406199e-02
2.216223e-03 -4.196279e-02 -1.800153e-02
-7.139450e-03 -6.461999e-03 2.344881e-02
1.722626e-02 1.760431e-02 1.781080e-02
-4.796605e-04 2.141728e-02 1.882446e-02
4.313117e-02 3.889766e-04 -3.607104e-02
5.964496e-03 6.193459e-04 -6.064600e-02
-6.968171e-03 4.781355e-05 -6.709035e-02
-1.137404e-03 -8.628039e-03 2.293621e-02
-1.221122e-02 -2.300660e-02 1.621312e-02
-1.526498e-02 -2.357501e-02 1.565487e-02
1.067064e-02 -2.481985e-02 1.583078e-02
-4.377325e-03 8.694959e-03 2.167600e-02
2.835393e-03 9.279156e-03 2.102875e-02
1.573454e-02 -4.143005e-02 -1.301893e-02
-1.671702e-02 -3.225311e-02 7.430776e-03
1.132611e-03 2.350630e-04 2.292202e-02
4.093447e-02 1.208700e-03 -9.388361e-03
-2.855502e-02 -2.384045e-02 -3.834589e-03
2.281421e-03 2.419263e-02 1.377812e-02
-1.500953e-02 -1.214771e-02 -5.959074e-02
2.843944e-03 -9.812216e-03 2.251596e-02
-8.260201e-03 -6.053007e-03 2.140923e-02
-1.138831e-02 -6.383348e-03 -5.809611e-02
-4.187434e-02 -1.548265e-02 -2.865444e-02
-3.936413e-02 1.659759e-03 -1.542477e-02
-3.501851e-02 2.634242e-02 -2.043182e-02
3.494988e-02 -2.293872e-02 -2.066297e-02
3.524376e-02 -1.299467e-03 4.257590e-03
-8.703578e-03 3.614865e-03 2.355196e-02
-1.322860e-02 3.994711e-02 -3.491222e-02
-8.737101e-03 1.142191e-03 2.374877e-02
1.974431e-02 -3.339719e-02 -3.967249e-02
-3.859975e-02 1.379787e-02 -3.303204e-02
1.210365e-02 2.938154e-02 -5.357520e-02
5.398179e-03 3.996027e-03 2.228154e-02
-2.935735e-02 2.569169e-03 -5.069490e-02
4.777627e-03 7.123972e-03 2.214639e-02
-4.367578e-03 1.095924e-02 2.188799e-02
2.285315e-02 7.857984e-04 1.815902e-02
2.385635e-02 1.450211e-02 1.537545e-02
8.960183e-03 -5.356683e-03 2.079544e-02
-6.457063e-03 -5.847103e-03 2.378360e-02
-1.930988e-03 -2.236782e-02 1.780436e-02
2.032453e-02 3.918100e-02 -1.191348e-02
3.659136e-03 -3.747704e-02 -4.628444e-02
2.116623e-02 8.823240e-04 2.002558e-02
4.222100e-04 -6.454649e-03 2.168838e-02
-3.896273e-02 -1.016157e-02 -4.158512e-02
2.471446e-02 -2.070272e-02 -5.283197e-02
1.253576e-02 7.397471e-04 2.179857e-02
1.973625e-02 -2.025785e-03 -6.387631e-02
-9.664149e-03 4.387394e-03 2.374392e-02
-2.252742e-02 3.512478e-03 1.674937e-02
-6.054413e-03 -6.185802e-03 2.119544e-02
-6.998571e-03 1.704325e-03 -5.862411e-02
2.446227e-04 -5.516100e-04 -6.305586e-02
-2.209967e-02 -8.408205e-03 1.790396e-02
6.871174e-03 1.926011e-02 1.675052e-02
-4.469700e-02 -2.425171e-03 -2.353640e-02
8.276823e-03 -3.332348e-03 2.338219e-02
-7.564907e-04 1.246184e-03 -6.462346e-02
-2.825384e-02 -6.101433e-03 -5.540054e-02
-2.841124e-02 -3.286417e-02 -3.104074e-02
-3.466125e-02 9.739942e-03 -5.058236e-02
-4.021549e-03 -2.155650e-02 1.555432e-02
2.397526e-04 4.611955e-02 -2.128381e-02
-1.152521e-02 -1.833891e-02 1.854314e-02
2.115304e-02 -3.859131e-02 -1.353236e-02
3.355838e-02 -2.682433e-02 -1.052943e-02
9.455428e-03 1.872794e-02 1.958986e-02
-9.523646e-03 -4.561578e-04 2.393046e-02
2.328568e-02 -3.682167e-02 -2.096675e-02
-8.612662e-03 -3.590866e-03 2.366732e-02
-6.543925e-03 2.062514e-02 1.606072e-02
8.493673e-03 4.157611e-03 2.388110e-02
2.563686e-02 1.037006e-03 1.726532e-02
-2.048430e-02 -9.734544e-03 1.741839e-02
-3.964646e-02 1.835718e-02 -2.022375e-02
-1.822388e-02 1.588934e-02 -5.287911e-02
2.843771e-02 -3.078718e-02 -4.642005e-03
-4.072365e-02 -7.369175e-03 -1.377157e-02
-2.182460e-02 -3.251268e-02 -4.176511e-02
2.566094e-02 2.748493e-02 6.636900e-04
-1.858198e-02 -2.392779e-02 1.314495e-02
2.830718e-02 -1.118721e-02 -5.571827e-02
-1.162566e-03 1.003449e-02 2.041216e-02
-1.824738e-02 3.273689e-02 -4.551858e-02
-1.208548e-02 1.852695e-02 1.682545e-02
-4.808750e-03 3.554040e-02 -5.185694e-02
2.468362e-02 3.412197e-02 -5.497964e-03
-1.890316e-02 1.839021e-02 1.466048e-02
3.053970e-02 -4.303844e-03 -5.503454e-02
-3.219861e-02 2.738716e-02 -3.591260e-02
-3.275705e-02 2.446100e-02 -9.837137e-03
1.821878e-03 7.661200e-03 2.354477e-02
5.810358e-03 -3.115601e-03 2.171918e-02
-5.431406e-03 -4.305633e-02 -2.075878e-02
-2.568125e-02 1.139671e-02 1.463978e-02
-2.898540e-02 1.892850e-02 -4.429656e-02
1.006638e-02 -4.524752e-05 2.245691e-02
2.832813e-02 -2.578758e-02 -8.324903e-04
3.956689e-02 7.815642e-03 -5.475177e-05
-1.246998e-03 1.000216e-02 2.306645e-02
2.545502e-02 1.911168e-02 1.062967e-02
3.596174e-03 4.478413e-02 -1.997152e-02
-2.059728e-02 1.689221e-02 -5.063948e-02
1.920836e-02 -3.964747e-02 -1.206167e-02
3.814692e-02 1.480833e-02 -1.916376e-03
-8.517498e-03 2.097889e-03 2.353106e-02
1.142108e-02 -3.853548e-03 -6.473185e-02
7.769959e-03 -5.678850e-03 2.391550e-02
7.606981e-03 -4.134318e-03 2.433522e-02
-4.358153e-02 3.493014e-03 -2.289832e-02
2.315648e-02 1.569829e-02 1.561300e-02
3.185187e-03 6.658686e-03 2.349669e-02
-6.893417e-03 -3.338881e-02 8.719772e-03
-6.487386e-03 3.520349e-03 2.238923e-02
2.869633e-02 -2.632515e-02 -2.885218e-02
1.176331e-03 7.818529e-03 2.373940e-02
-8.593367e-03 -2.663470e-03 2.306648e-02
-2.961113e-02 2.785244e-02 -2.739274e-02
4.326782e-02 7.206638e-04 -2.441050e-02
-1.803076e-02 -6.712385e-03 -5.565556e-02
-1.095974e-02 2.872980e-03 -6.052488e-02
1.835157e-02 1.027133e-02 1.966186e-02
3.894688e-02 4.706248e-03 1.230112e-04
5.226737e-04 2.376472e-04 2.446273e-02
-8.568521e-03 -3.988364e-03 2.361166e-02
3.775826e-02 -8.208547e-04 -3.268728e-03
-3.578551e-02 -5.378055e-03 -4.034827e-02
-2.330432e-02 -5.684729e-03 -5.767345e-02
7.191381e-03 -2.510849e-02 1.579255e-02
-8.041093e-03 7.686952e-05 2.157949e-02
1.535300e-02 -1.888769e-02 -5.901243e-02
1.362474e-02 -2.657956e-02 1.351385e-02
-7.107864e-03 -3.838176e-02 -8.565571e-04
-2.248800e-02 3.374124e-02 -1.686212e-02
-9.030656e-03 -1.783097e-02 2.031580e-02
-1.688471e-02 -4.374050e-04 -6.251715e-02
-3.827938e-02 4.430417e-03 9.853070e-04
1.679590e-02 1.087924e-02 1.873018e-02
1.266149e-03 8.568839e-03 2.388703e-02
-1.349199e-02 1.870838e-02 1.768685e-02
3.161392e-03 -7.728187e-03 2.176008e-02
7.598335e-03 -2.262592e-03 2.150489e-02
-2.182522e-02 5.252454e-03 1.751409e-02
-7.702328e-03 -5.658126e-03 2.373926e-02
-1.664222e-02 -2.602482e-02 1.302826e-02
-8.826473e-03 -4.021431e-02 -2.429741e-02
-1.258540e-02 -9.439843e-03 -6.016434e-02
-2.310599e-02 -1.212375e-02 1.375325e-02
-1.002871e-02 1.874631e-02 1.933251e-02
-3.272826e-03 4.278359e-02 -9.859365e-03
-2.224408e-02 1.094361e-02 -5.952611e-02
-3.832375e-03 6.872085e-03 -6.451754e-02
2.083908e-03 -7.331169e-03 -6.567190e-02
3.146145e-02 1.749365e-02 -3.734777e-02
-4.095389e-03 2.345396e-02 1.809289e-02
2.254702e-02 3.397498e-02 -2.890841e-02
-1.825731e-02 -1.530149e-02 1.333964e-02
2.684931e-02 -1.528836e-02 1.056570e-02
1.889290e-02 -3.321516e-02 7.730683e-04
-3.448605e-02 -2.313469e-02 -3.480046e-02
5.279474e-03 -1.953100e-02 2.035868e-02
-1.598314e-02 3.463921e-02 -5.273624e-03
4.026301e-02 8.223854e-03 -2.795823e-02
2.497343e-02 -5.878099e-03 1.515038e-02
8.142038e-03 1.746728e-03 2.214051e-02
1.282939e-02 -1.576389e-02 1.648606e-02
8.540449e-03 1.899466e-03 2.357584e-02
-1.911728e-02 -2.367683e-02 -5.553917e-02
-2.591239e-02 2.639914e-02 -1.126011e-03
3.630681e-02 -1.945899e-02 -1.498423e-02
3.719625e-02 -1.159056e-02 -3.793864e-02
2.364046e-02 -4.116259e-03 1.764919e-02
1.998860e-02 2.322477e-02 -5.246782e-02
8.504587e-03 -1.243891e-03 2.173777e-02
-1.909680e-03 -1.378931e-03 -6.174142e-02
2.194461e-02 -1.661711e-03 1.559428e-02
5.131263e-04 -3.506295e-02 3.590113e-03
5.158865e-04 -1.609000e-03 -6.600053e-02
-3.877218e-02 9.206361e-03 -2.867981e-02
-1.510519e-02 -5.602132e-03 -5.658732e-02
-7.604357e-03 4.331936e-02 -3.048183e-02
1.530996e-02 2.058060e-02 1.631951e-02
-2.583870e-02 -1.748988e-02 7.319397e-03
-2.813201e-02 -3.055538e-02 -1.497630e-02
-2.794948e-02 3.124055e-02 -3.446297e-02
3.198750e-02 1.712440e-02 4.335992e-03
5.872146e-03 3.174221e-03 -6.456095e-02
-2.237861e-03 9.131487e-03 2.311708e-02
-5.170861e-03 -5.968279e-03 2.352418e-02
4.028354e-02 -4.317515e-03 -2.290356e-02
2.119025e-02 -3.145278e-02 -4.265653e-02
3.671530e-02 -7.610504e-03 -7.642638e-03
-4.933259e-03 -2.173845e-03 -5.950793e-02
1.562614e-02 3.171997e-03 -5.833313e-02
1.781057e-02 8.540711e-03 -5.770147e-02
-2.344722e-02 2.822247e-02 -4.333308e-02
2.692472e-03 -3.371688e-02 6.483757e-03
-2.082872e-02 3.635390e-02 -5.873604e-03
7.689597e-03 -7.081211e-03 -6.091907e-02
1.051365e-02 4.022340e-02 -3.599280e-02
1.813666e-02 -1.111004e-02 1.577202e-02
-1.656075e-02 -5.195823e-03 2.125729e-02
3.709287e-02 2.345906e-02 -9.044409e-03
-2.127729e-02 1.535207e-02 -5.851078e-02
1.403580e-02 -5.450677e-04 -6.393997e-02
-6.793181e-03 -4.184466e-02 -4.984265e-03
6.223647e-03 3.919472e-02 -2.528111e-02
-1.811587e-03 -1.434163e-03 -6.511126e-02
3.435778e-02 -2.246774e-02 -4.009981e-02
2.156771e-02 -1.092067e-02 1.703810e-02
2.069291e-02 1.026993e-02 1.828864e-02
-8.639494e-03 -1.069187e-03 2.157953e-02
2.922940e-02 9.910910e-03 9.787194e-03
1.682656e-03 5.129672e-03 -6.339949e-02
-1.624662e-03 3.215774e-04 -6.209345e-02
2.108238e-02 -1.155044e-02 -5.246559e-02
2.386064e-02 -6.110123e-03 1.729882e-02
-6.851812e-03 -3.140104e-03 2.292062e-02
2.119723e-02 -2.685327e-03 2.045441e-02
4.220882e-02 2.026386e-03 -1.931808e-02
-3.587405e-02 1.917649e-02 -1.400448e-03
2.070892e-02 2.702238e-02 -4.535695e-02
-1.040482e-02 2.007686e-02 1.904215e-02
2.733148e-03 -1.523386e-02 -6.425622e-02
-4.660189e-03 -5.817012e-03 2.309128e-02
-2.765147e-02 -2.644128e-02 4.527766e-03
9.622012e-03 3.891726e-02 -1.155328e-02
-2.901686e-02 9.885121e-03 9.891163e-03
7.565418e-03 6.018334e-04 2.179074e-02
-2.311939e-02 -3.388429e-02 -1.135066e-02
1.780381e-02 1.361046e-02 1.806847e-02
-1.004241e-02 3.694599e-02 7.391390e-04
7.645694e-04 3.714062e-02 4.383381e-03
5.297222e-03 -1.902822e-02 1.843696e-02
1.384493e-04 6.843552e-05 2.481532e-02
-2.221222e-02 9.930487e-03 -5.200209e-02
-3.871210e-05 6.774490e-04 -6.603434e-02
-5.850347e-03 -5.194188e-03 2.347324e-02
-9.655041e-03 -2.405989e-02 1.358670e-02
-2.081490e-02 2.736398e-02 -4.261091e-02
-1.183659e-02 -5.338234e-03 -6.115690e-02
4.047031e-02 1.888823e-02 -2.110578e-02
3.569312e-02 -1.597226e-02 1.218392e-03
-2.035208e-03 -2.145788e-02 1.658362e-02
-2.002840e-02 -3.287277e-02 -5.208173e-03
5.242453e-03 2.313027e-02 1.358892e-02
1.388511e-02 -2.366491e-02 -5.630536e-02
8.889160e-03 -1.969772e-02 1.878951e-02
2.795464e-02 3.116113e-02 -2.786782e-02
3.374749e-02 -2.171002e-02 -6.670753e-04
-3.379636e-02 -1.509912e-02 -4.868173e-02
-2.732496e-02 2.583041e-02 -4.282072e-02
-2.903835e-02 -2.176233e-02 -4.273736e-02
1.396494e-02 -1.213740e-02 -5.932231e-02
3.911529e-02 -2.297463e-02 -1.782918e-02
-5.406598e-03 -7.805954e-03 2.194543e-02
2.759529e-02 2.378397e-02 5.101199e-03
-1.826179e-02 5.361344e-03 2.075061e-02
3.461908e-02 2.402812e-03 -7.257573e-04
-9.810564e-04 -3.146507e-02 -4.531229e-02
-3.729752e-02 -8.774851e-03 -7.939394e-03
3.577587e-02 3.525470e-03 -4.891327e-02
-6.846293e-03 -1.880694e-02 1.999437e-02
3.179115e-02 1.153364e-02 7.992014e-03
-7.250761e-03 -2.885922e-03 2.386305e-02
-2.641402e-03 -2.212044e-02 1.653379e-02
-2.442576e-02 -2.498347e-02 5.795673e-03
2.135234e-03 1.867513e-02 1.864849e-02
1.384726e-02 3.196684e-02 -4.294324e-02
1.233904e-02 -4.945467e-03 -6.562361e-02
5.609726e-05 1.858418e-02 1.919199e-02
-8.173794e-03 -3.463149e-05 2.379784e-02
2.896948e-02 2.711430e-02 -2.203494e-03
-5.170715e-03 4.258278e-03 2.160150e-02
3.618093e-02 -9.225901e-03 4.990235e-03
-4.137509e-02 1.122132e-02 -3.608690e-02
-4.649707e-03 -2.091096e-02 1.696357e-02
7.196646e-03 2.636541e-02 1.489911e-02
1.515997e-02 -4.293661e-02 -2.339296e-02
9.313590e-03 1.859394e-02 -5.523445e-02
-2.337116e-02 -3.753629e-02 -2.749752e-02
-4.289747e-02 -5.761591e-03 -3.578496e-02
-1.662014e-02 1.206977e-02 1.945617e-02
3.953385e-02 1.709630e-02 -1.811555e-02
-2.464384e-02 -1.208445e-02 1.443178e-02
-7.852205e-03 4.266553e-04 2.363047e-02
-5.035548e-03 -3.799985e-02 -4.626315e-02
1.092582e-02 -1.013794e-02 -5.939749e-02
-3.361733e-02 2.655423e-02 -3.721936e-02
3.751200e-02 -6.453237e-03 -6.159145e-03
2.309666e-02 1.105516e-02 -5.767027e-02
1.827089e-02 -6.498114e-03 1.759728e-02
-4.102596e-02 4.687304e-03 -3.780122e-02
7.399877e-03 -3.399600e-02 7.769069e-03
2.899296e-02 -1.369701e-02 9.035690e-03
2.169296e-02 3.121789e-03 1.551946e-02
-7.373594e-03 2.963098e-03 2.188043e-02
-1.337032e-03 -2.505078e-02 1.728460e-02
-1.780933e-03 6.756132e-03 2.338548e-02
-3.666088e-02 -7.935772e-04 -4.744282e-02
-1.243789e-02 -3.346838e-02 -4.887231e-02
1.529912e-02 -3.937283e-03 1.914473e-02
-2.129912e-02 -3.918691e-03 1.779144e-02
-6.650679e-03 -2.486696e-03 2.280486e-02
-3.928936e-02 8.831457e-03 -1.021372e-02
4.240954e-02 -4.380470e-03 -6.659354e-03
1.152863e-02 3.867010e-02 -3.629973e-03
-3.218871e-02 1.963890e-02 3.980560e-03
8.226457e-04 -2.220460e-02 1.610291e-02
3.287683e-02 -2.790569e-03 -5.285512e-02
-1.671828e-02 -1.411948e-02 1.852466e-02
2.664449e-02 -2.424532e-02 -4.693000e-02
-3.720304e-02 -2.121862e-02 -3.163554e-02
-2.090451e-02 3.890812e-02 -1.384451e-02
3.630021e-02 1.466130e-02 -6.305246e-03
3.503102e-02 2.090092e-02 -2.558488e-02
1.547361e-02 -2.339156e-02 -5.616068e-02
2.271200e-02 -3.136150e-02 2.621767e-03
1.766244e-02 1.433877e-02 1.742873e-02
-1.629141e-02 -1.066888e-02 1.904373e-02
-2.828343e-03 3.722913e-02 -2.372275e-03
2.044756e-02 3.539432e-02 -2.692003e-02
-3.817520e-02 -1.539129e-02 -2.134692e-03
8.856084e-03 -3.171036e-03 -6.644815e-02
-3.231695e-02 -2.068964e-03 1.075076e-02
2.187421e-02 -3.319417e-02 -1.214726e-02
-1.438428e-02 -3.502706e-02 -3.307802e-02
-4.253440e-02 -1.403177e-02 -1.529384e-02
-2.383233e-03 -4.444578e-02 -1.784029e-02
-2.566313e-02 -3.496925e-02 -3.222586e-02
-3.470846e-02 -1.792688e-02 -3.690516e-03
-1.240984e-02 -3.872675e-02 -2.036529e-02
-2.781359e-02 2.020316e-02 8.702459e-03
5.716338e-03 4.106279e-02 -2.361808e-02
3.112845e-02 -2.260784e-02 -3.191003e-02
-3.730856e-03 -2.989468e-03 -6.295968e-02
3.288521e-03 5.008419e-03 2.386543e-02
4.356130e-02 -7.747405e-03 -2.016364e-02
-1.941165e-02 1.757179e-02 -5.677751e-02
-1.774761e-03 -8.264056e-03 2.330581e-02
-6.246009e-03 1.165021e-02 -6.446184e-02
4.231755e-03 -6.997620e-03 2.271587e-02
-2.290715e-02 8.177913e-03 1.543075e-02
-3.258835e-02 1.986074e-02 -4.533381e-02
3.674508e-03 -3.768931e-04 -5.948731e-02
1.061764e-04 5.356232e-04 2.460579e-02
-2.182957e-02 3.683378e-02 -3.298800e-02
5.390654e-04 -8.990830e-03 2.375630e-02
2.152397e-02 -2.163152e-04 1.736953e-02
-6.146225e-03 5.967627e-03 2.356793e-02
1.249497e-02 -2.306526e-02 -5.235150e-02
1.055603e-02 -4.034711e-02 -5.986810e-03
2.546331e-02 -3.329267e-02 -3.013480e-02
-9.834307e-03 1.516249e-03 2.187604e-02
-2.099171e-02 -2.559529e-02 9.460950e-03
1.745675e-02 -2.682328e-02 7.808904e-03
-1.438621e-02 -3.878876e-02 -3.683178e-03
1.691290e-02 -1.535086e-02 -5.838757e-02
-9.899705e-04 7.644423e-03 -6.611829e-02
-6.561447e-04 -1.819822e-02 -6.211445e-02
-3.495008e-02 -5.957653e-03 4.161233e-03
-2.987888e-02 3.271077e-02 -1.652401e-02
-1.295465e-02 -1.172429e-03 -5.902283e-02
2.790663e-02 2.834059e-03 1.496631e-02
-3.776277e-02 1.217617e-02 -1.635501e-03
-9.244225e-03 1.054125e-02 -5.914368e-02
-3.087048e-02 -2.300334e-02 4.147580e-03
4.401835e-03 -4.826486e-03 2.309204e-02
-2.337672e-02 3.365571e-02 -3.069866e-02
3.735025e-02 1.573967e-02 -3.474158e-02
-1.930135e-02 1.046549e-02 1.838989e-02
3.415310e-02 2.714219e-02 -7.263108e-03
-4.038241e-02 6.345898e-03 -1.234953e-02
-4.373196e-03 7.406462e-03 2.381407e-02
1.715241e-02 -1.459519e-03 1.975659e-02
-4.314343e-02 -1.321940e-02 -2.628372e-02
6.624463e-03 6.471658e-03 2.227041e-02
-5.688598e-03 1.411049e-02 -5.796013e-02
7.859357e-03 4.658981e-03 2.348800e-02
-2.897543e-02 -2.964186e-02 -3.521507e-02
-1.576798e-02 -1.841744e-02 1.718281e-02
2.226364e-02 3.628858e-02 -6.327318e-03
1.806422e-02 -3.059638e-02 -4.516040e-02
1.924144e-03 -2.157362e-02 1.938397e-02
1.851480e-02 -1.078054e-02 2.018108e-02
5.470304e-03 -2.373654e-03 2.261946e-02
-3.047663e-03 6.189456e-03 2.417379e-02
1.448968e-02 9.607501e-03 -6.354435e-02
-3.812397e-02 -2.231915e-02 -1.289270e-02
1.708131e-02 -1.387023e-02 1.695296e-02
-1.340228e-02 3.736513e-02 -2.960890e-02