# vtk DataFile Version 2.0
Electric current density generated by TTH
ASCII
DATASET UNSTRUCTURED_GRID
POINTS 13227 double
3.694680e-05 1.973447e-05 -1.027719e-22
4.152211e-05 -5.516312e-06 -1.027719e-22
1.890097e-05 3.682421e-05 -4.127154e-07
3.423272e-06 4.094291e-05 1.745646e-07
-1.934085e-05 -3.642300e-05 -3.524077e-07
4.167883e-05 -2.063613e-07 3.621027e-07
4.167765e-05 2.237086e-07 -3.627386e-07
3.897940e-05 1.290675e-05 1.033268e-07
3.951440e-05 -1.336641e-05 3.395182e-07
3.951444e-05 1.336630e-05 -3.395178e-07
2.475058e-05 3.294185e-05 3.265487e-07
1.167180e-07 4.120368e-05 -3.265487e-07
4.155598e-05 -5.255052e-06 -1.027719e-22
3.845612e-05 -1.651668e-05 -1.652894e-07
1.508047e-06 4.102309e-05 5.055098e-08
-3.206647e-05 2.592776e-05 -3.508569e-07
-2.627912e-05 3.177915e-05 -3.508569e-07
-3.037342e-05 -2.789197e-05 -3.508569e-07
-2.252068e-05 3.454451e-05 -3.508360e-07
4.087363e-05 -5.684638e-06 -3.687089e-07
4.072225e-05 -5.656240e-06 -2.250397e-07
4.086948e-05 5.717442e-06 3.689353e-07
4.072225e-05 5.656240e-06 2.250397e-07
4.158821e-05 -4.993585e-06 -1.027719e-22
3.526633e-05 -2.149669e-05 -3.854756e-07
1.834907e-05 3.736728e-05 3.870634e-07
1.834907e-05 -3.736728e-05 -3.870634e-07
3.984171e-05 -1.280582e-05 1.740338e-07
3.015995e-05 -2.800049e-05 -2.790580e-07
3.015995e-05 2.800049e-05 2.790580e-07
1.234131e-05 3.927283e-05 -2.922891e-07
1.365972e-05 -3.877645e-05 2.232478e-07
3.197879e-05 -2.700182e-05 1.634046e-07
2.060833e-05 3.566668e-05 3.169877e-07
4.161880e-05 -4.731920e-06 -1.027719e-22
6.054625e-06 4.081708e-05 3.668693e-07
5.370808e-06 4.130496e-05 3.764472e-07
2.654826e-05 -3.235563e-05 1.646436e-07
3.405975e-06 4.145809e-05 -3.988114e-07
1.048462e-05 -4.023905e-05 4.034713e-07
5.742484e-06 -4.117622e-05 4.056251e-07
-3.659816e-06 -4.141126e-05 4.061615e-07
-1.866843e-05 -3.715640e-05 4.034713e-07
-4.125333e-05 -5.252612e-06 4.023574e-07
-3.206766e-05 -2.647213e-05 4.034713e-07
4.164773e-05 -4.470068e-06 -1.027719e-22
-4.158352e-05 -4.875517e-07 4.023574e-07
-3.097707e-05 -2.774614e-05 4.023574e-07
-3.987613e-05 1.180136e-05 4.025316e-07
-3.613816e-05 2.057041e-05 4.034713e-07
-3.265976e-05 2.574427e-05 4.023574e-07
-3.694158e-05 1.909834e-05 4.023574e-07
-4.094327e-05 7.234232e-06 4.048896e-07
-9.710027e-06 -4.043295e-05 4.034713e-07
-3.759556e-05 1.777381e-05 4.026844e-07
-1.567971e-05 -3.851305e-05 4.034713e-07
4.167503e-05 -4.208038e-06 -1.027719e-22
-2.849432e-05 3.028855e-05 4.027261e-07
-3.366811e-05 2.440423e-05 4.034713e-07
-2.611778e-05 3.236041e-05 4.026844e-07
-2.227778e-05 3.511592e-05 4.023574e-07
-2.721663e-05 3.142517e-05 4.061621e-07
-3.935509e-05 1.342701e-05 4.034713e-07
-3.646729e-05 -1.999136e-05 4.020337e-07
-2.351079e-05 3.428615e-05 4.061286e-07
-2.761428e-05 -3.108955e-05 4.034713e-07
-4.152622e-05 -2.163619e-06 4.034713e-07
4.170067e-05 -3.945843e-06 -1.027719e-22
-1.674921e-05 3.804946e-05 4.061286e-07
-1.226832e-05 3.973566e-05 4.023307e-07
-4.142775e-05 -3.584661e-06 4.034713e-07
-3.828731e-05 1.622314e-05 4.034713e-07
-3.560222e-05 -2.146552e-05 4.061621e-07
-4.025826e-05 1.042075e-05 4.027367e-07
-1.136772e-05 -4.000122e-05 4.027261e-07
-3.900488e-05 -1.441275e-05 4.034713e-07
-3.390018e-05 -2.408552e-05 4.026844e-07
-3.173214e-05 2.687340e-05 4.034713e-07
4.172466e-05 -3.683491e-06 -1.027719e-22
-2.519145e-05 -3.308322e-05 4.034713e-07
-2.650733e-05 -3.204354e-05 4.023574e-07
-3.061061e-05 2.814817e-05 4.027037e-07
-4.072867e-05 -8.383514e-06 4.034713e-07
-1.993012e-05 -3.649519e-05 4.034713e-07
-2.084185e-05 3.598229e-05 4.034713e-07
-2.998031e-05 -2.881474e-05 4.034713e-07
-3.956783e-05 -1.279491e-05 4.027261e-07
-2.274644e-05 -3.480959e-05 4.034713e-07
-4.103965e-05 -6.714267e-06 4.026844e-07
4.174700e-05 -3.420994e-06 -1.027719e-22
-3.485290e-05 -2.268002e-05 4.034713e-07
-3.853389e-07 -4.158076e-05 4.034713e-07
4.103753e-05 4.296169e-06 -3.658104e-07
3.984116e-05 1.282063e-05 -1.649405e-07
1.043956e-05 4.027053e-05 -3.975098e-07
3.405640e-05 -2.308536e-05 2.665895e-07
2.643318e-05 -3.212740e-05 -3.967602e-07
4.056960e-05 6.356256e-06 1.174537e-07
4.112928e-05 4.359116e-06 4.055398e-07
7.203523e-06 4.106769e-05 -3.526734e-07
4.176769e-05 -3.158361e-06 -1.027719e-22
3.692504e-05 1.968139e-05 -1.874314e-07
3.691323e-05 -1.970159e-05 1.892461e-07
4.173172e-05 2.937051e-06 -2.023001e-07
4.141484e-05 -3.876885e-06 3.994166e-07
9.735978e-06 -4.003305e-05 3.233530e-07
-2.033434e-05 -3.583224e-05 3.233530e-07
-2.785935e-05 -3.035277e-05 3.233530e-07
-1.615624e-05 -3.790000e-05 3.233530e-07
-2.959559e-06 -4.109350e-05 3.233530e-07
-9.228584e-07 -4.131646e-05 -3.953499e-07
3.682195e-05 1.996646e-05 -1.027719e-22
4.178673e-05 -2.895604e-06 -1.027719e-22
-2.546394e-05 -3.254980e-05 -3.953499e-07
-1.017449e-05 -4.005473e-05 -3.953499e-07
-3.314127e-05 2.468922e-05 -3.953499e-07
-3.566603e-05 -2.087668e-05 -3.953499e-07
-3.118531e-05 2.711786e-05 -3.953499e-07
-4.112286e-05 -4.100243e-06 -3.953499e-07
-3.152394e-05 -2.672344e-05 -3.953499e-07
-3.617990e-05 1.997288e-05 -3.953499e-07
-2.745945e-05 3.088495e-05 -3.953499e-07
-1.806954e-05 -3.716710e-05 -3.953499e-07
4.180411e-05 -2.632732e-06 -1.027719e-22
-3.434106e-05 -2.299115e-05 -3.953499e-07
-4.129535e-05 -1.610912e-06 -3.953499e-07
-2.941920e-05 -2.902434e-05 -3.953499e-07
-3.783789e-05 1.661912e-05 -3.953499e-07
-2.117911e-05 3.548727e-05 -3.953499e-07
-4.058355e-05 -7.802376e-06 -3.953499e-07
-3.928402e-05 1.283226e-05 -3.953499e-07
-3.894879e-05 -1.381640e-05 -3.953499e-07
-2.215259e-05 -3.488788e-05 -3.953499e-07
2.477002e-05 -3.349414e-05 3.736420e-07
4.181985e-05 -2.369755e-06 -1.027719e-22
1.268126e-05 3.987119e-05 -1.942092e-07
3.507440e-05 -2.164923e-05 3.372919e-07
-4.786041e-06 -4.084166e-05 2.370768e-07
-4.105892e-05 2.259946e-06 2.369866e-07
2.973573e-06 -4.101342e-05 2.369866e-07
-1.904658e-05 3.644414e-05 2.370799e-07
-3.480981e-05 2.189109e-05 2.369866e-07
-4.111477e-05 7.234476e-07 2.370768e-07
-3.830537e-05 1.495479e-05 2.370654e-07
3.891628e-06 -4.093657e-05 2.370734e-07
4.183392e-05 -2.106685e-06 -1.027719e-22
-3.728119e-05 -1.735096e-05 2.369866e-07
7.939222e-07 -4.111346e-05 2.370654e-07
1.148174e-05 -3.948559e-05 2.369866e-07
1.278872e-06 4.181717e-05 -1.990508e-07
-1.662174e-05 3.839924e-05 -1.881754e-07
-2.387523e-05 3.436215e-05 -1.881751e-07
-4.115791e-05 7.537270e-06 -1.881751e-07
6.044211e-06 -4.140352e-05 -1.881751e-07
1.502149e-05 3.842491e-05 3.629237e-07
3.996061e-05 1.022451e-05 -3.576547e-07
4.184635e-05 -1.843532e-06 -1.027719e-22
4.068836e-05 6.720611e-06 3.524529e-07
-7.355580e-06 4.105457e-05 3.435125e-07
1.189036e-05 -3.984729e-05 4.031994e-07
1.073911e-06 -4.156958e-05 4.032135e-07
-1.424116e-05 -3.907083e-05 4.026636e-07
-2.396189e-05 -3.398770e-05 4.026799e-07
-4.041022e-05 -9.815790e-06 4.026799e-07
-3.847467e-05 -1.578086e-05 4.026799e-07
-4.157175e-05 1.006613e-06 4.030714e-07
-2.954581e-05 2.926399e-05 4.026799e-07
4.185711e-05 -1.580306e-06 -1.027719e-22
-3.718558e-05 -1.861500e-05 4.028562e-07
-4.137030e-05 4.223594e-06 4.026636e-07
-3.780705e-05 -1.731392e-05 4.033444e-07
-1.810907e-05 3.743524e-05 4.026799e-07
-3.998073e-05 -1.143182e-05 4.033444e-07
-4.117976e-05 5.789025e-06 4.028562e-07
-1.949917e-05 3.672881e-05 4.030743e-07
-3.883381e-05 1.487004e-05 4.032135e-07
-3.454318e-05 2.315378e-05 4.027036e-07
-1.277265e-05 -3.957518e-05 4.026799e-07
4.186622e-05 -1.317017e-06 -1.027719e-22
4.205286e-06 -4.137026e-05 4.032135e-07
-3.535485e-05 2.189197e-05 4.030714e-07
-3.301976e-05 -2.527906e-05 4.026799e-07
-4.150532e-05 2.540370e-06 4.033444e-07
-6.660016e-06 -4.104856e-05 4.026636e-07
-8.203951e-06 -4.076807e-05 4.026636e-07
-5.113012e-06 -4.126840e-05 4.030714e-07
2.752121e-06 -4.149182e-05 4.033444e-07
4.118028e-05 5.976108e-06 3.940017e-07
2.358351e-05 3.393946e-05 -3.960633e-07
4.187368e-05 -1.053676e-06 -1.027719e-22
-1.415307e-06 4.130455e-05 3.960633e-07
5.072860e-06 4.129210e-05 3.972169e-07
3.922383e-05 1.268105e-05 3.409658e-07
4.118326e-05 -7.462195e-06 1.632875e-07
3.147053e-05 2.719622e-05 4.001448e-07
6.166595e-06 4.071311e-05 -3.033831e-07
-4.052675e-05 -7.329021e-06 3.096002e-07
-3.896382e-05 -1.333989e-05 3.096002e-07
-4.004066e-05 9.637288e-06 3.096002e-07
-3.577017e-05 -2.041144e-05 3.096002e-07
4.187948e-05 -7.902936e-07 -1.027719e-22
-3.111958e-05 -2.697599e-05 3.096002e-07
-3.396781e-05 -2.328776e-05 3.096002e-07
-3.077779e-05 2.736529e-05 3.096002e-07
-1.276731e-05 3.916618e-05 3.188537e-07
-2.770239e-05 3.047474e-05 3.096002e-07
-3.928706e-05 1.235552e-05 3.096002e-07
-2.573218e-05 -3.215567e-05 3.096002e-07
-1.057890e-05 -3.980225e-05 3.096002e-07
-3.627230e-05 1.950518e-05 3.096002e-07
-3.752238e-05 1.697654e-05 3.096002e-07
4.188362e-05 -5.268797e-07 -1.027719e-22
-2.149468e-05 3.512991e-05 3.096002e-07
-2.535127e-05 3.247009e-05 3.188537e-07
-3.275358e-05 2.496668e-05 3.096002e-07
-4.116802e-05 -1.151480e-06 3.096002e-07
-4.093337e-05 -4.537721e-06 3.096002e-07
2.439281e-05 3.305334e-05 1.603431e-07
-2.366391e-07 4.107890e-05 -1.603431e-07
-1.970362e-06 -4.153435e-05 4.038924e-07
-1.723755e-05 -3.783981e-05 4.038924e-07
-2.885885e-05 -2.993579e-05 4.038924e-07
3.669564e-05 2.019765e-05 -1.027719e-22
4.188611e-05 -2.634451e-07 -1.027719e-22
8.833627e-06 -4.063191e-05 4.038924e-07
-2.478579e-05 3.338637e-05 4.038924e-07
-1.384318e-05 3.920907e-05 4.038924e-07
-1.531260e-05 3.865888e-05 4.038924e-07
-4.062210e-05 8.878596e-06 4.038924e-07
7.404034e-06 -4.091656e-05 4.038924e-07
-2.140193e-05 -3.565028e-05 4.038924e-07
3.511753e-05 -2.127919e-05 -1.064943e-07
3.824991e-05 -1.636670e-05 3.965870e-07
3.817535e-05 1.711009e-05 2.033789e-07
4.180680e-05 -1.023971e-20 2.466335e-07
3.309828e-05 -2.454157e-05 -3.268224e-07
1.146036e-05 4.024601e-05 -1.809347e-07
2.783692e-05 -3.122858e-05 2.032694e-07
4.022532e-05 8.182474e-06 3.392330e-08
3.761361e-05 -1.650503e-05 1.501768e-07
3.530184e-05 2.152433e-05 -4.017607e-07
2.215271e-05 -3.501323e-05 4.181659e-07
3.922357e-05 -1.268027e-05 -3.406146e-07
3.553586e-05 2.211215e-05 -1.633083e-07
[...]
POINT_DATA 13227
VECTORS 10.000GHz_fone_imag double
5.013923e+10 -8.924290e+10 8.452583e+08
-1.625877e+10 -9.752210e+10 1.428644e+08
9.092583e+10 -4.771931e+10 -9.875914e+08
1.050789e+11 -9.505095e+09 6.732782e+08
-9.200324e+10 4.976823e+10 -5.299962e+08
1.919775e+08 -1.012467e+11 8.636788e+08
-2.509926e+07 -1.009387e+11 8.375599e+08
3.183131e+10 -1.001773e+11 4.682930e+08
-3.140306e+10 -9.362132e+10 -4.750738e+08
3.158178e+10 -9.408067e+10 -4.291951e+08
8.256366e+10 -6.155695e+10 -7.981579e+07
1.026338e+11 -3.467613e+08 -7.240196e+07
-1.134543e+10 -9.834515e+10 -1.657430e+07
-3.884079e+10 -9.248535e+10 -5.188565e+08
1.069390e+11 -2.796102e+09 -4.434981e+08
6.727906e+10 8.328434e+10 4.206265e+08
8.011624e+10 6.745367e+10 -1.245590e+09
-7.235047e+10 7.885104e+10 -4.225178e+08
8.956304e+10 5.919850e+10 -7.900185e+08
-1.323614e+10 -1.022956e+11 1.909703e+09
-1.401877e+10 -1.038478e+11 7.013685e+08
1.330853e+10 -1.017408e+11 6.570466e+08
1.407472e+10 -1.031579e+11 -5.711597e+08
-1.172594e+10 -1.002389e+11 -2.800699e+08
-5.406731e+10 -8.915707e+10 1.617530e+09
9.146803e+10 -4.372554e+10 1.021815e+09
-9.112910e+10 -4.336635e+10 1.138262e+09
-3.061394e+10 -9.503900e+10 -6.528161e+08
-7.114001e+10 -7.627437e+10 -2.448218e+09
7.168478e+10 -7.510363e+10 -1.547747e+09
9.728590e+10 -2.978466e+10 1.116630e+09
-9.842421e+10 -3.481029e+10 2.620811e+08
-6.527465e+10 -7.638978e+10 -7.535577e+07
8.800230e+10 -4.976161e+10 -3.223005e+07
-1.387156e+10 -9.775864e+10 -1.220435e+08
1.049546e+11 -1.555053e+10 -1.506084e+09
1.010153e+11 -1.276903e+10 -5.812699e+07
-7.712286e+10 -6.371308e+10 1.345184e+09
1.020135e+11 -6.465427e+09 -1.150403e+08
-9.848593e+10 -2.749922e+10 1.657380e+09
-1.014201e+11 -1.155845e+10 -1.980635e+09
-1.028860e+11 1.207770e+10 -2.026624e+09
-9.021317e+10 4.863570e+10 -2.283675e+09
-1.514688e+10 1.005236e+11 2.341092e+09
-6.342450e+10 8.070319e+10 -2.021151e+09
-8.971800e+09 -1.001242e+11 -2.370583e+08
5.531631e+08 1.006067e+11 -2.499350e+09
-6.911339e+10 7.400618e+10 2.428137e+09
2.721311e+10 9.791645e+10 3.026026e+09
5.350369e+10 8.756946e+10 -1.804682e+09
6.433577e+10 7.818545e+10 -2.422172e+09
4.495546e+10 9.027924e+10 2.567021e+09
1.435215e+10 1.012481e+11 1.934787e+09
-1.006167e+11 2.201816e+10 2.034743e+09
4.470907e+10 9.169482e+10 -2.023752e+09
-9.587589e+10 3.644292e+10 1.684506e+09
-1.104774e+10 -9.918262e+10 -2.090327e+08
7.334795e+10 7.104481e+10 2.570545e+09
5.833044e+10 8.456038e+10 2.049762e+09
7.841471e+10 6.510897e+10 2.433177e+09
8.436474e+10 5.605814e+10 2.416461e+09
7.977516e+10 6.501753e+10 -2.037397e+09
3.574799e+10 9.558147e+10 -1.769546e+09
-4.875276e+10 9.054446e+10 -3.088074e+09
8.574145e+10 5.597326e+10 -1.708970e+09
-7.763503e+10 6.664127e+10 1.382677e+09
-8.285721e+09 1.012073e+11 1.907016e+09
-8.453740e+09 -9.834589e+10 -1.651096e+09
9.228278e+10 4.366043e+10 2.168600e+09
9.758109e+10 2.912320e+10 -2.596301e+09
-6.014330e+09 1.026161e+11 -2.326746e+09
3.789660e+10 9.542527e+10 2.110404e+09
-5.625041e+10 8.717206e+10 1.987239e+09
2.718044e+10 9.894993e+10 -2.028935e+09
-9.782965e+10 2.934698e+10 -2.566550e+09
-3.801971e+10 9.464941e+10 1.830541e+09
-5.979796e+10 8.184733e+10 2.242582e+09
6.469961e+10 7.992000e+10 2.119293e+09
-8.084159e+09 -9.937517e+10 2.821440e+08
-8.293269e+10 6.039602e+10 2.111629e+09
-7.679170e+10 6.561514e+10 -2.353994e+09
6.927344e+10 7.381106e+10 -2.418920e+09
-2.366299e+10 9.913243e+10 1.849821e+09
-9.165027e+10 4.731749e+10 1.908319e+09
9.049835e+10 4.847554e+10 -1.732443e+09
-6.972704e+10 7.593261e+10 -2.109104e+09
-2.992240e+10 9.752262e+10 -2.536886e+09
-8.540479e+10 5.899379e+10 -1.974326e+09
-1.517539e+10 1.004963e+11 -2.203303e+09
-7.803518e+09 -1.013921e+11 -1.367069e+09
-5.440021e+10 8.846898e+10 -1.988921e+09
-1.028350e+11 -1.315636e+09 2.142524e+09
1.069440e+10 -1.032029e+11 -7.981505e+08
3.053784e+10 -9.336931e+10 1.211736e+08
9.874958e+10 -2.616932e+10 1.568780e+09
-6.010172e+10 -8.543738e+10 5.536147e+08
-7.727415e+10 -6.410683e+10 -5.704686e+08
1.523320e+10 -1.031799e+11 1.539191e+09
9.186786e+09 -1.038127e+11 1.378737e+09
1.001386e+11 -1.733638e+10 2.203465e+07
-8.952648e+09 -9.921272e+10 -4.830200e+08
4.604589e+10 -8.955714e+10 6.770398e+07
-4.584227e+10 -8.986263e+10 -2.239359e+08
7.772215e+09 -9.875834e+10 6.664618e+08
-9.439343e+09 -1.000385e+11 -9.479013e+07
-1.013118e+11 -2.381093e+10 -3.321220e+08
-9.027006e+10 5.202965e+10 -3.191540e+08
-7.612178e+10 7.099081e+10 -3.737293e+08
-9.732384e+10 4.276513e+10 -7.747719e+08
-1.039579e+11 6.688336e+09 3.704187e+08
-1.044977e+11 2.997177e+09 -1.559943e+09
4.974923e+10 -8.695001e+10 -1.308699e+09
-6.146330e+09 -9.861518e+10 1.512806e+09
-8.123124e+10 6.473209e+10 -1.162095e+09
-1.004438e+11 2.633306e+10 -1.219686e+09
6.245861e+10 8.225176e+10 -1.111836e+09
-5.149378e+10 8.851635e+10 -1.244132e+09
6.883327e+10 7.770931e+10 -1.155254e+09
-1.150528e+10 1.022885e+11 9.897930e+08
-6.745671e+10 7.812210e+10 1.114707e+09
4.935255e+10 9.132197e+10 1.159700e+09
7.703028e+10 6.965756e+10 1.186178e+09
-9.282231e+10 4.399915e+10 1.419561e+09
-6.243389e+09 -1.017519e+11 -1.837987e+08
-5.842426e+10 8.549914e+10 1.166115e+09
-2.766949e+09 1.036676e+11 -1.042168e+09
-7.287117e+10 7.228207e+10 1.384652e+09
4.263538e+10 9.466946e+10 -1.150042e+09
8.814777e+10 5.380917e+10 1.078682e+09
-1.874630e+10 1.022211e+11 -1.175815e+09
3.150372e+10 9.903371e+10 1.216725e+09
-3.382808e+10 9.797403e+10 -1.179079e+09
-8.726816e+10 5.409097e+10 1.382926e+09
-8.088064e+10 -6.073204e+10 2.393853e+09
-5.795040e+09 -9.989323e+10 -2.278392e+08
9.727813e+10 -3.116454e+10 1.116488e+09
-5.389540e+10 -8.856283e+10 5.914423e+08
-1.034453e+11 1.228028e+10 -5.707456e+08
5.184178e+09 1.043868e+11 -8.341044e+08
-1.038770e+11 -6.560837e+09 -1.138307e+08
9.328605e+10 4.926087e+10 2.149971e+08
5.628232e+10 8.822677e+10 6.313011e+08
2.273011e+09 1.068048e+11 -1.557253e+08
3.797779e+10 9.714752e+10 3.217810e+08
-1.053739e+11 -1.031961e+10 7.239163e+07
-4.835217e+09 -9.959496e+10 1.408896e+09
-4.337294e+10 9.528283e+10 -3.699111e+08
-1.077932e+11 -2.759233e+09 5.444251e+08
-1.000019e+11 -2.926534e+10 -2.670990e+08
1.004256e+11 -3.235451e+09 1.118792e+09
9.390626e+10 3.803580e+10 -2.670705e+08
8.312362e+10 6.033224e+10 1.875551e+08
1.976946e+10 9.938816e+10 4.271917e+08
-9.838066e+10 -1.650602e+10 4.116757e+08
9.454565e+10 -3.948439e+10 5.356694e+08
2.478064e+10 -1.014056e+11 -1.922323e+09
-4.568143e+09 -1.010603e+11 -1.578844e+08
1.753859e+10 -1.050029e+11 1.410366e+09
9.958643e+10 1.890162e+10 1.358155e+09
-9.840829e+10 -2.703779e+10 -2.400592e+09
-1.034103e+11 4.594963e+08 -2.256585e+09
-9.612618e+10 3.482628e+10 1.377133e+09
-8.351144e+10 5.753682e+10 2.728928e+09
-2.209281e+10 1.000957e+11 -2.510277e+09
-3.650849e+10 9.482610e+10 -2.521498e+09
4.080280e+08 1.030519e+11 1.778591e+09
7.433963e+10 7.172208e+10 -2.494007e+09
-4.441129e+09 -9.988608e+10 4.389345e+08
-4.562284e+10 9.170854e+10 -1.423954e+09
1.070375e+10 1.017724e+11 -1.361627e+09
-4.548505e+10 9.077895e+10 1.287931e+09
9.168055e+10 4.298238e+10 -2.498900e+09
-3.099595e+10 9.780584e+10 1.313551e+09
1.535223e+10 1.011922e+11 -2.028126e+09
9.076977e+10 4.680564e+10 -2.123278e+09
3.777079e+10 9.310019e+10 -2.567035e+09
5.528850e+10 8.494198e+10 2.913976e+09
-9.814730e+10 2.916608e+10 2.398377e+09
-4.631557e+09 -9.924045e+10 -3.885239e+08
-1.024524e+11 -7.976881e+09 -1.900715e+09
5.485760e+10 8.635631e+10 -2.033943e+09
-5.980386e+10 8.288848e+10 -2.343948e+09
4.750400e+09 1.027595e+11 1.531926e+09
-1.022365e+11 1.595822e+10 2.365151e+09
-9.972620e+10 1.889025e+10 1.993197e+09
-1.016928e+11 1.093066e+10 2.544898e+09
-1.024046e+11 -7.181718e+09 1.031455e+09
1.525651e+10 -1.011796e+11 9.893471e+08
8.454428e+10 -6.114432e+10 4.327059e+08
-2.147440e+09 -1.002659e+11 -4.813773e+08
1.042716e+11 1.564071e+09 -4.460868e+08
1.017698e+11 -1.198757e+10 2.951810e+09
3.337684e+10 -9.935762e+10 -9.470948e+08
-1.679348e+10 -9.726678e+10 6.560096e+08
6.627151e+10 -7.659876e+10 -1.713623e+09
1.002914e+11 -1.489606e+10 -1.184569e+09
-2.135627e+10 1.015219e+11 -2.394660e+09
-3.654124e+10 9.763781e+10 -2.887934e+09
2.187622e+10 1.018855e+11 -1.501658e+09
-5.328717e+10 8.805974e+10 -2.144927e+09
-1.003173e+09 -1.021207e+11 1.958311e+07
-6.688204e+10 8.141271e+10 2.894740e+09
-5.616686e+10 8.714706e+10 2.389239e+09
6.668396e+10 7.941772e+10 -2.406086e+09
9.691757e+10 3.286889e+10 -3.990016e+08
7.985539e+10 6.768089e+10 2.339111e+09
3.484666e+10 9.880789e+10 2.360611e+09
-8.276893e+10 6.250915e+10 -2.425800e+09
-1.018898e+11 2.336190e+10 -2.354651e+09
5.169356e+10 9.003432e+10 2.435763e+09
4.015900e+10 9.571201e+10 -2.467815e+09
-3.423435e+09 -9.975243e+10 7.808768e+08
9.126147e+10 5.258159e+10 2.899204e+09
8.233824e+10 6.260261e+10 5.489348e+08
6.162501e+10 8.544886e+10 -2.891346e+09
-5.768607e+09 1.036268e+11 -2.451329e+09
-8.859354e+09 1.049851e+11 2.912946e+09
8.653789e+10 -6.120071e+10 -1.119536e+09
1.034547e+11 2.621115e+09 7.831570e+08
-1.028004e+11 3.530380e+09 3.046797e+09
-9.271297e+10 4.420221e+10 -2.826850e+09
-7.279366e+10 7.254703e+10 -2.699731e+09
4.629498e+10 -8.907637e+10 -1.231871e+08
1.829117e+09 -1.008793e+11 2.798290e+08
-1.007964e+11 -2.046668e+10 -3.020593e+09
8.452058e+10 5.973573e+10 -1.752638e+09
9.692859e+10 3.739902e+10 2.289748e+09
9.515002e+10 3.965219e+10 2.580213e+09
2.461737e+10 9.965402e+10 -2.301865e+09
-1.015360e+11 -2.026841e+10 2.084721e+09
-8.720522e+10 5.447419e+10 -2.668891e+09
-5.528405e+10 -8.931795e+10 1.313143e+09
-3.930089e+10 -9.315099e+10 6.856031e+08
4.043322e+10 -9.259883e+10 2.214209e+08
-4.264427e+07 -1.008193e+11 -1.181284e+07
-6.119182e+10 -8.423645e+10 -1.898357e+08
9.806813e+10 -2.778428e+10 9.715464e+07
-7.344126e+10 -6.798617e+10 5.594782e+08
2.063964e+10 -1.032139e+11 -6.573240e+07
-4.189192e+10 -9.496274e+10 4.598212e+08
5.422078e+10 -8.909973e+10 -1.358885e+09
-8.946544e+10 -5.599583e+10 4.889335e+09
-2.846172e+10 -9.728928e+10 1.540993e+09
5.251405e+10 -8.553895e+10 9.157962e+08
9.565336e+10 -3.737189e+10 2.071605e+08
-6.114547e+07 -1.010923e+11 -6.629942e+06
-4.426370e+10 -9.110551e+10 6.184612e+07
-2.615002e+10 -9.665534e+10 6.214162e+07
5.100001e+10 -8.964298e+10 2.834098e+08
-5.093716e+10 -9.075337e+10 -9.856045e+08
-9.208525e+10 5.476379e+10 4.812838e+08
-9.721196e+10 4.383883e+10 4.453681e+08
-7.744535e+10 7.402332e+10 4.990182e+08
-1.037858e+11 -2.160267e+10 -6.108495e+08
-1.049984e+11 4.658879e+09 -3.947265e+07
4.951986e+10 -8.564525e+10 -2.955185e+08
-9.217940e+07 -1.021800e+11 5.526575e+08
-4.862019e+10 -8.533051e+10 -1.684891e+09
6.806416e+10 -7.993406e+10 -4.264594e+08
6.231951e+10 -7.856572e+10 -1.020176e+09
8.380057e+10 -6.099926e+10 1.939052e+09
1.024720e+11 4.739507e+08 -1.870336e+09
9.849456e+10 4.013364e+10 6.866010e+08
9.833927e+10 3.576516e+10 9.084992e+08
8.528286e+10 6.208723e+10 -1.012582e+09
1.026629e+11 -1.545231e+10 -8.923226e+08
1.036521e+11 -1.378501e+10 1.933932e+07
-2.151958e+08 -1.028023e+11 4.486267e+08
6.783940e+10 -7.949311e+10 -3.295572e+09
-1.917048e+10 -9.764617e+10 4.388733e+08
1.021037e+11 1.682473e+10 -3.358623e+09
-9.782380e+10 -3.878224e+10 1.137434e+08
9.448386e+10 4.470240e+10 -1.158701e+09
8.624104e+10 5.628061e+10 1.693053e+09
1.556329e+10 1.034155e+11 -1.019228e+09
-1.036218e+11 -1.076436e+10 2.118618e+09
1.881781e+10 -1.039935e+11 -1.469765e+08
-8.554609e+10 -6.000850e+10 5.981736e+08
7.721666e+07 -1.036395e+11 2.308166e+08
-8.100680e+10 -6.529027e+10 8.010022e+08
-1.932997e+10 -9.689251e+10 -5.322333e+08
-5.653512e+10 8.877105e+10 -7.959483e+08
-2.399664e+10 1.008828e+11 -1.864606e+09
9.149039e+10 5.052830e+10 7.915000e+08
-6.778024e+09 1.046237e+11 5.161643e+08
-3.882488e+10 9.605080e+10 -1.852522e+09
-6.872477e+10 7.660960e+10 1.957120e+09
3.734511e+10 9.609886e+10 -1.950791e+09
5.786929e+10 8.527488e+10 -2.009692e+09
4.328877e+08 -1.028543e+11 1.417104e+08
6.383457e+10 8.090161e+10 -1.989622e+09
-1.029838e+11 -2.266148e+09 -2.092823e+09
3.643242e+10 9.694069e+10 1.894292e+09
5.346704e+10 8.984139e+10 7.435136e+08
8.089421e+10 6.644111e+10 1.124582e+09
-9.085107e+10 4.960725e+10 1.873362e+09
-8.355468e+09 1.031256e+11 -1.828719e+09
-6.324062e+10 8.148951e+10 1.951782e+09
-8.389954e+10 6.005266e+10 -1.914009e+09
-1.007211e+11 2.091341e+10 -2.027554e+09
3.523598e+08 -1.021523e+11 3.963226e+08
-5.316999e+10 8.721919e+10 2.072404e+09
-8.533419e+10 5.768167e+10 1.004193e+09
3.197742e+10 -1.009610e+11 -5.605181e+08
4.582683e+10 -9.304778e+10 7.794789e+08
4.760797e+10 -8.898465e+10 -1.210527e+09
-4.700423e+10 -8.750105e+10 -1.305574e+09
2.716728e+10 -9.685427e+10 1.024765e+09
8.804179e+10 -4.751466e+10 3.948818e+08
-8.815626e+10 -4.796555e+10 8.309655e+08
-9.670966e+10 3.380246e+10 1.668624e+09
3.057743e+08 -1.010168e+11 -8.174499e+07
-4.473241e+10 9.241329e+10 -1.609484e+09
8.626009e+09 1.018968e+11 -1.952313e+09
3.609747e+09 1.006479e+11 -1.592731e+09
-4.145063e+10 9.349830e+10 -1.767524e+09
1.174233e+10 1.018222e+11 -1.622943e+09
6.309889e+10 -7.455598e+10 6.020074e+07
5.343660e+10 -8.533417e+10 1.332554e+09
-8.862654e+10 -4.813650e+10 5.420493e+08
2.324050e+10 -1.116904e+11 -1.056528e+08
6.488745e+10 -7.850035e+10 -1.077893e+09
2.295037e+08 -1.007485e+11 -7.010381e+07
-7.336744e+09 -9.884845e+10 -3.402613e+07
-6.952057e+10 -7.531017e+10 1.059775e+09
6.846254e+10 -7.397275e+10 8.740728e+08
-8.610541e+10 5.051495e+10 6.727315e+08
7.910003e+10 5.950760e+10 9.217930e+07
-9.736111e+10 -1.852894e+10 3.784110e+08
9.396648e+10 3.228773e+10 1.400611e+08
-9.071432e+10 4.099744e+10 -7.538047e+08
-7.237119e+10 6.835137e+10 6.977207e+08
2.220865e+10 9.864935e+10 3.779193e+08
5.079271e+10 -8.626571e+10 1.213967e+09
-9.218794e+10 -4.930744e+10 4.532514e+08
-9.608149e+10 -2.157933e+10 1.846551e+07
-9.827158e+10 5.342181e+09 -3.375149e+07
-5.489222e+10 -8.964199e+10 1.824151e+09
9.987738e+10 2.510393e+10 -1.190941e+08
-7.775987e+10 -7.332468e+10 -3.874560e+08
7.219369e+10 -6.762758e+10 1.714379e+09
1.022934e+11 1.367150e+10 -3.249925e+08
1.022833e+11 -9.817765e+09 3.901664e+08
7.651807e+10 -6.554244e+10 -1.008752e+09
-9.016882e+10 4.482226e+10 1.373702e+09
9.323044e+10 -4.971346e+10 1.859790e+08
-8.453808e+10 5.457063e+10 1.417037e+09
-7.013543e+10 7.217309e+10 1.416909e+09
-9.930911e+10 2.213100e+09 -1.600815e+09
6.765124e+10 -7.321734e+10 1.262166e+09
1.010787e+11 5.682029e+09 -4.447092e+08
7.917853e+10 -6.193766e+10 -8.374910e+08
1.011962e+11 -2.007936e+09 1.731063e+08
3.959868e+10 -9.673164e+10 1.863274e+09
1.009451e+11 -2.717574e+10 -5.502258e+08
-5.443432e+10 -8.184610e+10 -1.275893e+09
5.387649e+10 -8.742906e+10 -3.490060e+08
-8.942902e+09 -1.069411e+11 -6.889844e+08
-5.538629e+10 -8.653397e+10 4.774888e+08
1.146945e+10 -1.053762e+11 4.697578e+08
-3.228443e+10 -1.000186e+11 -1.440209e+09
3.389834e+10 -9.922943e+10 -2.275225e+09
-6.453474e+10 7.585120e+10 1.564724e+09
4.827184e+10 8.777501e+10 1.535618e+09
8.544502e+10 5.127542e+10 1.593045e+09
-1.882500e+10 9.825973e+10 -1.496348e+09
-5.545490e+10 8.271474e+10 1.455613e+09
-5.407402e+10 -8.830635e+10 -2.621271e+07
-3.753439e+09 9.972189e+10 -1.509575e+09
-1.021197e+10 9.896889e+10 1.617120e+09
5.967648e+10 7.974766e+10 -1.578673e+09
4.045542e+10 9.156779e+10 -1.550662e+09
6.583086e+10 7.540632e+10 -1.540277e+09
-7.867737e+10 6.180281e+10 -1.540641e+09
-2.823045e+10 -9.436302e+10 1.218645e+09
2.823008e+10 -9.473120e+10 1.724847e+09
1.051841e+11 -1.259731e+10 -1.089832e+09
-2.780186e+10 -1.011198e+11 -2.340484e+09
-2.792597e+10 -9.851119e+10 -5.881661e+08
9.966771e+10 -2.721682e+10 -7.532033e+08
9.766668e+10 -2.907911e+10 1.325113e+09
1.023233e+11 -9.484289e+09 2.707347e+09
-9.886681e+10 3.234502e+10 1.464231e+07
-2.784783e+10 1.013355e+11 6.616091e+08
1.416256e+10 1.031005e+11 -2.212560e+08
-1.031652e+11 1.748577e+10 1.494125e+09
-8.749313e+10 6.275450e+10 -2.032555e+08
-6.445157e+10 8.183225e+10 -1.133980e+08
5.878174e+10 8.581459e+10 1.725597e+08
2.716655e+10 -9.843816e+10 -2.175937e+09
9.297235e+10 4.598499e+10 -5.122784e+08
-3.990969e+10 9.616543e+10 -7.795096e+08
-9.900699e+10 3.696632e+10 8.996962e+06
-4.803918e+10 9.251529e+10 -9.702623e+08
7.268156e+10 7.496295e+10 -6.531872e+08
-2.504874e+10 1.002929e+11 4.640885e+08
9.300857e+09 1.039022e+11 -4.537496e+08
-1.018279e+11 2.177446e+10 4.471795e+07
-4.206561e+10 -9.354380e+10 1.958344e+09
2.716418e+10 -9.858799e+10 -8.223927e+08
1.424014e+10 -1.006079e+11 6.021340e+08
1.023629e+11 -1.353591e+10 8.326189e+08
1.036901e+11 1.362684e+10 9.045879e+08
-6.825873e+09 1.022473e+11 -7.100115e+08
-5.596360e+10 8.732704e+10 1.578476e+09
-8.328844e+10 -5.924236e+10 -1.658742e+09
1.003230e+11 8.884590e+09 -8.396859e+08
-7.976870e+10 -6.293282e+10 -1.459694e+09
-8.601352e+10 5.728448e+10 -7.803505e+08
-3.713350e+10 9.591140e+10 1.019453e+09
9.051511e+10 5.099616e+10 -1.050813e+09
-1.338094e+10 -1.001028e+11 5.034477e+08
3.461069e+10 9.668521e+10 -8.951616e+08
-2.171894e+10 1.005986e+11 9.709006e+08
5.246347e+10 8.964552e+10 -1.078582e+09
2.329149e+10 1.013041e+11 2.501744e+08
-1.031808e+11 -2.064158e+10 3.544146e+08
1.029686e+11 1.279179e+10 -1.874064e+09
1.079678e+11 -9.710653e+09 1.277865e+09
-1.053496e+10 -1.007811e+11 1.393683e+09
8.991141e+10 -4.442432e+10 -1.374217e+08
-8.887169e+10 -4.418670e+10 8.486769e+07
-3.347262e+10 -9.406790e+10 -1.010675e+09
-2.067479e+10 -1.014667e+11 8.278685e+07
9.229272e+10 3.567212e+10 -3.498783e+08
9.257893e+10 3.721160e+10 -1.603401e+09
-9.831444e+10 -1.654788e+10 -4.872605e+06
9.331995e+10 3.386293e+10 -3.972141e+08
1.963070e+10 9.531158e+10 -3.696049e+08
8.117852e+10 5.893424e+10 4.964449e+08
9.115937e+10 -3.640120e+10 4.983508e+08
2.442764e+10 -1.057510e+11 1.838709e+08
3.494782e+10 -9.962975e+10 -3.659732e+08
-3.723134e+10 -9.480667e+10 2.015945e+09
-3.134261e+10 -9.976933e+10 -3.397859e+07
9.077029e+10 -5.280402e+10 1.721522e+08
-1.755605e+10 -9.981677e+10 3.474692e+08
-8.425092e+10 -5.935534e+10 -1.627339e+09
7.799592e+10 -6.534903e+10 1.721364e+09
1.022827e+11 -2.195207e+10 -1.694110e+08
-8.069967e+10 -6.437724e+10 -2.037841e+09
9.988336e+10 -2.407335e+10 4.122892e+08
-3.530039e+10 -9.312291e+10 3.142913e+08
5.734773e+10 -8.781081e+10 1.099596e+09
4.740252e+10 -8.785955e+10 8.147599e+07
-4.284673e+10 -9.100290e+10 -8.072309e+08
-1.026664e+11 -1.221360e+10 -1.063829e+09
1.682591e+10 1.025422e+11 1.270646e+09
9.404577e+10 4.232454e+10 1.003709e+09
1.072450e+11 1.613895e+10 2.535647e+09
1.022117e+11 -1.490587e+10 -1.565719e+09
-4.432199e+10 -9.256902e+10 3.061927e+08
8.149808e+09 -1.038473e+11 3.407238e+09
-6.474514e+10 -7.717307e+10 -1.366034e+09
6.525601e+10 -7.549702e+10 3.653771e+08
1.994013e+10 -1.025325e+11 1.351474e+09
-4.926805e+10 -8.694365e+10 -2.373792e+09
9.859081e+10 -3.159444e+10 1.167132e+09
1.060894e+11 1.458558e+10 1.349098e+09
-8.900151e+10 -4.776123e+10 2.860769e+09
7.939289e+10 -6.823293e+10 2.005052e+09
1.039506e+11 -1.397237e+10 2.774611e+08
9.183443e+10 4.722204e+10 2.259595e+09
9.132190e+10 4.705738e+10 -1.224810e+09
-2.648512e+10 9.808876e+10 -5.948976e+08
-2.589598e+10 9.967500e+10 2.054067e+09
-1.030812e+11 -8.519884e+09 1.342950e+09
3.358303e+10 -9.416393e+10 -1.073904e+09
-1.014212e+11 -7.547864e+09 -2.278396e+09
8.213725e+10 -6.455496e+10 -1.709856e+08
2.647992e+10 -9.946021e+10 2.464742e+07
3.646907e+10 -9.430848e+10 -1.350132e+08
1.019127e+11 2.405415e+10 1.186913e+09
1.009289e+10 -1.045778e+11 -6.664674e+08
9.522830e+10 -3.547918e+10 1.906223e+08
-9.393421e+10 -3.632886e+10 1.850990e+09
5.881955e+10 -7.948926e+10 1.179110e+08
-2.166233e+10 -1.030284e+11 5.514314e+07
3.845415e+10 -9.392927e+10 -4.671570e+08
-1.023704e+11 -1.665317e+10 1.786730e+08
2.009078e+10 1.035392e+11 4.219992e+07
-7.651094e+10 -7.030685e+10 -6.470523e+08
7.681700e+10 -7.221857e+10 -1.096579e+09
1.038909e+11 -2.591858e+09 1.820290e+09
-4.518410e+10 -9.182915e+10 -1.260053e+09
-2.068206e+10 -1.033375e+11 -4.610080e+08
1.012103e+11 -1.039033e+09 3.170415e+08
1.017764e+11 1.531694e+10 -1.116915e+09
8.251891e+10 -5.793461e+10 3.789549e+08
4.309126e+10 -9.067443e+10 -8.856888e+08
1.008338e+11 3.349302e+09 -5.719555e+08
4.360328e+10 -8.756614e+10 2.345966e+08