# vtk DataFile Version 2.0
Electric current density generated by TTH
ASCII
DATASET UNSTRUCTURED_GRID
POINTS 4559 double
3.404020e-05 -8.337445e-21 -2.301598e-22
3.362799e-05 5.281410e-06 -2.301598e-22
-4.844426e-06 3.369372e-05 -2.301598e-22
-1.107743e-05 3.168209e-05 -8.180949e-07
-3.321979e-05 4.182885e-06 -8.587293e-07
2.815577e-05 1.829020e-05 8.111173e-07
2.815577e-05 -1.829020e-05 -8.111173e-07
-2.679552e-05 -1.802343e-05 -4.807458e-07
-8.268199e-06 -3.121667e-05 -4.807458e-07
-3.247643e-05 7.233694e-06 9.238640e-07
-1.142736e-06 3.353423e-05 -8.231948e-07
2.501248e-05 2.238113e-05 -8.174646e-07
2.501248e-05 -2.238113e-05 8.174646e-07
-5.426877e-06 3.360483e-05 -2.301598e-22
-1.611479e-05 2.947041e-05 -8.030159e-07
-2.299272e-05 2.447743e-05 -8.064417e-07
-2.347979e-05 2.279581e-05 -8.615699e-07
-3.019822e-05 1.317599e-05 9.271622e-07
-1.459124e-05 2.883687e-05 5.206904e-07
1.076948e-05 3.053958e-05 -6.066130e-07
3.247941e-05 8.511704e-06 -8.103993e-07
3.247941e-05 -8.511704e-06 8.103993e-07
-2.312309e-05 -2.434013e-05 -8.125037e-07
-3.353908e-05 -1.103646e-06 8.212388e-07
-6.007703e-06 3.350586e-05 -2.301598e-22
-4.175962e-06 3.189834e-05 1.348342e-07
-2.081592e-05 -2.475895e-05 5.610601e-07
1.569974e-05 -2.830100e-05 5.836099e-07
1.562069e-05 2.835511e-05 -5.949268e-07
-3.135299e-05 -7.958566e-06 5.619103e-07
7.550829e-06 3.145372e-05 -5.619666e-07
5.015759e-06 3.322601e-05 -7.944000e-07
-2.983736e-05 1.283249e-05 -7.055735e-07
-3.280523e-05 7.208853e-06 -8.033832e-07
5.463590e-06 3.206636e-05 7.455402e-07
-6.586729e-06 3.339686e-05 -2.301598e-22
8.768813e-06 3.126947e-05 7.019083e-07
-3.316042e-05 -5.507712e-06 7.865273e-07
8.584192e-06 -3.251404e-05 -7.775895e-07
-3.150744e-05 6.449701e-06 1.057018e-09
-1.760126e-05 2.788423e-05 9.312468e-07
-2.103647e-05 2.539294e-05 9.312469e-07
-1.810626e-05 -2.689094e-05 6.464528e-07
-1.061053e-05 -3.063311e-05 6.466484e-07
-2.547399e-05 -2.004372e-05 6.418026e-07
-3.130798e-05 7.429687e-06 -1.762292e-07
-7.163781e-06 3.327785e-05 -2.301598e-22
-3.198928e-05 -5.887671e-06 -7.440743e-07
3.258907e-05 -8.408044e-06 -7.577493e-07
3.258907e-05 8.408044e-06 7.577493e-07
3.087514e-05 -1.310824e-05 8.292520e-07
3.087514e-05 1.310824e-05 -8.292520e-07
2.192244e-05 -2.465490e-05 -9.333873e-07
2.192244e-05 2.465490e-05 9.333873e-07
-3.203063e-05 -4.329977e-06 -5.262373e-07
-2.772970e-05 1.676482e-05 -6.304052e-07
-7.957409e-06 3.141144e-05 -6.304561e-07
-7.738687e-06 3.314888e-05 -2.301598e-22
-1.212959e-05 3.004782e-05 -6.304561e-07
3.206804e-05 -1.009103e-05 7.841857e-07
3.206804e-05 1.009103e-05 -7.841857e-07
6.008426e-06 3.194024e-05 -7.231740e-07
-3.109812e-05 -8.327410e-06 -2.467049e-07
-3.185953e-05 -6.422528e-06 7.231590e-07
-2.212376e-05 -2.380794e-05 7.231590e-07
3.074673e-05 1.213252e-05 9.385417e-07
3.074673e-05 -1.213252e-05 -9.385417e-07
-3.186749e-05 5.939759e-06 -6.441504e-07
-8.311275e-06 3.300997e-05 -2.301598e-22
-4.503072e-06 3.336706e-05 -7.478145e-07
1.204094e-05 -3.142054e-05 7.632283e-07
-3.178235e-05 -5.152887e-06 -2.595635e-07
3.150884e-05 8.317181e-06 -7.876832e-07
3.150884e-05 -8.317181e-06 7.876832e-07
2.123087e-06 3.245527e-05 7.425720e-07
2.601311e-05 -1.948104e-05 7.220619e-07
2.601311e-05 1.948104e-05 -7.220619e-07
3.190485e-05 -6.083395e-06 -7.053793e-07
3.190485e-05 6.083395e-06 7.053793e-07
-8.881373e-06 3.286117e-05 -2.301598e-22
2.930263e-05 -1.374947e-05 5.887119e-07
2.930263e-05 1.374947e-05 -5.887119e-07
1.247586e-05 -3.003377e-05 -7.404460e-07
9.294189e-06 3.107150e-05 -6.601759e-07
3.792586e-06 3.237654e-05 7.939988e-07
2.138287e-06 3.246314e-05 -7.493506e-07
-3.230331e-05 2.633271e-06 -6.378646e-07
-2.263294e-05 -2.301789e-05 -4.601139e-07
1.914398e-05 -2.761131e-05 -7.967291e-07
1.842139e-05 -2.815520e-05 -7.650539e-07
-9.448809e-06 3.270253e-05 -2.301598e-22
1.914398e-05 2.761131e-05 7.967291e-07
1.842139e-05 2.815520e-05 7.650539e-07
8.805753e-07 3.360502e-05 7.853164e-07
-2.430128e-06 -3.218991e-05 4.607451e-07
-2.962468e-05 -1.282476e-05 4.607451e-07
-1.361156e-05 -2.927151e-05 4.607451e-07
-2.813554e-05 -1.582678e-05 4.607451e-07
-5.754089e-06 -3.176455e-05 4.607451e-07
9.200203e-07 -3.226840e-05 4.607455e-07
6.028712e-06 -3.171354e-05 4.606837e-07
-1.001342e-05 3.253409e-05 -2.301598e-22
3.161358e-05 -1.152381e-05 7.634228e-07
3.161358e-05 1.152381e-05 -7.634228e-07
-3.246067e-05 -8.108993e-07 -6.974954e-07
-3.244000e-05 -2.565581e-06 7.551983e-07
7.226877e-06 -3.275155e-05 8.308989e-07
2.453821e-05 2.160806e-05 -8.482098e-07
2.453821e-05 -2.160806e-05 8.482098e-07
4.108541e-07 3.255199e-05 -7.648582e-07
-2.443280e-05 2.304940e-05 8.026057e-07
2.315258e-05 2.272867e-05 -6.726548e-07
3.353155e-05 5.862658e-06 -2.301598e-22
-1.057502e-05 3.235590e-05 -2.301598e-22
2.315258e-05 -2.272867e-05 6.726548e-07
2.120330e-05 2.465545e-05 -7.379931e-07
2.120330e-05 -2.465545e-05 7.379931e-07
-3.330384e-05 -5.050567e-06 -7.360969e-07
1.401362e-05 -2.937376e-05 -7.581762e-07
2.680341e-05 -2.031807e-05 7.735629e-07
2.680341e-05 2.031807e-05 -7.735629e-07
3.266464e-05 -4.742765e-06 9.350511e-07
3.266464e-05 4.742765e-06 -9.350511e-07
-8.028563e-07 3.221270e-05 -3.354029e-07
-1.113346e-05 3.216802e-05 -2.301598e-22
3.258543e-05 -2.042581e-06 8.243346e-07
3.258543e-05 2.042581e-06 -8.243346e-07
-3.133351e-05 1.218434e-05 7.836047e-07
1.386774e-06 3.367010e-05 -7.247438e-07
-3.240836e-05 8.908310e-06 7.893215e-07
-3.217391e-05 9.796862e-06 7.746679e-07
2.746990e-05 1.766083e-05 8.286240e-07
2.746990e-05 -1.766083e-05 -8.286240e-07
4.371963e-08 -3.353740e-05 8.319406e-07
-2.889396e-05 -1.704260e-05 8.275672e-07
-1.168856e-05 3.197050e-05 -2.301598e-22
-1.351793e-05 -3.070142e-05 8.275672e-07
-3.170763e-05 -1.092661e-05 8.318979e-07
-6.654979e-06 -3.287891e-05 8.275672e-07
3.641692e-06 -3.334902e-05 8.267020e-07
-3.305189e-06 -3.338563e-05 8.258506e-07
-3.044479e-05 -1.409004e-05 8.267376e-07
-1.642272e-05 -2.925216e-05 8.268990e-07
-2.458661e-05 -2.282007e-05 8.280010e-07
3.307900e-05 6.152336e-06 7.649635e-07
3.307900e-05 -6.152336e-06 -7.649635e-07
-1.224016e-05 3.176340e-05 -2.301598e-22
1.024607e-05 -3.201949e-05 -7.837794e-07
-2.041394e-05 -2.487247e-05 -1.745049e-07
2.313231e-05 2.440924e-05 -7.769448e-07
2.313231e-05 -2.440924e-05 7.769448e-07
1.443386e-05 2.876306e-05 1.962327e-07
3.119660e-06 3.206284e-05 3.124040e-07
8.026875e-06 3.115910e-05 1.704615e-07
-2.840131e-05 1.695636e-05 9.394284e-07
-8.301172e-06 3.201964e-05 9.394336e-07
5.178763e-06 -3.320293e-05 -7.931840e-07
-1.278810e-05 3.154679e-05 -2.301598e-22
-1.429159e-06 -3.361945e-05 -7.624226e-07
-2.984641e-05 -1.554707e-05 -7.601689e-07
-4.930183e-06 -3.328983e-05 -7.601689e-07
2.063789e-06 -3.358647e-05 -7.624211e-07
2.971263e-05 1.582311e-05 7.525960e-07
2.971263e-05 -1.582311e-05 -7.525960e-07
3.245334e-05 -3.712170e-06 -8.326659e-07
3.245334e-05 3.712170e-06 8.326659e-07
-7.686418e-07 3.363798e-05 7.646152e-07
2.048642e-05 2.669105e-05 7.646033e-07
-1.333220e-05 3.132072e-05 -2.301598e-22
2.048642e-05 -2.669105e-05 -7.646033e-07
1.832786e-05 -2.829261e-05 7.149935e-07
1.832786e-05 2.829261e-05 -7.149935e-07
3.022718e-05 -1.470693e-05 -7.862565e-07
3.022718e-05 1.470693e-05 7.862565e-07
-3.207266e-05 5.071385e-06 6.978056e-07
-1.207006e-05 3.131676e-05 8.184180e-07
2.554044e-05 -2.101540e-05 -9.393545e-07
2.554044e-05 2.101540e-05 9.393545e-07
-2.602107e-05 -2.133945e-05 -7.607236e-07
-1.387231e-05 3.108528e-05 -2.301598e-22
-1.822677e-05 -2.828875e-05 -7.607236e-07
-1.165514e-05 -3.156938e-05 -7.607236e-07
3.033724e-05 1.308150e-05 9.375815e-07
3.033724e-05 -1.308150e-05 -9.375815e-07
-3.245278e-05 -9.023126e-06 -7.367352e-07
-1.090507e-05 -3.028702e-05 -2.341317e-07
-2.505456e-05 -2.021122e-05 -2.341317e-07
-1.765264e-05 -2.691855e-05 -2.341317e-07
-3.364306e-05 -1.892445e-06 -7.267242e-07
2.639042e-05 -1.869707e-05 5.553454e-07
-1.440826e-05 3.084052e-05 -2.301598e-22
2.639042e-05 1.869707e-05 -5.553454e-07
-2.122758e-05 2.450613e-05 -6.497226e-07
1.083506e-05 -3.046260e-05 5.410035e-07
2.513765e-05 -2.235538e-05 -7.692454e-07
2.459595e-05 -2.304911e-05 -7.170087e-07
2.513765e-05 2.235538e-05 7.692454e-07
2.459595e-05 2.304911e-05 7.170087e-07
-3.218512e-05 4.885560e-08 -2.125670e-07
-3.098528e-05 9.898697e-06 7.451817e-07
-3.061748e-05 1.384369e-05 -7.948469e-07
-1.493989e-05 3.058652e-05 -2.301598e-22
-1.972746e-05 -2.722796e-05 7.807585e-07
-2.005885e-05 -2.710480e-05 -7.067230e-07
3.188125e-05 -6.755386e-06 7.883542e-07
3.188125e-05 6.755386e-06 -7.883542e-07
-1.691012e-05 2.790323e-05 -8.118726e-07
3.343846e-05 -3.504973e-06 7.819472e-07
3.343846e-05 3.504973e-06 -7.819472e-07
-3.138471e-06 3.285014e-05 9.342792e-07
3.018892e-05 -1.154846e-05 -5.268686e-07
3.018892e-05 1.154846e-05 5.268686e-07
-1.546705e-05 3.032335e-05 -2.301598e-22
-6.321355e-06 -3.310216e-05 -7.233477e-07
-2.921406e-05 -1.680034e-05 -7.233477e-07
1.892678e-05 -2.609232e-05 3.636543e-07
1.892678e-05 2.609232e-05 -3.636543e-07
2.232950e-05 -2.329295e-05 -4.342043e-07
2.232950e-05 2.329295e-05 4.342043e-07
-2.609196e-05 2.125017e-05 7.618871e-07
-2.814599e-05 1.844356e-05 7.618703e-07
-9.893970e-06 -3.212061e-05 7.896604e-07
-3.282465e-05 -7.222630e-06 7.896604e-07
3.342505e-05 6.442150e-06 -2.301598e-22
-1.598958e-05 3.005110e-05 -2.301598e-22
-2.209540e-05 -2.537348e-05 7.655110e-07
-2.684991e-05 -2.027499e-05 7.657946e-07
7.284677e-06 3.284747e-05 -7.654781e-07
-2.436118e-05 2.326305e-05 -7.362967e-07
-2.903794e-05 1.692616e-05 -7.889647e-07
-8.775086e-06 3.244527e-05 -7.889550e-07
-1.208031e-05 3.136501e-05 -7.889550e-07
-7.053822e-06 3.291046e-05 7.565272e-07
-1.689618e-05 2.907990e-05 -7.748474e-07
-2.241015e-05 2.507488e-05 -7.764454e-07
-1.650731e-05 2.976985e-05 -2.301598e-22
2.430915e-05 -2.323944e-05 7.760145e-07
2.430915e-05 2.323944e-05 -7.760145e-07
-3.172181e-05 1.144227e-05 7.044871e-07
-1.719823e-05 2.724399e-05 3.234562e-07
-2.051864e-05 2.484417e-05 3.331663e-07
-1.372057e-05 2.942713e-05 -6.955057e-07
2.648366e-05 -1.899371e-05 -7.893054e-07
[...]
POINT_DATA 4559
VECTORS 10.000GHz_fone_imag double
7.980922e-05 3.345263e-05 1.830086e-02
3.938999e-05 -1.687050e-04 1.812161e-02
5.164880e-05 -1.632148e-05 1.823961e-02
-5.654330e-03 1.615326e-02 9.133030e-03
-1.783545e-02 2.290754e-03 7.794389e-03
-1.398313e-02 -9.228957e-03 9.460105e-03
1.396595e-02 -9.256084e-03 9.453933e-03
-9.364905e-03 -6.499499e-03 -1.884656e-02
-3.048315e-03 -1.093485e-02 -1.900390e-02
1.927454e-02 -4.238822e-03 3.342295e-03
-4.023312e-04 1.721369e-02 8.849507e-03
1.297426e-02 1.117950e-02 8.900508e-03
-1.267133e-02 1.122828e-02 9.006025e-03
4.043290e-05 -2.230448e-04 1.839838e-02
-7.705900e-03 1.498251e-02 9.137806e-03
-1.160477e-02 1.220894e-02 9.325212e-03
-1.379344e-02 1.341925e-02 -9.108655e-03
1.859583e-02 -8.328957e-03 -4.343073e-03
5.868505e-03 -1.106312e-02 -1.855757e-02
4.384648e-03 1.346201e-02 -1.721742e-02
1.654162e-02 4.452902e-03 9.229586e-03
-1.653477e-02 4.473514e-03 9.257853e-03
-1.162427e-02 -1.239960e-02 9.259330e-03
1.704144e-02 5.351353e-04 8.651317e-03
-9.867797e-07 -4.411609e-05 1.824231e-02
6.215704e-04 -3.464995e-03 -2.267151e-02
8.267491e-03 1.005975e-02 -1.787848e-02
-6.831570e-03 1.208059e-02 -1.754949e-02
7.049482e-03 1.219876e-02 -1.735761e-02
1.247578e-02 3.357956e-03 -1.784863e-02
3.294578e-03 1.258370e-02 -1.802966e-02
2.417374e-03 1.602793e-02 9.899043e-03
-1.483649e-02 6.139032e-03 -1.481852e-02
-1.661444e-02 3.496920e-03 9.384466e-03
-2.839896e-03 -1.714457e-02 -1.320696e-02
1.544629e-04 1.546483e-04 1.836221e-02
-4.685795e-03 -1.533262e-02 -1.496406e-02
1.587742e-02 3.075154e-03 9.920074e-03
4.226706e-03 -1.547401e-02 1.007248e-02
-6.364526e-05 3.121327e-05 -2.288650e-02
1.087378e-02 -1.727045e-02 -3.509725e-03
1.305213e-02 -1.574799e-02 -3.444557e-03
8.408714e-03 1.247182e-02 -1.636881e-02
4.987310e-03 1.430252e-02 -1.638297e-02
1.198125e-02 9.239274e-03 -1.627118e-02
-3.805903e-03 8.318164e-04 -2.257063e-02
-5.759240e-05 4.445167e-04 1.847590e-02
-1.708026e-02 -3.085577e-03 -1.319589e-02
1.542617e-02 -4.079747e-03 1.053065e-02
-1.541592e-02 -3.993237e-03 1.059092e-02
-1.601314e-02 6.809152e-03 8.664565e-03
1.602695e-02 6.775156e-03 8.735429e-03
1.374732e-02 -1.525009e-02 -3.335546e-03
-1.373138e-02 -1.528765e-02 -3.322679e-03
-1.218412e-02 -1.725656e-03 -1.871697e-02
-1.267244e-02 7.439730e-03 -1.654245e-02
-3.827168e-03 1.413615e-02 -1.660727e-02
-2.054083e-04 2.529571e-04 1.837788e-02
-5.355522e-03 1.349551e-02 -1.660167e-02
-1.576600e-02 5.211721e-03 9.701922e-03
1.572602e-02 5.157658e-03 9.934388e-03
2.670984e-03 1.642020e-02 -1.441860e-02
-5.122873e-03 -1.440195e-03 -2.188606e-02
1.625108e-02 3.213045e-03 -1.448842e-02
1.098030e-02 1.217252e-02 -1.437564e-02
-1.895889e-02 -7.431459e-03 -1.791004e-03
1.896800e-02 -7.468196e-03 -1.763540e-03
-1.457906e-02 2.862459e-03 -1.639324e-02
5.485948e-05 2.903057e-05 1.828600e-02
-2.249696e-03 1.570362e-02 1.100114e-02
-5.959612e-03 1.466488e-02 1.053502e-02
-5.838017e-03 -1.093827e-03 -2.200524e-02
1.713990e-02 4.682232e-03 -1.243417e-02
-1.713358e-02 4.743348e-03 -1.241188e-02
-1.240171e-03 -1.691853e-02 -1.346846e-02
-1.332471e-02 9.881045e-03 -1.431549e-02
1.322335e-02 9.864881e-03 -1.437737e-02
1.621339e-02 -2.897561e-03 -1.461610e-02
-1.589566e-02 -3.350688e-03 -1.474452e-02
4.271429e-05 3.177021e-04 1.823106e-02
-1.242612e-02 5.640615e-03 -1.778103e-02
1.247196e-02 5.614965e-03 -1.774587e-02
6.579364e-03 -1.587973e-02 -1.355199e-02
4.488909e-03 1.469692e-02 -1.608548e-02
-2.026927e-03 -1.731175e-02 -1.236048e-02
1.192230e-03 1.714688e-02 -1.366755e-02
-1.449836e-02 1.390887e-03 -1.698044e-02
-7.350909e-03 -7.675739e-03 -1.964515e-02
9.068868e-03 -1.346199e-02 9.921554e-03
8.736501e-03 -1.316900e-02 1.058467e-02
-2.674268e-04 4.589822e-05 1.828684e-02
-9.069987e-03 -1.345859e-02 9.912440e-03
-8.728173e-03 -1.316539e-02 1.057640e-02
-6.446684e-04 -1.625410e-02 9.938185e-03
6.780350e-04 1.099367e-02 -1.949965e-02
1.018808e-02 4.276589e-03 -1.964125e-02
4.742999e-03 9.528762e-03 -1.947867e-02
9.352730e-03 4.840491e-03 -1.950917e-02
1.331657e-03 1.028384e-02 -1.962262e-02
-6.227511e-04 1.049559e-02 -1.948816e-02
-1.897267e-03 1.052867e-02 -1.939129e-02
5.211960e-05 1.724220e-04 1.827878e-02
-1.492892e-02 5.467062e-03 1.076280e-02
1.487942e-02 5.488098e-03 1.079180e-02
-1.612703e-02 -3.616708e-04 -1.515432e-02
1.725566e-02 1.274945e-03 -1.325788e-02
-3.925656e-03 1.720678e-02 8.360371e-03
1.444266e-02 1.256173e-02 -1.004695e-02
-1.439304e-02 1.261630e-02 -9.809958e-03
5.170015e-04 1.766115e-02 -1.302354e-02
1.204231e-02 -1.153067e-02 9.618649e-03
1.103323e-02 1.091027e-02 -1.575430e-02
-2.056706e-04 8.036051e-05 1.830062e-02
-2.826768e-04 2.408081e-04 1.844896e-02
-1.117976e-02 1.096720e-02 -1.557381e-02
1.091425e-02 1.272363e-02 -1.410030e-02
-1.087573e-02 1.271467e-02 -1.416260e-02
-1.512198e-02 -2.454277e-03 1.124095e-02
7.494080e-03 -1.574370e-02 -1.318576e-02
-1.271055e-02 1.014750e-02 1.010608e-02
1.278564e-02 9.752998e-03 1.025543e-02
-2.020331e-02 2.844756e-03 -2.815937e-03
2.021589e-02 2.820460e-03 -2.756939e-03
-5.019315e-04 7.932523e-03 -2.115947e-02
1.930794e-06 -3.734264e-05 1.827694e-02
-1.861445e-02 9.998447e-04 -1.058920e-02
1.868869e-02 9.537738e-04 -1.090453e-02
1.564465e-02 -6.414320e-03 9.473906e-03
3.801804e-04 1.494504e-02 1.165402e-02
1.580108e-02 -4.008849e-03 1.011230e-02
1.582531e-02 -4.673539e-03 1.016394e-02
-1.596797e-02 -9.710014e-03 -1.069278e-02
1.591264e-02 -9.865752e-03 -1.070445e-02
-2.421023e-05 1.744323e-02 8.650107e-03
1.508258e-02 8.684065e-03 8.877859e-03
2.082319e-05 -3.340027e-05 1.835030e-02
6.939759e-03 1.576828e-02 9.061366e-03
1.650323e-02 5.766404e-03 8.843098e-03
3.237651e-03 1.704262e-02 8.894284e-03
-1.666565e-03 1.729815e-02 8.668695e-03
1.420418e-03 1.728902e-02 8.669123e-03
1.592399e-02 7.126417e-03 8.700182e-03
8.558483e-03 1.504134e-02 8.799943e-03
1.271907e-02 1.168267e-02 8.856100e-03
-1.605443e-02 -3.264641e-03 1.041996e-02
1.578192e-02 -3.076824e-03 1.048224e-02
-1.716652e-04 -2.447744e-05 1.835046e-02
4.799850e-03 -1.581987e-02 9.945074e-03
-2.500437e-03 -3.066001e-03 -2.224524e-02
1.118397e-02 1.232417e-02 9.672246e-03
-1.116390e-02 1.232445e-02 9.656023e-03
-1.951521e-03 -3.557520e-03 -2.245334e-02
-3.617789e-04 -7.401409e-03 -2.130589e-02
-9.471056e-04 -3.789144e-03 -2.232482e-02
1.762873e-02 -1.032174e-02 -8.602483e-04
5.343205e-03 -1.968503e-02 -8.677947e-04
2.489057e-03 -1.654011e-02 9.887447e-03
2.951106e-05 -1.767662e-04 1.842257e-02
-9.410767e-04 -1.562292e-02 1.099434e-02
-1.385270e-02 -7.265619e-03 1.117575e-02
-1.958986e-03 -1.571153e-02 1.083562e-02
9.491990e-04 -1.624053e-02 1.085337e-02
-1.370073e-02 -7.375705e-03 1.088234e-02
1.367680e-02 -7.364224e-03 1.090154e-02
1.844629e-02 -1.996789e-03 -1.115226e-02
-1.843194e-02 -1.979468e-03 -1.115323e-02
5.434674e-04 -1.627325e-02 1.042692e-02
-9.909790e-03 -1.294683e-02 1.043382e-02
-4.432841e-05 -2.448153e-04 1.841552e-02
9.913388e-03 -1.293770e-02 1.044780e-02
-7.791740e-03 1.247219e-02 1.167551e-02
7.776449e-03 1.247685e-02 1.168263e-02
1.485810e-02 -7.186486e-03 1.005329e-02
-1.500279e-02 -7.052912e-03 9.717341e-03
1.575155e-02 -2.458175e-03 -1.514689e-02
6.261261e-03 -1.596961e-02 8.899323e-03
1.573952e-02 -1.288915e-02 -1.602599e-03
-1.565501e-02 -1.286240e-02 -1.320095e-03
-1.203941e-02 -9.893911e-03 1.083891e-02
1.383789e-04 -8.790091e-05 1.846531e-02
-8.403592e-03 -1.309036e-02 1.086843e-02
-5.453531e-03 -1.467315e-02 1.079936e-02
-1.893256e-02 -7.925766e-03 -2.331368e-03
1.892329e-02 -7.923101e-03 -2.307547e-03
-1.469938e-02 -4.122197e-03 1.137387e-02
-2.107429e-03 -5.188169e-03 -2.208750e-02
-4.281074e-03 -3.438901e-03 -2.216693e-02
-2.753902e-03 -4.842933e-03 -2.208428e-02
-1.509258e-02 -8.466656e-04 1.145716e-02
-1.063054e-02 7.531304e-03 -1.786762e-02
3.021510e-04 -2.893155e-04 1.841846e-02
1.065316e-02 7.517928e-03 -1.780710e-02
-9.915798e-03 1.146656e-02 -1.583921e-02
-4.432453e-03 1.180083e-02 -1.834280e-02
1.197266e-02 -1.062572e-02 1.043744e-02
1.104473e-02 -1.026896e-02 1.176724e-02
-1.199772e-02 -1.099503e-02 1.027730e-02
-1.096130e-02 -1.032303e-02 1.190970e-02
-5.128791e-03 -2.007508e-04 -2.160537e-02
1.603698e-02 -5.063938e-03 -1.376419e-02
-1.511038e-02 6.804956e-03 9.682678e-03
-1.437393e-05 8.256694e-05 1.827052e-02
9.503458e-03 1.315374e-02 1.025233e-02
-8.619298e-03 -1.185426e-02 1.205710e-02
-1.742120e-02 3.637401e-03 -1.214958e-02
1.740131e-02 3.663611e-03 -1.203790e-02
-9.256886e-03 1.559485e-02 -1.152902e-02
-1.633511e-02 1.626473e-03 1.026292e-02
1.620782e-02 1.599285e-03 1.020357e-02
1.987124e-03 -2.037527e-02 -2.917933e-03
1.154172e-02 -4.198225e-03 -1.875689e-02
-1.152668e-02 -4.204858e-03 -1.874086e-02
1.889305e-05 -2.331333e-04 1.828586e-02
-2.916782e-03 -1.489749e-02 1.156605e-02
-1.309958e-02 -7.502588e-03 1.154532e-02
-4.900989e-03 6.862991e-03 -2.056694e-02
4.895020e-03 6.868916e-03 -2.056969e-02
7.093655e-03 -7.445120e-03 -2.031119e-02
-7.128707e-03 -7.434819e-03 -2.028516e-02
1.216663e-02 -9.985113e-03 1.089864e-02
1.347958e-02 -8.862659e-03 1.067240e-02
4.754828e-03 1.586795e-02 9.948072e-03
1.591458e-02 3.436185e-03 9.828601e-03
-2.530857e-04 -2.869149e-05 1.825859e-02
1.646267e-04 1.184183e-04 1.830312e-02
1.028463e-02 1.206053e-02 1.053581e-02
1.243697e-02 9.703865e-03 1.067079e-02
3.675088e-03 1.544355e-02 1.060771e-02
-1.104053e-02 1.059051e-02 1.146083e-02
-1.397728e-02 8.101266e-03 9.841849e-03
-4.333569e-03 1.554216e-02 9.935857e-03
-5.661623e-03 1.519445e-02 1.014326e-02
3.222896e-03 -1.557239e-02 1.075291e-02
-8.146839e-03 1.399834e-02 1.026847e-02
-1.096580e-02 1.247159e-02 9.799465e-03
-6.076746e-05 2.023153e-04 1.841546e-02
-1.189881e-02 1.148623e-02 9.728148e-03
1.148664e-02 1.122136e-02 1.038398e-02
1.381740e-02 -4.657409e-03 1.204187e-02
4.181065e-03 -6.465881e-03 -2.111856e-02
4.952602e-03 -6.212855e-03 -2.105377e-02
-6.749057e-03 1.422634e-02 -1.542784e-02
1.457166e-02 -1.034244e-02 -1.220458e-02
-1.438156e-02 -1.042041e-02 -1.249195e-02
3.718709e-03 -8.112350e-03 -2.042288e-02
1.276633e-02 8.437814e-03 -1.564319e-02
-4.095150e-05 -1.072291e-04 1.841682e-02
-1.274896e-02 8.357762e-03 -1.570333e-02
1.539385e-02 -3.099104e-03 1.077492e-02
-1.534025e-02 -3.125520e-03 1.084692e-02
9.634937e-03 1.531368e-02 -1.185391e-02
-9.565363e-03 1.531088e-02 -1.172843e-02
1.846337e-02 6.559857e-03 -9.089672e-03
-1.844872e-02 6.581933e-03 -9.088524e-03
-1.831753e-02 6.072220e-03 -8.203425e-03
-1.052793e-02 -1.043560e-02 -1.642913e-02
5.349336e-03 -4.610579e-03 -2.141863e-02
-6.901478e-05 1.974174e-04 1.829816e-02
-1.145206e-03 -6.462750e-03 -2.193074e-02
9.472789e-03 -1.715190e-02 -7.770503e-03
-8.937757e-03 -1.671475e-02 -9.798006e-03
6.713251e-03 1.506279e-02 9.961318e-03
-6.419406e-03 1.468852e-02 1.031153e-02
7.273074e-04 -2.571015e-04 -2.289527e-02
-6.202839e-03 -1.420984e-02 1.121309e-02
4.940290e-05 1.449084e-02 1.206876e-02
1.039271e-02 8.455812e-03 -1.800377e-02
-1.017365e-02 8.382815e-03 -1.815171e-02
2.627619e-05 1.352736e-04 1.825832e-02
1.457226e-02 -4.942178e-03 -1.550458e-02
1.282532e-02 -9.674170e-03 1.048489e-02
1.308744e-02 -9.255398e-03 1.063888e-02
1.499875e-02 -7.676420e-04 1.135187e-02
9.076470e-03 -1.310233e-02 1.064078e-02
9.676787e-03 -1.275447e-02 1.069808e-02
6.821823e-03 -1.388846e-02 1.101221e-02
5.090718e-03 1.372110e-02 1.195926e-02
1.835757e-02 -2.015817e-03 -1.082449e-02
1.556671e-02 1.814335e-03 1.059577e-02
-1.979569e-04 2.893708e-04 1.834213e-02
1.302925e-02 8.156772e-03 1.106735e-02
-1.300337e-02 8.215826e-03 1.107229e-02
-1.606494e-02 7.838840e-04 1.057734e-02
2.820789e-03 -1.566016e-02 1.091635e-02
-3.777783e-04 -1.476048e-02 -1.634565e-02
1.261493e-02 -1.931550e-03 -1.849988e-02
-1.266175e-02 -1.876265e-03 -1.849348e-02
2.229227e-03 -1.552518e-02 1.089812e-02
-1.118515e-02 -1.056790e-02 1.110526e-02
1.406877e-02 7.215773e-03 1.071897e-02
-1.543878e-04 -1.319977e-04 1.838287e-02
1.348573e-02 7.090628e-03 1.138217e-02
-1.410527e-02 7.205758e-03 1.068633e-02
-1.351498e-02 7.104101e-03 1.132525e-02
1.812850e-02 2.986141e-03 -1.150054e-02
1.318140e-02 5.944460e-03 1.204571e-02
-1.325739e-02 5.897678e-03 1.208690e-02
-1.554937e-02 -4.460755e-03 -1.474425e-02
1.555696e-02 -4.414894e-03 -1.484127e-02
-5.682164e-03 -4.001330e-04 -2.197034e-02
1.444902e-03 -1.423226e-02 1.236955e-02
7.192679e-05 -5.249807e-05 1.834533e-02
7.539736e-03 4.149226e-05 -2.144822e-02
-7.509626e-03 7.839016e-05 -2.123969e-02
1.289017e-02 -1.253506e-02 -1.225554e-02
-1.298925e-02 -1.254006e-02 -1.217022e-02
1.627607e-02 -8.027375e-03 -1.250734e-02
1.585682e-02 -8.929468e-03 -1.174320e-02
5.394195e-03 -1.725245e-02 -1.206414e-02
5.869811e-03 -1.721237e-02 -1.200769e-02
4.651150e-03 1.492928e-02 1.074582e-02
4.697215e-03 -1.433381e-02 1.168729e-02
9.748454e-05 -3.084048e-04 1.852262e-02
4.346737e-03 -1.483801e-02 1.109807e-02
1.354519e-02 -7.415057e-03 1.099476e-02
-1.409769e-02 5.038065e-03 1.207545e-02
1.407138e-02 -6.906056e-03 1.122835e-02
7.104632e-03 9.381470e-04 -2.144368e-02
-1.062127e-02 -1.107583e-02 1.127712e-02
-1.078237e-02 -1.154318e-02 1.056804e-02
1.065109e-02 -1.105708e-02 1.131687e-02
1.080805e-02 -1.153008e-02 1.057797e-02
5.822464e-03 -1.434294e-02 1.104477e-02
3.738903e-05 4.601938e-05 1.837690e-02
-1.673161e-02 -1.259897e-03 -1.426120e-02
-1.311233e-02 -8.376039e-03 -1.489943e-02
-3.622121e-03 -1.519364e-02 -1.488676e-02
-1.375201e-02 1.396859e-02 -7.338666e-03
-8.775746e-04 1.855900e-02 -1.062277e-02
8.790050e-03 1.254509e-02 1.119439e-02
1.285709e-02 -1.245766e-02 -1.222167e-02
1.180216e-02 9.627609e-03 1.139011e-02
-1.197496e-02 9.173001e-03 1.159400e-02
4.157486e-03 -1.506900e-02 -1.563536e-02
2.034426e-05 -1.586797e-04 1.835408e-02
1.148897e-04 1.435863e-04 1.839989e-02
-9.624716e-03 -1.100318e-02 1.194647e-02
-3.034162e-04 -6.776834e-04 -2.270752e-02
-3.886331e-04 -6.140829e-04 -2.286126e-02
-4.132648e-04 -5.347740e-04 -2.293162e-02
2.160339e-03 1.578421e-02 -1.522824e-02
6.271594e-03 -1.293652e-02 1.209840e-02
-1.397267e-02 -4.343203e-03 1.154882e-02
1.391724e-02 -4.288318e-03 1.160149e-02
-1.510510e-02 -1.925714e-03 1.138290e-02
1.525970e-02 -2.286519e-03 1.121337e-02
-1.906014e-04 3.037934e-04 1.834181e-02
-8.765719e-04 1.444250e-02 1.218898e-02
2.181363e-03 1.430970e-02 1.216143e-02
1.330967e-02 5.369615e-03 1.234037e-02
6.308483e-03 1.287918e-02 1.220975e-02
1.252798e-02 6.788395e-03 1.220019e-02
5.308414e-04 1.423103e-02 1.225890e-02
-2.371276e-03 1.426232e-02 1.220140e-02
-6.387137e-03 1.558131e-02 -1.402296e-02
1.465189e-02 -6.631894e-03 1.061718e-02
1.745155e-03 -4.745845e-03 -2.206685e-02
-1.526846e-04 1.232260e-04 1.827141e-02
1.146398e-02 -7.902885e-03 1.267828e-02
-1.144255e-02 -7.959484e-03 1.270748e-02
7.198798e-03 -1.295923e-02 1.188151e-02
1.461009e-02 -5.437946e-03 1.086062e-02
-1.466804e-02 -5.424490e-03 1.088561e-02
-3.938236e-03 1.395872e-02 1.202699e-02
3.893800e-03 -1.430320e-02 1.175145e-02
1.280137e-02 -7.477707e-03 1.169968e-02
-7.520438e-03 1.545220e-02 -1.302063e-02
-1.414427e-03 1.675488e-02 -1.416445e-02
-2.103301e-04 2.037361e-04 1.839151e-02
3.794642e-03 -1.494477e-02 -1.591192e-02
-1.270203e-02 6.662076e-03 1.218684e-02
2.862022e-03 1.472435e-02 1.169052e-02
1.008126e-02 1.116108e-02 1.159984e-02
1.360916e-02 3.391527e-03 1.230550e-02
4.919969e-03 1.456430e-02 1.128988e-02
1.234397e-02 9.026974e-03 1.156553e-02
-6.092143e-05 4.089388e-04 -2.241102e-02
-1.071717e-04 -9.403221e-04 -2.281186e-02
9.138934e-05 -1.458395e-04 -2.280242e-02
-7.964889e-05 2.151695e-04 1.842475e-02
-5.544803e-04 -6.095495e-04 -2.281224e-02
1.304949e-02 6.408569e-03 -1.680735e-02
-1.303812e-02 6.424987e-03 -1.675703e-02
1.368989e-02 3.263083e-03 1.267997e-02
-1.374218e-02 3.252430e-03 1.270970e-02
-1.079997e-02 -5.473391e-03 -1.874803e-02
1.076776e-02 -5.454183e-03 -1.879559e-02
1.400003e-02 -2.557047e-03 1.222877e-02
1.147621e-02 -8.455134e-03 1.224485e-02
-1.149172e-02 -8.586957e-03 1.219573e-02
-4.205868e-05 -8.108750e-05 1.841404e-02
8.492183e-03 -1.313809e-02 1.098609e-02
9.879905e-03 -1.214374e-02 1.102958e-02
-2.187950e-04 -8.629923e-03 -2.078042e-02
-9.705082e-03 -1.078728e-02 -1.662615e-02
9.692409e-03 -1.079339e-02 -1.662032e-02
-6.068691e-03 1.346247e-02 1.203745e-02
5.050936e-03 1.673623e-02 -1.310101e-02
1.408091e-02 1.009674e-02 -1.348782e-02
-1.393736e-02 1.526434e-03 1.257182e-02
1.402851e-02 1.135570e-03 1.250333e-02
-2.229145e-04 3.244416e-04 1.832245e-02
1.397014e-02 2.629066e-03 1.256371e-02
1.651099e-02 2.691791e-03 9.710907e-03
-1.389550e-02 2.564527e-03 1.264136e-02
-1.650370e-02 2.809735e-03 9.698243e-03
-4.585748e-03 1.353176e-02 1.248760e-02
3.542431e-03 1.418894e-02 1.214885e-02
1.156062e-02 7.976784e-03 1.267316e-02
7.541799e-03 1.211382e-02 1.234221e-02
1.101236e-02 9.404369e-03 1.207504e-02
1.379357e-02 4.189511e-03 1.226484e-02
-3.489612e-04 1.872387e-04 1.825776e-02
5.233273e-03 1.332881e-02 1.229694e-02
1.026030e-02 1.014386e-02 1.220774e-02
2.958848e-03 -1.733983e-02 -1.270471e-02
-2.475473e-03 1.371211e-02 1.265981e-02
-1.154597e-02 7.959070e-03 1.262964e-02
8.309732e-03 -1.416707e-02 -1.455012e-02
-8.341418e-03 -1.419276e-02 -1.451945e-02
-1.095120e-02 8.461015e-03 1.282301e-02
1.531153e-02 -7.428707e-03 -1.354298e-02
-1.532938e-02 -7.547544e-03 -1.351814e-02
-1.155092e-04 -4.547213e-04 1.824731e-02
-7.835074e-03 1.136541e-02 1.269359e-02
-8.575220e-03 1.125551e-02 1.246507e-02
1.371755e-02 -1.044812e-02 -1.329638e-02
1.402466e-02 -9.993706e-03 -1.332770e-02
9.807002e-03 -1.417251e-02 -1.332193e-02
1.034796e-02 -1.367810e-02 -1.346944e-02
1.659043e-02 6.220335e-04 -1.476400e-02
-9.790135e-03 -1.148377e-02 1.140105e-02
-1.498140e-02 -3.020705e-05 1.153507e-02
1.960201e-02 -5.046489e-03 -3.536601e-03
3.294426e-04 1.223038e-04 1.822986e-02
6.109584e-03 -1.365821e-02 1.150147e-02
-8.711663e-03 1.787017e-02 -7.561379e-03
-1.157849e-03 -1.445447e-02 1.190479e-02
-1.413222e-02 -2.898943e-03 1.200480e-02
9.603993e-03 1.172910e-02 1.120630e-02
-9.584745e-03 1.170764e-02 1.120077e-02
-2.657662e-03 -1.445977e-02 1.166856e-02
-4.411790e-03 -1.390693e-02 1.171247e-02
-5.075713e-03 -1.423201e-02 1.105072e-02
-3.703787e-03 -1.434027e-02 1.179480e-02
-4.284947e-05 2.842195e-04 1.829015e-02
-7.833942e-06 -8.887931e-06 1.843448e-02
-2.082912e-03 -1.430467e-02 1.183773e-02
-8.696268e-03 1.195988e-02 1.131267e-02
8.694967e-03 1.196664e-02 1.132121e-02
1.132465e-02 -9.140676e-03 1.234687e-02
-1.142229e-02 -9.183866e-03 1.230682e-02
8.634129e-03 1.124529e-02 1.237647e-02
2.420390e-03 -1.776051e-02 -1.189084e-02
1.662766e-03 -1.533261e-02 1.126840e-02
1.364001e-02 -6.175857e-03 1.150855e-02
-1.369490e-02 -6.245205e-03 1.165489e-02
9.928112e-05 5.702682e-05 1.833910e-02
-2.050237e-03 3.599797e-03 -2.257032e-02
-1.331210e-02 -1.410507e-02 -8.985151e-03
1.391799e-02 -4.413837e-04 1.203873e-02
-1.427151e-02 4.118322e-03 1.207870e-02
-9.886726e-03 -8.556893e-03 -1.814721e-02
1.019875e-02 -8.911514e-03 -1.803609e-02
-2.906115e-03 1.871116e-02 -9.585683e-03
1.677763e-02 -5.622419e-03 -1.241518e-02
-1.677758e-02 -5.618460e-03 -1.242293e-02
-1.113793e-02 1.002673e-02 1.172796e-02
-1.746122e-04 1.771757e-04 1.835133e-02
-1.363247e-02 -1.718416e-03 1.274931e-02
1.849054e-02 -1.427814e-03 -1.080905e-02
1.509863e-02 -2.903958e-03 -1.558317e-02
-8.211353e-03 -1.672064e-02 -1.134890e-02
-4.431319e-03 1.689905e-02 -1.337977e-02
1.491251e-02 6.115083e-04 1.144519e-02
-1.099531e-02 -8.450536e-03 -1.738745e-02
1.084312e-02 -8.690115e-03 -1.746826e-02
-5.962452e-03 -1.765752e-02 -1.069302e-02
-9.439962e-03 -1.729341e-02 -7.921160e-03
-2.901617e-04 1.356909e-04 1.836793e-02
-1.847863e-02 -6.630682e-03 -7.855355e-03
-1.066633e-02 -1.506921e-02 -1.125711e-02
-1.461967e-02 -1.139379e-02 -1.091920e-02
-6.017704e-03 -1.738315e-02 -1.089632e-02
1.027511e-02 9.099896e-03 1.280288e-02
5.494686e-04 -1.779116e-02 -1.248176e-02
-2.598841e-03 1.313384e-02 1.313436e-02
1.322859e-02 4.255689e-03 1.299188e-02
5.302599e-03 1.267666e-02 1.286759e-02
1.196255e-02 7.439892e-03 1.278266e-02
4.305070e-06 -4.741746e-04 1.833576e-02
3.143324e-03 1.365600e-02 1.272562e-02
1.561290e-02 -1.324200e-02 -2.963149e-03