# vtk DataFile Version 2.0
Electric current density generated by TTH
ASCII
DATASET UNSTRUCTURED_GRID
POINTS 1200 double
1.206935e-05 -2.956137e-21 -5.868458e-22
8.879707e-06 8.174346e-06 -5.868458e-22
-5.764089e-06 -4.723119e-06 8.979583e-07
5.662109e-06 -9.835225e-06 -1.712967e-06
8.448109e-06 -6.703138e-07 2.074565e-06
8.423593e-06 6.716890e-07 2.060316e-06
5.985790e-06 -8.251858e-06 -2.338674e-06
2.461286e-06 -1.173841e-05 -5.974141e-07
-7.435002e-06 -8.516581e-06 1.754219e-06
-6.290269e-07 -1.195358e-05 -6.824015e-07
7.203120e-06 2.853444e-06 1.425686e-06
7.203120e-06 -2.853444e-06 1.425686e-06
-5.053966e-06 -6.785426e-06 -2.066475e-06
-5.629597e-06 4.835636e-06 8.178806e-07
1.077564e-05 5.267887e-06 5.946911e-07
1.077564e-05 -5.267887e-06 5.946911e-07
4.903107e-06 6.487696e-06 -1.834433e-06
5.180787e-06 -5.502645e-06 -1.124679e-06
5.253625e-06 5.431321e-06 -1.122208e-06
-9.542649e-06 5.629734e-06 1.939953e-06
1.310307e-06 1.086071e-05 -2.034138e-06
-7.895132e-06 -8.983002e-06 7.174499e-07
-5.510057e-06 1.060759e-05 -7.366004e-07
-5.549447e-06 -6.135156e-06 -1.943881e-06
9.617848e-06 5.031004e-06 2.084782e-06
-5.325169e-06 5.981602e-06 -1.723116e-06
6.772855e-06 -2.662646e-06 1.715198e-08
6.767936e-06 2.675147e-06 1.827741e-08
-2.624371e-06 8.166114e-06 2.130657e-06
4.177218e-06 9.530466e-06 -2.281312e-06
-7.596303e-06 -2.476516e-06 -1.704797e-06
-2.281403e-06 1.174034e-05 7.157125e-07
-2.281403e-06 -1.174034e-05 7.157125e-07
-9.222929e-06 7.571256e-06 7.979349e-07
-5.448203e-06 5.285008e-06 -1.184054e-06
9.617848e-06 -5.031004e-06 2.084782e-06
8.951090e-06 -7.210111e-07 -2.293485e-06
8.951090e-06 7.210111e-07 -2.293485e-06
-1.189401e-05 1.265853e-06 7.117903e-07
-3.186203e-06 9.670625e-06 2.341372e-06
6.773568e-06 -3.517370e-06 1.255015e-06
6.773568e-06 3.517370e-06 1.255015e-06
-1.030610e-05 -6.141102e-06 -5.842013e-07
7.260607e-06 -6.513391e-06 -2.394622e-06
7.288016e-06 6.542220e-06 -2.392958e-06
2.648171e-06 9.654218e-06 -2.372096e-06
1.012148e-05 4.319113e-06 -1.992184e-06
-3.773994e-06 -7.615805e-06 2.088788e-06
1.194068e-05 8.600363e-07 6.773294e-07
1.194585e-05 -7.153566e-07 6.919648e-07
-6.691850e-06 -5.070325e-06 2.026939e-06
-4.743849e-07 1.157744e-05 1.441577e-06
-4.743849e-07 -1.157744e-05 1.441577e-06
-1.053912e-05 -3.190991e-06 -1.987417e-06
2.126361e-06 7.747926e-06 -1.747725e-06
3.079280e-06 -7.373593e-06 -1.705716e-06
-3.095693e-06 -7.368866e-06 1.707668e-06
1.012148e-05 -4.319113e-06 -1.992184e-06
1.187484e-05 -1.581339e-06 -6.493926e-07
1.187484e-05 1.581339e-06 -6.493926e-07
2.748407e-06 1.162170e-05 -7.699451e-07
-3.068872e-06 -9.653365e-06 2.352174e-06
-7.045332e-06 7.598262e-06 -2.294897e-06
-2.775874e-06 9.373686e-06 -2.393778e-06
-6.731447e-06 -8.096936e-06 -2.237758e-06
-1.111263e-05 2.562753e-06 1.656671e-06
-2.360870e-06 1.131409e-05 -1.479762e-06
7.297139e-07 -7.812531e-06 -1.550293e-06
1.938149e-06 -7.387444e-06 -1.263245e-06
1.159854e-05 7.688206e-07 -1.391318e-06
1.157224e-05 -7.042057e-07 -1.432910e-06
5.593698e-06 9.295341e-06 2.087935e-06
5.593698e-06 -9.295341e-06 2.087935e-06
1.055614e-05 -2.601940e-06 -2.074558e-06
1.055614e-05 2.601940e-06 -2.074558e-06
5.139844e-06 6.188854e-06 1.757473e-06
5.139844e-06 -6.188854e-06 1.757473e-06
3.541043e-06 6.380697e-06 3.091571e-07
3.537068e-06 -6.382397e-06 3.057483e-07
2.187498e-06 7.243795e-06 -1.141685e-06
-6.410684e-06 9.656074e-06 1.437298e-06
-4.821077e-06 7.752130e-06 2.333316e-06
-7.690307e-06 9.937585e-07 1.434471e-06
1.724968e-06 9.249062e-06 2.381300e-06
1.724968e-06 -9.249062e-06 2.381300e-06
-7.281041e-06 -7.673906e-07 -4.569775e-07
1.099091e-05 5.467993e-07 1.992184e-06
1.099091e-05 -5.467993e-07 1.992184e-06
-4.579974e-06 -9.650710e-06 2.173176e-06
-7.642491e-06 -7.699467e-06 2.088022e-06
-7.843767e-06 -1.644665e-06 1.728682e-06
-5.110992e-06 -1.081747e-05 -7.023062e-07
-6.410815e-06 -7.443229e-06 -2.391275e-06
6.423323e-06 -1.008079e-05 -7.366366e-07
3.389487e-07 7.428829e-06 -8.587223e-07
7.716614e-06 -8.535123e-06 1.543098e-06
7.716614e-06 8.535123e-06 1.543098e-06
9.242431e-06 -5.668168e-06 -2.091611e-06
9.242431e-06 5.668168e-06 -2.091611e-06
-4.640632e-06 9.632778e-06 2.168511e-06
3.005557e-06 -8.322651e-06 -2.249596e-06
-9.109770e-06 -2.248476e-07 -2.329420e-06
-8.836554e-06 -8.720097e-07 -2.260632e-06
7.259172e-06 -4.204766e-06 -2.022664e-06
7.259172e-06 4.204766e-06 -2.022664e-06
7.545632e-06 9.284411e-06 -7.027136e-07
8.016874e-06 -1.601446e-06 -1.869866e-06
8.016874e-06 1.601446e-06 -1.869866e-06
-1.245639e-06 -9.685109e-06 -2.394231e-06
-1.479769e-06 -7.792408e-06 1.645357e-06
-8.581890e-07 -9.693046e-06 2.395288e-06
-8.611342e-07 9.693183e-06 2.395278e-06
8.174346e-06 8.879707e-06 -5.868458e-22
-8.489161e-06 2.399274e-06 2.239505e-06
1.847579e-06 -1.181043e-05 7.342257e-07
1.847579e-06 1.181043e-05 7.342257e-07
-2.674075e-06 7.111129e-06 1.196089e-06
-9.579764e-06 -2.843769e-06 2.374572e-06
4.031742e-06 -7.251428e-06 -1.961120e-06
-1.041761e-05 1.336577e-06 -2.247759e-06
-1.484797e-06 1.191174e-05 -5.560783e-07
7.204811e-06 8.959311e-06 -1.554179e-06
-6.406546e-06 5.040334e-06 -1.850672e-06
-8.846861e-06 7.839487e-07 2.261351e-06
6.291208e-06 4.167261e-06 1.102699e-06
-6.096871e-06 4.322726e-06 9.500828e-07
9.205175e-06 1.867397e-06 2.379482e-06
9.172542e-06 -1.778130e-06 2.373136e-06
9.348023e-06 -4.024679e-06 2.342321e-06
9.348023e-06 4.024679e-06 2.342321e-06
-5.429888e-06 7.597342e-06 -2.372431e-06
-8.534975e-06 2.094552e-06 -2.226488e-06
-3.425780e-06 1.150699e-05 -5.468138e-07
-6.130740e-06 9.570656e-06 -1.695904e-06
-8.890736e-06 -4.380996e-06 -2.384114e-06
6.291208e-06 -4.167261e-06 1.102699e-06
-6.158354e-06 -9.464565e-06 -1.766805e-06
6.649242e-06 -6.934689e-06 -2.395072e-06
6.737345e-06 6.874161e-06 -2.395497e-06
7.044254e-06 -9.184338e-06 1.457968e-06
7.044254e-06 9.184338e-06 1.457968e-06
4.794073e-06 1.026841e-05 1.728673e-06
4.794073e-06 -1.026841e-05 1.728673e-06
-9.861378e-06 -5.625486e-06 -1.708572e-06
3.689743e-06 -1.089742e-05 1.544470e-06
3.689743e-06 1.089742e-05 1.544470e-06
2.662267e-06 -9.043051e-06 2.383259e-06
-6.473873e-06 -9.605691e-06 1.446250e-06
-6.976581e-06 9.771309e-06 -5.460373e-07
-1.119431e-06 7.874430e-06 -1.668270e-06
4.243602e-06 9.312527e-06 2.329506e-06
4.243605e-06 -9.312527e-06 2.329506e-06
4.738023e-06 -6.137925e-06 -1.434006e-06
-1.002256e-05 3.866566e-06 2.144201e-06
-9.092563e-06 7.240017e-06 -1.392808e-06
-1.642499e-06 1.137068e-05 1.563742e-06
-1.642499e-06 -1.137068e-05 1.563742e-06
2.662267e-06 9.043051e-06 2.383259e-06
-6.862117e-07 -7.913097e-06 -1.657058e-06
-7.328316e-06 -3.371340e-06 -1.777370e-06
-7.194106e-06 2.250962e-06 1.086778e-06
-8.297681e-06 7.790277e-06 1.680117e-06
-8.129956e-06 3.316726e-06 -2.223393e-06
-1.277206e-06 9.723928e-06 -2.392225e-06
6.977543e-06 9.772657e-06 -5.389158e-07
-7.641182e-06 3.920152e-06 2.136092e-06
5.193826e-06 6.729012e-06 2.089182e-06
5.193826e-06 -6.729012e-06 2.089182e-06
-7.491489e-06 3.498260e-06 -1.940550e-06
5.422201e-06 9.465712e-06 -2.052960e-06
-1.499195e-06 7.824596e-06 1.681896e-06
-7.288946e-06 1.089921e-06 6.596560e-07
1.632513e-06 -7.166258e-06 -5.848151e-07
-9.087687e-06 7.224902e-07 -2.330336e-06
-6.100523e-06 -1.032562e-05 5.995735e-07
-1.158720e-05 -2.955405e-06 7.214202e-07
-1.834581e-06 -8.637002e-06 -2.242529e-06
-2.442006e-06 -8.290246e-06 2.162842e-06
-5.545456e-06 -8.501123e-06 -2.348106e-06
-5.563044e-06 6.726016e-06 -2.201806e-06
-9.798509e-06 1.762887e-06 -2.379272e-06
-1.097662e-05 4.044486e-07 2.005687e-06
-1.744948e-06 -1.184216e-05 -6.826980e-07
-6.013905e-06 1.036139e-05 6.474522e-07
-7.307556e-06 7.889461e-08 3.816725e-07
-1.086871e-05 3.399369e-06 1.673639e-06
7.931584e-06 -1.587043e-06 1.797186e-06
7.985898e-06 1.656877e-06 1.854243e-06
-4.397557e-06 1.075617e-05 1.396342e-06
-4.397557e-06 -1.075617e-05 1.396342e-06
7.410582e-06 3.060657e-06 -1.731953e-06
-1.105028e-05 -1.838541e-06 -1.844838e-06
-6.113019e-06 6.118565e-06 -2.165980e-06
-4.336654e-06 -8.901857e-06 2.385046e-06
1.089203e-06 -1.087866e-05 -2.038117e-06
-5.642480e-06 -6.066808e-06 1.952838e-06
1.674524e-06 -1.135857e-05 -1.572243e-06
9.776006e-06 -6.979934e-06 -5.207645e-07
9.776006e-06 6.979934e-06 -5.207645e-07
-1.664214e-06 -7.765908e-06 -1.656462e-06
-1.009536e-05 -7.027076e-07 -2.354024e-06
7.410582e-06 -3.060657e-06 -1.731953e-06
-1.102871e-05 -2.758756e-06 1.693272e-06
5.938827e-06 8.128575e-06 -2.363433e-06
8.193405e-06 6.229346e-06 2.314590e-06
8.193405e-06 -6.229346e-06 2.314590e-06
-9.533416e-06 -7.232650e-06 6.944332e-07
-6.629892e-06 -3.063518e-06 3.525457e-07
-4.298533e-06 8.949289e-06 2.382400e-06
4.727422e-06 -5.544911e-06 2.099282e-07
4.769808e-06 5.505747e-06 1.848188e-07
1.021816e-05 5.283971e-06 1.546361e-06
-4.391090e-06 -7.455206e-06 -2.167505e-06
1.021816e-05 -5.283971e-06 1.546361e-06
-1.177370e-05 -2.113719e-06 -7.093587e-07
-9.664609e-06 2.706756e-06 -2.368303e-06
-1.093286e-05 -9.737771e-07 2.010844e-06
2.001374e-06 -8.296412e-06 -2.107954e-06
7.164798e-06 1.361565e-06 2.732832e-07
7.174580e-06 -1.315896e-06 2.838230e-07
1.100035e-05 -1.859744e-06 1.881802e-06
1.098421e-05 1.864810e-06 1.893582e-06
-6.371418e-06 4.091355e-06 -1.150952e-06
7.413146e-06 9.524410e-06 -5.868458e-22
-4.199051e-06 -8.202218e-06 2.351644e-06
-7.591426e-06 -1.117960e-06 1.319267e-06
-7.914992e-07 -8.901417e-06 2.279869e-06
-4.199051e-06 8.202218e-06 2.351644e-06
-8.128846e-07 8.896701e-06 2.278970e-06
1.003086e-05 -1.845270e-06 2.337572e-06
1.003086e-05 1.845270e-06 2.337572e-06
-8.550849e-06 -5.095200e-06 -2.379512e-06
-8.550849e-06 5.095200e-06 -2.379512e-06
-1.986118e-06 -9.464267e-06 -2.395978e-06
-3.503519e-06 8.774544e-06 -2.385370e-06
6.601307e-06 1.010405e-05 -5.868458e-22
-4.522301e-07 9.634759e-06 -2.395816e-06
-7.039172e-06 -6.972573e-06 2.384472e-06
-6.954204e-06 6.970856e-06 2.389716e-06
-9.021634e-06 -4.497317e-06 2.361142e-06
-7.129707e-06 -2.513378e-06 -1.128421e-06
4.526884e-06 -8.954011e-06 -2.368791e-06
4.601480e-06 8.889528e-06 -2.372233e-06
4.159498e-06 5.995616e-06 3.073327e-07
[...]
POINT_DATA 1200
VECTORS 10.000GHz_fone_imag double
4.587155e-04 7.496169e-05 2.775289e-02
3.401921e-05 -5.492598e-04 2.829613e-02
3.647462e-02 3.279760e-02 -1.107710e-01
1.305813e-02 -2.434473e-02 2.365994e-02
-7.730904e-02 3.591265e-03 -4.917640e-02
-7.723161e-02 -2.463812e-03 -4.685054e-02
3.148774e-02 -4.294925e-02 8.915386e-03
2.808868e-03 -7.799614e-03 2.953151e-02
1.921646e-02 2.056872e-02 2.184838e-02
6.399770e-04 -1.011116e-02 2.777257e-02
-5.761008e-02 -2.061361e-02 -8.983889e-02
-6.235214e-02 2.329907e-02 -9.428863e-02
-4.618496e-02 -5.686986e-02 -4.340801e-02
3.179375e-02 -1.945961e-02 -1.121698e-01
-6.994159e-03 -4.429486e-03 2.891398e-02
-7.225827e-03 3.274980e-03 3.019867e-02
3.863844e-02 5.497852e-02 -7.317741e-02
3.407414e-02 -3.923849e-02 -1.044174e-01
3.732210e-02 4.108313e-02 -1.069388e-01
3.108304e-02 -1.967246e-02 2.256863e-02
4.014923e-03 3.848367e-02 2.157162e-02
6.330644e-03 7.357182e-03 3.050829e-02
-4.794652e-03 7.262150e-03 2.961482e-02
-4.975390e-02 -5.715586e-02 -6.040432e-02
-3.341474e-02 -1.742183e-02 1.684898e-02
-4.689714e-02 5.442683e-02 -7.934238e-02
1.652817e-03 1.408855e-03 -1.173301e-01
-4.004537e-04 -2.686629e-03 -1.256042e-01
2.424549e-02 -7.272137e-02 -4.604615e-02
1.969868e-02 4.661482e-02 1.128657e-02
-6.806654e-02 -1.994136e-02 -7.745425e-02
-1.470351e-05 -7.750498e-03 2.890227e-02
2.957112e-04 7.859005e-03 2.827108e-02
8.744155e-03 -5.249774e-03 2.992087e-02
-3.870959e-02 3.850079e-02 -9.529240e-02
-3.702244e-02 1.755554e-02 1.823174e-02
7.044994e-02 -5.450573e-03 -2.839728e-02
7.204970e-02 3.643609e-03 -2.775172e-02
1.078266e-02 -9.285648e-05 2.786938e-02
1.471356e-02 -4.763838e-02 7.147057e-03
-5.300412e-02 2.895140e-02 -1.056339e-01
-5.100008e-02 -2.665230e-02 -1.057987e-01
-7.618501e-03 -4.160216e-03 3.036185e-02
4.150658e-02 -3.932526e-02 -1.825484e-03
4.340711e-02 3.754335e-02 -3.744228e-03
1.484642e-02 5.083222e-02 2.251671e-03
3.530665e-02 1.547015e-02 2.206206e-02
3.415868e-02 7.141667e-02 -5.029458e-02
-1.040041e-02 9.634500e-04 2.914225e-02
-1.056972e-02 -1.081400e-03 2.979507e-02
6.195056e-02 4.605628e-02 -5.597692e-02
1.295274e-03 -2.283455e-02 2.781896e-02
1.596398e-03 2.007197e-02 2.594879e-02
-3.677277e-02 -9.491651e-03 2.054125e-02
1.931335e-02 6.950327e-02 -7.574688e-02
2.725044e-02 -6.517091e-02 -7.500762e-02
2.468042e-02 6.505857e-02 -7.839441e-02
3.497669e-02 -1.327316e-02 2.121883e-02
8.026832e-03 -1.494514e-03 3.040312e-02
7.087798e-03 2.126198e-03 2.865329e-02
1.793789e-03 1.120837e-02 2.959944e-02
1.691420e-02 5.328924e-02 6.855439e-03
-3.549488e-02 3.616000e-02 1.065946e-02
-1.559661e-02 5.866335e-02 -4.727776e-03
-2.828501e-02 -3.369157e-02 1.560691e-02
2.709495e-02 -5.627537e-03 2.666330e-02
-4.845667e-03 2.395073e-02 2.657540e-02
7.956859e-03 -6.842661e-02 -7.264756e-02
1.243380e-02 -5.825256e-02 -1.036346e-01
2.231311e-02 9.465005e-04 2.833659e-02
2.345402e-02 -3.630683e-04 2.812919e-02
-2.177694e-02 -3.389643e-02 1.743664e-02
-2.112942e-02 3.200380e-02 1.879877e-02
3.736529e-02 -9.161956e-03 1.712034e-02
3.552848e-02 7.389421e-03 1.719470e-02
-4.628844e-02 -5.757938e-02 -7.829405e-02
-4.286114e-02 5.090025e-02 -7.195102e-02
-6.820324e-03 -1.326462e-02 -1.334054e-01
-1.154878e-02 1.407290e-02 -1.304484e-01
1.561233e-02 4.941401e-02 -9.812494e-02
1.293521e-02 -1.889589e-02 2.827487e-02
4.045798e-02 -6.282834e-02 -2.061020e-02
6.230320e-02 -5.239830e-03 -8.579655e-02
-1.219683e-02 -6.047759e-02 -1.153724e-02
-1.047286e-02 6.530911e-02 -1.310163e-02
-2.022358e-02 -6.029540e-04 -1.275971e-01
-3.576762e-02 -3.188740e-03 1.908093e-02
-3.506688e-02 4.096892e-03 2.183406e-02
1.870454e-02 3.911259e-02 1.849460e-02
2.687998e-02 2.840445e-02 2.146570e-02
7.303755e-02 1.194908e-02 -7.289010e-02
-3.237186e-03 -9.075269e-03 2.983249e-02
-4.086328e-02 -4.938907e-02 -1.312489e-03
5.346281e-03 -7.004246e-03 2.929441e-02
1.866640e-03 4.369610e-02 -1.211809e-01
-1.663686e-02 1.726947e-02 2.520664e-02
-1.736326e-02 -1.880200e-02 2.683108e-02
3.473752e-02 -2.174182e-02 2.072429e-02
3.529060e-02 2.183568e-02 1.987219e-02
1.884144e-02 -3.978355e-02 1.855271e-02
2.680588e-02 -7.150264e-02 -3.195697e-02
-6.975909e-02 -9.074075e-04 -2.548984e-02
-7.318498e-02 -8.334290e-03 -3.314131e-02
6.297091e-02 -3.426657e-02 -4.835535e-02
6.028250e-02 3.714302e-02 -5.850430e-02
5.840067e-03 7.120605e-03 3.095147e-02
7.450757e-02 -1.703639e-02 -6.425535e-02
6.788518e-02 1.450479e-02 -6.227860e-02
-5.937496e-03 -5.786697e-02 1.622576e-03
8.490480e-03 5.971458e-02 -7.667330e-02
5.763759e-03 5.740972e-02 -3.640466e-03
5.726863e-03 -6.469425e-02 -1.444436e-03
2.977572e-04 2.047364e-04 2.770344e-02
6.496510e-02 -1.879478e-02 -3.383337e-02
-2.087636e-03 9.278962e-03 2.707631e-02
-1.409073e-03 -1.010718e-02 3.030033e-02
1.520967e-02 -4.566336e-02 -1.000477e-01
5.165458e-02 1.505949e-02 5.619816e-03
3.870346e-02 -6.793649e-02 -5.722563e-02
-4.824329e-02 5.116946e-03 1.476908e-02
-6.563655e-04 6.748659e-03 3.091171e-02
1.643978e-02 2.019327e-02 2.684545e-02
-6.188362e-02 4.901232e-02 -7.026749e-02
7.686426e-02 -8.458642e-03 -3.132440e-02
-3.880672e-02 -2.657483e-02 -1.033215e-01
3.396138e-02 -3.116034e-02 -1.065390e-01
-6.703703e-02 -1.356109e-02 -1.221302e-02
-6.424151e-02 1.281136e-02 -1.081071e-02
-5.002732e-02 2.122883e-02 9.799012e-03
-5.051833e-02 -2.121450e-02 8.981892e-03
-3.736591e-02 5.161303e-02 -1.746591e-02
-7.376380e-02 1.919000e-02 -3.487135e-02
-3.345310e-03 6.696597e-03 3.077371e-02
-1.410466e-02 2.319562e-02 2.309956e-02
-4.929190e-02 -2.253475e-02 1.386067e-04
-4.800266e-02 2.925166e-02 -1.049698e-01
-1.536445e-02 -2.516734e-02 2.526693e-02
4.584245e-02 -4.743502e-02 -4.329675e-03
4.125875e-02 4.585580e-02 -7.720964e-03
-1.362939e-02 1.889712e-02 2.720041e-02
-1.232166e-02 -1.907570e-02 2.699211e-02
-1.257036e-02 -2.629662e-02 2.569266e-02
-1.335214e-02 2.696553e-02 2.595787e-02
-2.190712e-02 -1.328623e-02 2.585405e-02
-7.930632e-03 2.507018e-02 2.792937e-02
-7.596967e-03 -2.323894e-02 2.405497e-02
-1.724521e-02 6.178317e-02 -1.317483e-02
1.224605e-02 2.045514e-02 2.543192e-02
-3.783009e-03 5.419250e-03 3.136059e-02
-8.161543e-03 7.289222e-02 -8.323853e-02
-1.937121e-02 -4.472447e-02 8.347741e-03
-1.960140e-02 4.393046e-02 5.805245e-03
3.899492e-02 -4.956867e-02 -9.419342e-02
3.812012e-02 -1.534989e-02 1.630588e-02
-1.687574e-02 1.373050e-02 2.792450e-02
3.113056e-03 -2.523598e-02 2.664042e-02
3.370769e-03 2.443222e-02 2.691600e-02
-1.621486e-02 -6.202889e-02 -7.817514e-03
-6.190770e-03 -7.352616e-02 -7.842328e-02
-5.918172e-02 -2.895052e-02 -6.982028e-02
4.820030e-02 -1.542422e-02 -1.100790e-01
2.074811e-02 -1.986064e-02 2.546334e-02
-6.427095e-02 2.977541e-02 -3.158484e-02
-8.494815e-03 6.156883e-02 -1.147317e-03
5.057000e-03 4.211928e-03 2.955271e-02
7.118432e-02 -3.502216e-02 -4.616887e-02
-4.678071e-02 -6.347214e-02 -4.623597e-02
-4.571219e-02 6.178626e-02 -4.868776e-02
-7.169244e-02 3.395087e-02 -5.947716e-02
2.139185e-02 3.489113e-02 2.087564e-02
1.589519e-02 -6.925263e-02 -8.081799e-02
3.642225e-02 -6.726176e-03 -1.188935e-01
7.284840e-03 -2.780459e-02 -1.238192e-01
-7.143758e-02 5.998421e-03 -2.351997e-02
4.385718e-03 7.220654e-03 2.825348e-02
1.066359e-02 2.564497e-03 2.976046e-02
-1.603811e-02 -7.476243e-02 -3.206416e-02
2.313983e-02 7.453625e-02 -4.307173e-02
-2.884500e-02 -4.209747e-02 6.869077e-03
-4.594733e-02 5.745102e-02 -3.263086e-02
-5.993321e-02 1.121548e-02 1.964412e-03
3.766321e-02 -1.610399e-03 2.249547e-02
-2.069644e-03 -9.905894e-03 2.813104e-02
3.918145e-03 -5.003350e-03 2.819543e-02
1.607925e-02 -3.608436e-03 -1.308437e-01
2.742321e-02 -8.765905e-03 2.672464e-02
-6.654950e-02 1.266645e-02 -6.305682e-02
-6.346809e-02 -1.198515e-02 -6.891205e-02
7.497100e-03 -1.959175e-02 2.584020e-02
8.066999e-03 2.093472e-02 2.794543e-02
6.277866e-02 2.335890e-02 -6.818834e-02
-3.078018e-02 -7.105305e-03 2.189336e-02
-5.273244e-02 5.260557e-02 -3.846315e-02
2.593685e-02 5.361924e-02 1.847103e-03
3.014947e-03 -3.893936e-02 2.101392e-02
4.689111e-02 5.479028e-02 -5.941117e-02
3.265769e-03 -2.417195e-02 2.450213e-02
7.781183e-03 -3.892787e-03 2.991064e-02
6.094850e-03 3.689511e-03 3.126229e-02
-1.105410e-02 -6.847888e-02 -8.580970e-02
-5.577653e-02 -5.035872e-03 8.445094e-03
6.577844e-02 -3.003183e-02 -7.631969e-02
2.599473e-02 6.212055e-03 2.538312e-02
3.391509e-02 4.481962e-02 5.935348e-03
-4.354542e-02 -3.146974e-02 9.842329e-03
-4.208301e-02 3.219951e-02 9.410483e-03
7.798091e-03 5.010716e-03 2.688252e-02
1.911405e-02 9.811758e-03 -1.295570e-01
2.551482e-02 -5.347159e-02 6.326771e-05
-1.072709e-03 6.901127e-03 -1.243281e-01
-6.442782e-03 -1.013799e-02 -1.218966e-01
-2.215064e-02 -1.188506e-02 2.739364e-02
-3.677756e-02 -6.254386e-02 -4.176127e-02
-2.010716e-02 1.278649e-02 2.682740e-02
-8.073008e-03 -9.102279e-04 2.802546e-02
-5.273714e-02 1.375006e-02 1.077686e-03
3.745343e-02 2.904837e-03 2.080831e-02
1.630677e-02 -6.687318e-02 -4.417645e-02
-1.486859e-02 -3.292159e-03 -1.330213e-01
-1.091384e-02 2.936717e-03 -1.323095e-01
-3.165338e-02 4.821258e-03 2.307731e-02
-3.335394e-02 -5.246140e-03 2.349652e-02
-4.507080e-02 2.757959e-02 -1.039984e-01
-9.486084e-04 -9.230781e-04 2.815174e-02
2.937246e-02 5.902654e-02 -1.422376e-02
5.957336e-02 1.001210e-02 -1.025696e-01
5.818258e-03 7.471485e-02 -2.933044e-02
3.071265e-02 -5.808667e-02 -1.826107e-02
1.012113e-02 -6.870957e-02 -2.929458e-02
-5.180623e-02 9.460576e-03 6.201379e-03
-4.992442e-02 -1.214862e-02 7.182973e-03
-4.888820e-02 -2.637074e-02 1.367006e-03
-5.228888e-02 3.153475e-02 4.053487e-03
-1.205106e-02 -5.637680e-02 -2.309399e-03
-2.590084e-02 6.365504e-02 -1.336908e-02
5.763486e-04 -1.958446e-04 3.131853e-02
-8.885697e-04 6.085047e-02 -6.646194e-03
4.548406e-02 4.363263e-02 1.599609e-03
4.181195e-02 -4.461785e-02 2.197631e-03
4.681101e-02 2.385025e-02 6.818809e-03
-4.763159e-02 -2.342705e-02 -1.039536e-01
2.235323e-02 -5.145886e-02 4.494110e-03
2.443823e-02 4.705268e-02 -4.732384e-04
-1.331722e-02 -1.383004e-02 -1.231418e-01
-8.024039e-03 1.259450e-02 -1.306131e-01
6.579344e-03 -5.005970e-02 5.053696e-03
-4.522977e-04 -7.422887e-04 2.867650e-02
4.126898e-02 -2.201571e-02 8.816710e-03
-6.829950e-03 -1.866229e-03 -1.359216e-01
4.691844e-02 2.194153e-03 1.022775e-02
8.739111e-03 4.706643e-02 1.123209e-02
-3.426213e-02 -3.506780e-02 1.586266e-02
-8.400061e-03 1.001571e-02 -1.308232e-01
-6.148330e-02 -1.752084e-02 -1.446963e-02
4.010847e-02 -6.069356e-03 1.557456e-02
4.023427e-02 7.249074e-03 1.349172e-02
-3.314356e-02 2.593956e-02 1.790594e-02
1.459481e-04 -2.276071e-04 2.804601e-02
-3.311100e-02 -2.748055e-02 1.914505e-02
4.484332e-03 1.084005e-02 -1.336977e-01
-9.382255e-03 -4.067537e-02 -1.110012e-01
-8.054033e-03 4.794349e-02 -1.149903e-01
4.165803e-02 1.071980e-02 1.476595e-02
-6.261656e-02 1.892464e-02 -7.627371e-02
-5.870290e-02 -1.512100e-02 -7.513408e-02
3.522994e-02 -2.408234e-02 1.954063e-02
3.424247e-02 2.437968e-02 1.978491e-02
-2.145097e-02 -3.667144e-02 1.697025e-02
3.424119e-04 5.041652e-04 2.939696e-02
3.974665e-02 -8.804851e-03 1.751807e-02
3.701267e-02 -5.773608e-02 -9.025456e-02
3.499595e-02 5.311196e-02 -8.723675e-02
8.818283e-03 -3.973364e-02 1.912218e-02
1.261811e-02 3.981087e-02 1.852980e-02
-4.186083e-03 -4.379455e-02 1.750154e-02
-2.548177e-03 4.035856e-02 1.677742e-02
-5.529440e-02 -4.561077e-02 -8.171390e-02
-1.992283e-02 3.668547e-02 1.713522e-02
-1.850881e-02 -3.744847e-02 1.813893e-02
-9.437821e-04 4.294113e-04 3.113553e-02
-2.076669e-02 3.205066e-02 1.978019e-02
-3.774989e-02 3.401003e-02 1.315114e-02
-2.824156e-03 -6.661854e-02 -6.798792e-02
4.458088e-02 -2.078738e-02 -1.090056e-01
-5.991576e-02 1.886556e-02 -8.112842e-03
-3.171124e-02 2.824165e-03 2.140805e-02
-9.500439e-03 -3.076624e-02 2.185458e-02
-8.940598e-03 3.496159e-02 2.116782e-02
2.294363e-02 -2.898136e-02 1.585969e-02
2.238831e-02 2.937447e-02 1.753961e-02
1.002566e-03 -5.592019e-04 2.960022e-02
-6.740908e-03 3.175314e-02 1.998114e-02
1.792108e-02 2.530018e-02 2.145828e-02
2.192039e-02 -3.067807e-02 2.178698e-02
-3.794887e-02 -4.501904e-03 1.635856e-02
-2.580222e-03 -3.558591e-02 2.299238e-02
6.816103e-02 3.424999e-02 -7.915660e-02
9.485522e-03 -3.292897e-02 2.052491e-02
1.215966e-03 6.201150e-02 -8.045627e-02
-9.707297e-03 -2.999189e-02 2.238267e-02
2.629269e-02 2.069997e-02 2.460620e-02
4.844697e-04 8.435913e-04 3.043224e-02
-3.661538e-02 2.902625e-02 -9.892772e-02
1.787208e-02 6.249834e-02 -8.151817e-02
3.440688e-02 3.167602e-02 -1.110419e-01
3.361733e-02 -2.975999e-02 -1.048833e-01
6.561300e-02 -2.953892e-03 -6.590697e-02
3.190426e-03 -3.238651e-02 2.342701e-02
2.892495e-03 3.278645e-02 2.440839e-02
1.315021e-02 -6.721662e-02 -7.712774e-02
-2.707593e-02 -6.783950e-02 -8.600930e-02
3.725458e-02 -4.954186e-02 -8.054963e-02
3.184932e-04 3.436981e-04 3.084779e-02
-1.105949e-03 2.238960e-03 3.007829e-02
4.605409e-02 5.692286e-02 -5.990020e-02
-1.945100e-02 6.038546e-02 -9.112886e-02
-2.765528e-02 -5.551437e-02 -9.340408e-02
-6.246814e-02 3.918172e-02 -1.914523e-02
-5.863231e-02 -3.912153e-02 -2.260826e-02
-1.978163e-02 -1.048550e-03 2.698528e-02
-2.076411e-02 4.241813e-03 2.657342e-02
-2.198701e-02 6.692903e-02 -7.545644e-02
-6.172429e-02 -5.898320e-03 -1.028484e-01
-1.974889e-02 2.368348e-02 2.388860e-02
-5.356044e-04 -1.166405e-03 2.755596e-02
-1.961780e-02 -2.540111e-02 2.087550e-02
6.493563e-03 4.566211e-04 -1.167912e-01
6.871390e-03 -1.779159e-03 -1.254356e-01
-1.818208e-03 2.954797e-02 2.319612e-02
6.573336e-02 -4.120558e-02 -3.607011e-02
2.370185e-02 -1.915980e-02 2.271735e-02
1.211358e-02 2.374772e-02 2.283608e-02
1.022406e-02 -2.332348e-02 2.544045e-02
6.614142e-02 -1.282519e-02 -2.857813e-02
7.498359e-02 1.428370e-02 -3.208784e-02
1.383229e-04 -7.344268e-04 2.787106e-02
-2.127091e-02 -1.483869e-02 2.392597e-02
-1.060277e-02 2.675499e-02 2.126337e-02
5.837357e-02 3.828750e-02 -1.735236e-02
5.665806e-02 -3.641872e-02 -1.677829e-02
2.800647e-02 -1.034058e-02 2.641646e-02
-4.459914e-02 4.841738e-02 -7.764761e-02
-5.105678e-02 -4.404345e-02 -8.439394e-02
1.977611e-02 -6.961521e-02 -1.682762e-02
1.175934e-02 2.632988e-02 2.525756e-02
-2.281246e-02 1.603501e-02 2.292474e-02
-3.334802e-04 -1.059710e-03 3.082197e-02
1.643206e-02 6.252206e-02 -1.265376e-02
-1.264800e-02 -1.049756e-02 -1.148592e-01
-3.549473e-02 6.884928e-02 -7.577744e-02
1.802221e-02 1.664092e-02 2.603920e-02
2.264469e-02 7.174037e-02 -2.727630e-02
-1.714901e-02 -5.705285e-03 -1.237811e-01
-6.171856e-02 -4.240709e-02 -5.782169e-02
-6.440770e-02 2.202824e-02 -1.097302e-02
-6.233777e-02 -2.053437e-02 -7.618601e-03
-2.464664e-02 7.459366e-03 2.453573e-02
9.777488e-04 -1.943649e-03 2.820047e-02
-2.578458e-02 -9.244447e-03 2.410902e-02
-2.423256e-02 -1.202571e-02 2.654940e-02
-2.530688e-02 1.226345e-02 2.719048e-02
1.248556e-02 -2.371787e-02 2.601405e-02
5.910939e-02 4.339677e-02 -2.059439e-02
-6.386531e-02 1.061283e-02 -8.028522e-02
-1.048032e-02 -7.299999e-02 -3.068239e-02
-9.268079e-03 6.661106e-02 -3.393530e-02
-3.511062e-02 5.810298e-02 -1.250839e-02
1.272446e-02 2.102943e-02 2.662295e-02
2.219812e-04 1.702312e-03 3.053751e-02
2.406346e-02 9.945692e-03 2.509225e-02
1.727709e-02 -1.852734e-02 2.591472e-02
-5.519385e-02 4.394312e-02 -2.674214e-02
-3.486233e-02 6.748709e-02 -3.004332e-02
-3.601033e-02 -6.768019e-02 -3.390158e-02
-2.272047e-03 -2.196985e-02 2.633564e-02
-2.718751e-02 -6.190168e-02 -7.561834e-03
8.237899e-03 7.528493e-02 -3.252711e-02
2.146568e-02 -1.705918e-02 2.545181e-02
1.883522e-02 1.611469e-02 2.443820e-02
-8.960437e-04 -9.451048e-04 2.959553e-02
2.509402e-02 2.982167e-03 2.646706e-02
2.033308e-02 -1.273390e-04 -1.217303e-01
-4.720727e-02 -4.307361e-02 -2.130563e-02
-5.136653e-02 4.629484e-02 -1.775657e-02
2.124578e-02 -2.828623e-03 2.676189e-02
8.962176e-04 2.232911e-02 2.730560e-02
2.619973e-02 1.494255e-02 -1.250995e-01
6.954874e-02 1.991914e-02 -1.784029e-02
-1.382440e-02 1.633159e-02 2.442852e-02
1.797629e-03 -2.137223e-02 2.560393e-02
3.762232e-04 -2.276153e-03 2.860414e-02
5.858061e-02 -2.289575e-02 -1.000275e-02
6.397758e-02 2.493226e-02 -1.081918e-02
4.122155e-02 5.111801e-02 -1.392163e-02
4.163106e-02 -5.536091e-02 -1.566639e-02
-1.526031e-02 -1.994797e-02 2.769074e-02
-5.363674e-02 -4.497702e-02 -1.491590e-02
-1.532377e-02 6.313984e-02 -1.297419e-02
5.179689e-04 -6.128517e-02 -9.599197e-02
8.077768e-03 6.455475e-02 -9.065141e-02
2.332472e-02 6.605047e-03 2.831256e-02
2.515698e-03 -8.259528e-04 2.938766e-02
2.188110e-02 -5.974151e-03 2.782397e-02
-4.775451e-02 1.975782e-02 9.214460e-03
-2.504961e-02 1.553553e-02 -1.261098e-01
-3.472183e-03 -6.913474e-02 -1.033292e-02
-1.930194e-02 -1.449123e-02 2.670968e-02
-1.715008e-02 1.223840e-02 2.471546e-02
6.889820e-02 1.007710e-02 -1.246178e-02
3.091079e-04 -1.337226e-02 -1.238776e-01
-4.271074e-02 -4.899169e-02 -2.911529e-02
4.403347e-02 -6.200037e-02 -2.361237e-02
-3.759785e-04 6.849357e-04 3.177670e-02
1.470464e-02 -1.490548e-02 -1.258554e-01
2.358786e-02 1.381785e-02 -1.305131e-01
4.020271e-02 5.493979e-02 -9.961273e-03
2.067586e-02 3.070463e-03 2.907423e-02
2.156762e-02 -3.003880e-03 2.891800e-02
6.158664e-02 -6.429129e-03 -3.699181e-03
-3.536116e-02 3.374496e-02 -1.051481e-01
1.876587e-02 1.029136e-02 2.708772e-02
-1.550732e-02 -1.617303e-02 2.675995e-02
1.931951e-02 -1.118205e-02 2.599078e-02
1.691090e-03 -4.771537e-04 2.934671e-02
1.774062e-04 -3.062343e-04 3.181074e-02
1.905296e-02 9.757523e-03 2.550148e-02
5.610213e-02 -5.124073e-02 -4.814329e-02
2.395054e-02 -6.529262e-02 -1.323329e-02
-1.019174e-02 3.354535e-02 -1.232671e-01
8.220107e-03 2.016813e-03 -1.345080e-01
-1.757370e-03 -8.571923e-03 -1.247095e-01
-2.292122e-02 -1.241398e-03 2.806957e-02
1.834560e-02 -1.096579e-02 2.911417e-02
5.996996e-02 -1.355563e-02 -1.007948e-01
5.425168e-02 1.113775e-02 -1.008989e-01
-4.765946e-04 3.944073e-04 2.814536e-02
3.478142e-02 -6.422258e-02 -4.418606e-02
5.272032e-02 -1.908636e-02 5.499113e-03
-4.453432e-02 -1.677995e-02 1.021768e-02
-1.054979e-02 1.999799e-02 2.786914e-02
-7.181079e-03 -1.860870e-02 2.770064e-02
5.323297e-02 -3.830224e-02 -4.481430e-03
-2.512319e-02 -4.885512e-02 -1.126566e-01
4.788098e-02 -1.134026e-02 -1.017946e-01
-1.053957e-02 1.753240e-02 2.704312e-02
-1.143383e-02 -1.716173e-02 2.668887e-02
2.310097e-03 -1.762130e-03 2.884451e-02
1.257143e-02 -1.960030e-02 2.837475e-02
3.052885e-02 5.198062e-02 -8.301583e-02
-1.660900e-02 -1.507038e-02 2.795993e-02
-1.611169e-02 1.483203e-02 2.776061e-02
-7.587405e-02 1.218965e-02 -4.011665e-02
-7.674861e-02 -1.005369e-02 -4.075579e-02
-4.039956e-02 -6.289347e-02 -7.926849e-02
-3.605807e-02 5.382581e-02 -7.569193e-02
2.684695e-02 -4.026807e-02 -1.047701e-01
-3.557057e-03 2.085568e-02 2.897141e-02
-5.466480e-04 1.082844e-03 2.821098e-02
-4.985541e-03 -1.962965e-02 2.678684e-02
-9.090607e-03 2.043369e-02 2.930515e-02
-1.012497e-02 -2.025168e-02 2.698244e-02
4.685919e-03 -1.751101e-02 2.846231e-02
-6.481706e-02 -9.498387e-03 -5.681578e-02
1.819739e-04 -3.218364e-03 -1.289288e-01
3.756898e-03 -2.016519e-02 2.909300e-02
3.960333e-03 1.935461e-02 2.879862e-02
4.750631e-03 5.265940e-02 9.163605e-03
-1.624254e-02 1.250917e-02 2.635408e-02
-6.590952e-04 -7.193420e-04 2.838390e-02
5.197302e-03 1.806302e-02 2.617277e-02
-8.394477e-04 -1.958245e-02 2.648722e-02
-1.057883e-03 2.075448e-02 2.686545e-02
-6.912122e-02 3.190424e-02 -6.413587e-02
-6.816651e-02 -3.502279e-02 -6.639558e-02
5.000461e-02 4.677502e-02 -6.983503e-02
-4.061067e-02 4.676984e-02 -4.061431e-03
1.642830e-02 4.857824e-02 4.216541e-03
-2.036887e-02 3.185971e-03 2.488552e-02
-7.612481e-03 -7.161747e-02 -5.112315e-02
1.882670e-05 -2.189560e-04 3.090223e-02
1.313092e-02 -6.608545e-02 -6.427661e-02
-2.245832e-02 4.245302e-02 1.463530e-02
-1.960329e-02 -3.384473e-03 2.882449e-02
-3.458705e-02 3.590994e-02 6.177760e-03
-3.882006e-02 -4.083087e-02 8.013181e-03
1.873884e-02 -4.896325e-02 6.374015e-03
1.846220e-02 -2.014545e-02 -1.204426e-01
4.890277e-03 1.677111e-02 2.719565e-02
5.960299e-03 -1.842199e-02 2.933502e-02
-2.796666e-02 4.269461e-02 1.234862e-02
4.105124e-04 -6.588831e-04 3.123311e-02
-2.690115e-02 -4.229523e-02 9.370181e-03