# vtk DataFile Version 2.0
Electric current density generated by TTH
ASCII
DATASET UNSTRUCTURED_GRID
POINTS 9500 double
4.014322e-05 -9.832252e-21 -1.310803e-22
4.002947e-05 3.019841e-06 -1.310803e-22
2.714271e-05 2.957619e-05 -1.310803e-22
-3.306399e-05 2.114249e-05 -3.939368e-07
-3.310338e-05 2.127428e-05 4.689035e-07
-2.822630e-05 2.726617e-05 -3.931850e-07
-2.825872e-05 2.738575e-05 4.696411e-07
-3.654729e-05 -1.475246e-05 4.981449e-07
-3.489540e-05 -1.838076e-05 5.082266e-07
-2.387021e-05 3.139673e-05 5.082266e-07
-3.501657e-05 1.772207e-05 -3.939368e-07
-3.511083e-05 1.776977e-05 4.696411e-07
-2.906050e-05 -2.636246e-05 -3.850499e-07
2.689432e-05 2.980224e-05 -1.310803e-22
-2.915921e-05 -2.642490e-05 4.696411e-07
-3.661650e-05 1.412317e-05 -3.939368e-07
-3.671506e-05 1.416118e-05 4.696411e-07
-5.806760e-06 3.881383e-05 -3.939368e-07
-5.822390e-06 3.891831e-05 4.696411e-07
-1.155995e-05 3.767195e-05 4.954480e-07
-1.882482e-05 3.442554e-05 -3.850499e-07
-1.886241e-05 3.453613e-05 4.696411e-07
-3.869168e-05 6.515027e-06 -3.850499e-07
-3.880181e-05 6.553931e-06 4.696411e-07
2.664404e-05 3.002620e-05 -1.310803e-22
1.020853e-07 3.923622e-05 -3.850499e-07
8.230763e-08 3.935134e-05 4.696411e-07
-2.052850e-05 3.343759e-05 -3.850499e-07
-2.057159e-05 3.354615e-05 4.696411e-07
-3.604660e-05 1.600575e-05 5.082266e-07
-3.765005e-05 -1.107437e-05 -3.931850e-07
-3.774796e-05 -1.111256e-05 4.686852e-07
-1.344971e-05 3.686434e-05 -3.897008e-07
-1.346757e-05 3.697512e-05 4.696411e-07
-9.726917e-06 3.819292e-05 4.980087e-07
2.639190e-05 3.024807e-05 -1.310803e-22
-7.779621e-06 3.863544e-05 4.975481e-07
-3.832490e-05 -9.194653e-06 4.981449e-07
5.947854e-06 3.878292e-05 -3.850499e-07
5.985142e-06 3.889361e-05 4.696411e-07
-3.896985e-05 4.565369e-06 -3.850499e-07
-3.908180e-05 4.598699e-06 4.696411e-07
-3.155643e-05 -2.331701e-05 -3.850499e-07
-3.166091e-05 -2.336925e-05 4.696411e-07
2.051233e-06 3.919215e-05 -3.939368e-07
2.056755e-06 3.929764e-05 4.696411e-07
2.613791e-05 3.046781e-05 -1.310803e-22
-1.887267e-06 3.920038e-05 -3.939368e-07
-1.819858e-06 3.930758e-05 4.686852e-07
-1.524273e-05 3.615454e-05 -3.850499e-07
-1.530593e-05 3.625277e-05 4.696411e-07
-2.689686e-05 2.884615e-05 5.082266e-07
-2.214926e-05 3.239267e-05 -3.897008e-07
-2.222894e-05 3.247167e-05 4.696411e-07
-2.324042e-05 -3.162459e-05 -3.939368e-07
-2.330298e-05 -3.170972e-05 4.696411e-07
-3.914984e-05 2.604210e-06 -3.850499e-07
2.588209e-05 3.068542e-05 -1.310803e-22
-3.926332e-05 2.631880e-06 4.696411e-07
3.994333e-06 3.903251e-05 -3.850499e-07
4.026020e-06 3.914494e-05 4.696411e-07
-3.915407e-06 3.921746e-05 4.981449e-07
-3.558993e-05 -1.654051e-05 -3.939368e-07
-3.568573e-05 -1.658503e-05 4.696411e-07
-3.727633e-05 1.224609e-05 -3.850499e-07
-3.737938e-05 1.230108e-05 4.696411e-07
-2.171528e-05 -3.288870e-05 4.975481e-07
-1.708890e-05 3.536409e-05 -4.201737e-07
2.562446e-05 3.090089e-05 -1.310803e-22
-1.710572e-05 3.543909e-05 4.696411e-07
-3.425141e-05 1.949821e-05 4.981449e-07
-3.034669e-05 -2.487106e-05 -3.850499e-07
-3.044841e-05 -2.492847e-05 4.696411e-07
-3.094185e-05 2.445697e-05 5.082266e-07
-2.530348e-05 2.999943e-05 -3.939368e-07
-2.537159e-05 3.008018e-05 4.696411e-07
-3.858287e-05 -7.182914e-06 -3.939368e-07
-3.869821e-05 -7.130657e-06 4.686852e-07
-2.486651e-05 -3.057771e-05 4.981449e-07
2.536504e-05 3.111419e-05 -1.310803e-22
-3.708231e-05 -1.286305e-05 -3.976958e-07
-3.716833e-05 -1.292479e-05 4.696411e-07
-3.923119e-05 6.364897e-07 -3.850499e-07
-3.934592e-05 6.584308e-07 4.696411e-07
-2.950111e-05 2.588901e-05 -3.976958e-07
-2.959727e-05 2.593330e-05 4.696411e-07
-2.003766e-05 -3.393689e-05 4.975481e-07
-3.197000e-05 2.275507e-05 -3.897008e-07
-3.204749e-05 2.283622e-05 4.696411e-07
-2.629308e-05 -2.913599e-05 -3.939368e-07
2.510384e-05 3.132531e-05 -1.310803e-22
-2.642956e-05 -2.915317e-05 4.689035e-07
-3.922381e-05 -1.313143e-06 -3.939368e-07
-3.932939e-05 -1.316677e-06 4.696411e-07
-3.784385e-05 1.036023e-05 -3.850499e-07
-3.794953e-05 1.040998e-05 4.696411e-07
-3.910078e-05 -3.258903e-06 -3.850499e-07
-3.921378e-05 -3.288468e-06 4.696411e-07
-3.371984e-05 -2.007835e-05 -3.931850e-07
-3.380520e-05 -2.013966e-05 4.686852e-07
3.920434e-05 -4.115016e-06 -5.009458e-07
2.484088e-05 3.153424e-05 -1.310803e-22
3.920434e-05 4.115016e-06 -5.009458e-07
-4.853361e-06 -3.912895e-05 -5.042666e-07
-5.772660e-07 -3.942457e-05 -5.042662e-07
3.820299e-05 9.825154e-06 5.101170e-07
3.820299e-05 -9.825154e-06 5.101170e-07
1.814121e-05 3.480273e-05 -3.951279e-07
3.065154e-05 -2.461953e-05 4.475577e-07
-1.709048e-05 -3.555332e-05 -5.106011e-07
-1.803910e-05 -3.509467e-05 -5.141212e-07
-1.891428e-05 -3.463109e-05 -5.141880e-07
4.000280e-05 3.354635e-06 -1.310803e-22
2.457619e-05 3.174097e-05 -1.310803e-22
-1.977745e-05 -3.414550e-05 -5.141877e-07
-2.062816e-05 -3.363840e-05 -5.141877e-07
-2.146587e-05 -3.311011e-05 -5.141877e-07
-2.229006e-05 -3.256096e-05 -5.141877e-07
3.911071e-05 -5.540485e-06 5.244030e-07
3.911071e-05 5.540485e-06 5.244030e-07
2.552703e-05 -3.000885e-05 -4.920101e-07
-1.213807e-05 -3.721634e-05 2.696103e-07
3.778952e-05 -1.166001e-05 5.317391e-07
3.779434e-05 1.159152e-05 5.297399e-07
2.430977e-05 3.194547e-05 -1.310803e-22
4.360507e-06 -3.917392e-05 -4.994793e-07
2.426105e-05 -3.106463e-05 4.994794e-07
2.866949e-05 2.705017e-05 4.996796e-07
2.603812e-05 2.959180e-05 4.997153e-07
3.931240e-05 4.013251e-06 5.273261e-07
3.931240e-05 -4.013251e-06 5.273261e-07
-1.998938e-06 -3.946592e-05 5.272904e-07
-3.388558e-06 -3.939728e-05 5.311771e-07
2.226726e-05 3.264543e-05 -5.272905e-07
-4.657775e-07 -3.951402e-05 5.273353e-07
2.404165e-05 3.214773e-05 -1.310803e-22
-4.976067e-06 -3.920226e-05 5.273438e-07
3.694814e-05 1.301273e-05 3.112036e-07
3.493402e-05 1.776446e-05 3.358296e-07
3.688865e-05 -1.417829e-05 5.278126e-07
3.865099e-05 -8.356938e-06 5.313446e-07
3.865099e-05 8.356938e-06 5.313446e-07
9.410955e-06 -3.804419e-05 3.352719e-07
2.729973e-05 2.830851e-05 -4.557130e-07
2.722213e-05 2.820796e-05 3.476895e-07
2.730285e-05 -2.830557e-05 -4.557393e-07
2.377185e-05 3.234775e-05 -1.310803e-22
2.724570e-05 -2.820068e-05 3.603089e-07
2.275661e-05 -3.207752e-05 -4.571408e-07
2.268161e-05 -3.197179e-05 3.464535e-07
6.157904e-06 -3.884276e-05 4.559698e-07
6.098133e-06 -3.873378e-05 -3.587143e-07
3.637806e-05 -1.550543e-05 5.314120e-07
8.643054e-06 -3.852835e-05 5.210518e-07
3.559550e-05 1.708951e-05 5.209178e-07
1.819637e-05 -3.503936e-05 -5.202337e-07
3.176196e-05 2.349739e-05 -5.259033e-07
2.350039e-05 3.254550e-05 -1.310803e-22
7.855714e-06 -3.828359e-05 9.444812e-08
3.092936e-05 2.462186e-05 -5.298951e-07
2.599071e-05 -2.929460e-05 -2.962842e-07
3.314607e-05 2.095800e-05 -3.643707e-07
3.216170e-05 -2.230473e-05 -2.580438e-07
2.833772e-05 2.695242e-05 -1.915111e-07
2.396969e-05 -3.089960e-05 -1.871940e-07
2.804204e-05 -2.799550e-05 -5.349214e-07
2.802238e-05 2.800605e-05 -5.350817e-07
2.350470e-05 -3.189267e-05 -5.350767e-07
2.322728e-05 3.274097e-05 -1.310803e-22
5.478848e-06 -3.923766e-05 5.350771e-07
6.957120e-06 -3.900075e-05 5.351104e-07
2.228293e-05 -3.275562e-05 -5.351104e-07
2.694496e-05 2.904184e-05 -5.351106e-07
2.694496e-05 -2.904184e-05 -5.351106e-07
1.911183e-05 -3.464747e-05 5.337531e-07
-1.076705e-05 -3.805513e-05 5.319078e-07
3.723824e-05 1.312397e-05 -5.204173e-07
3.030501e-05 -2.545294e-05 5.342051e-07
3.312287e-05 -2.095031e-05 -3.370603e-07
2.295255e-05 3.293415e-05 -1.310803e-22
3.527086e-05 -1.783344e-05 5.283717e-07
3.166026e-05 2.353617e-05 5.113923e-07
4.520727e-06 -3.883373e-05 1.555988e-07
2.597483e-05 2.921947e-05 -1.544632e-07
3.742856e-05 -1.273972e-05 5.304796e-07
3.548425e-05 1.638429e-05 1.097076e-07
1.971691e-05 -3.406797e-05 4.753720e-07
3.895392e-05 4.795794e-06 3.959808e-07
3.895392e-05 -4.795794e-06 3.959808e-07
-1.233038e-06 -3.923814e-05 4.044058e-07
2.267621e-05 3.312503e-05 -1.310803e-22
-4.181022e-06 -3.904640e-05 4.145811e-07
3.275922e-05 2.208812e-05 -5.261468e-07
-1.005642e-05 -3.794927e-05 4.057919e-07
3.736507e-05 -1.283129e-05 -5.255214e-07
3.764308e-05 -1.202317e-05 -5.272981e-07
1.858614e-05 -3.440204e-05 -1.733672e-07
-1.448873e-05 -3.675372e-05 5.254446e-07
-1.377942e-05 -3.710654e-05 5.345622e-07
2.234286e-05 3.249823e-05 5.073691e-07
1.675252e-05 3.584973e-05 -5.338802e-07
2.239828e-05 3.331359e-05 -1.310803e-22
1.572532e-05 3.617450e-05 -5.096222e-07
1.489061e-05 3.654221e-05 -5.141894e-07
1.396883e-05 3.690440e-05 -5.141877e-07
1.303826e-05 3.724334e-05 -5.141877e-07
1.675252e-05 -3.584973e-05 -5.338802e-07
1.572532e-05 -3.617450e-05 -5.096222e-07
1.489061e-05 -3.654221e-05 -5.141894e-07
1.396883e-05 -3.690440e-05 -5.141877e-07
1.303826e-05 -3.724334e-05 -5.141877e-07
2.117746e-05 -3.296295e-05 -3.206991e-07
2.211878e-05 3.349981e-05 -1.310803e-22
3.568024e-05 -1.657606e-05 4.647443e-07
3.100248e-05 2.440866e-05 5.137240e-07
3.850369e-05 8.413525e-06 -4.980556e-07
3.850369e-05 -8.413525e-06 -4.980556e-07
-9.429578e-06 -3.858429e-05 5.233722e-07
3.399107e-05 1.973295e-05 -4.402235e-07
3.402599e-05 -1.966573e-05 -4.378063e-07
2.829736e-06 -3.936520e-05 5.161949e-07
2.489339e-05 3.062590e-05 -5.161962e-07
3.676282e-05 -1.437388e-05 -5.178439e-07
3.997334e-05 3.689195e-06 -1.310803e-22
2.183774e-05 3.368369e-05 -1.310803e-22
3.198624e-06 -3.917104e-05 -4.386337e-07
2.508428e-05 3.025526e-05 4.386351e-07
3.021378e-05 -2.579706e-05 -5.214227e-07
1.204978e-05 -3.768530e-05 5.334317e-07
2.309014e-05 3.226084e-05 5.312655e-07
-2.736511e-06 -3.958331e-05 5.306107e-07
3.645723e-05 1.574339e-05 5.251276e-07
2.598928e-05 3.005088e-05 -5.210200e-07
1.061450e-06 -3.974446e-05 5.135517e-07
4.057206e-06 -3.952262e-05 5.210199e-07
2.155516e-05 3.386521e-05 -1.310803e-22
2.366226e-05 3.195068e-05 -5.135518e-07
2.470690e-05 -3.109567e-05 -5.241451e-07
3.963798e-05 2.490481e-06 5.241446e-07
3.963798e-05 -2.490481e-06 5.241446e-07
2.909258e-05 2.703714e-05 -5.241095e-07
2.949457e-05 2.636475e-05 -5.330562e-07
2.911442e-05 -2.700304e-05 -5.255461e-07
3.251325e-05 -2.254585e-05 5.334803e-07
[...]
POINT_DATA 9500
VECTORS 10.000GHz_fone_imag double
6.623398e-05 -1.049937e-05 2.270374e-02
-1.299831e-04 7.083281e-05 2.267083e-02
-1.924663e-05 1.578426e-04 2.265228e-02
-1.515389e-02 9.625842e-03 -1.743117e-02
1.768642e-02 -1.176726e-02 -1.234086e-02
-1.283157e-02 1.220256e-02 -1.714607e-02
1.532714e-02 -1.466240e-02 -1.221507e-02
2.071070e-02 8.270055e-03 -9.239005e-03
1.995194e-02 1.042377e-02 -8.053898e-03
1.356866e-02 -1.795454e-02 -8.080956e-03
-1.625314e-02 7.894082e-03 -1.700289e-02
1.859393e-02 -9.601989e-03 -1.225591e-02
-1.280480e-02 -1.172973e-02 -1.796281e-02
-1.229267e-04 -1.888490e-04 2.277041e-02
1.565592e-02 1.428767e-02 -1.232972e-02
-1.673297e-02 6.573127e-03 -1.739996e-02
1.995614e-02 -7.697130e-03 -1.218810e-02
-3.038276e-03 1.784361e-02 -1.685040e-02
2.991886e-03 -2.076381e-02 -1.246052e-02
6.519062e-03 -2.131950e-02 -9.947706e-03
-8.440598e-03 1.528362e-02 -1.784726e-02
1.014536e-02 -1.876665e-02 -1.224987e-02
-1.723079e-02 2.733663e-03 -1.789410e-02
2.106604e-02 -3.525041e-03 -1.233243e-02
2.578587e-05 1.347925e-04 2.256538e-02
1.978704e-04 1.744398e-02 -1.796933e-02
-6.838197e-05 -2.127311e-02 -1.224876e-02
-9.169717e-03 1.471704e-02 -1.802305e-02
1.114615e-02 -1.796484e-02 -1.231322e-02
2.053546e-02 -8.967057e-03 -8.107210e-03
-1.700078e-02 -5.096482e-03 -1.701857e-02
2.026169e-02 6.259732e-03 -1.250172e-02
-5.773331e-03 1.658697e-02 -1.781706e-02
7.245472e-03 -1.994764e-02 -1.227519e-02
5.602744e-03 -2.182981e-02 -9.607456e-03
-1.322882e-04 7.481210e-05 2.293552e-02
4.312840e-03 -2.191017e-02 -9.224237e-03
2.168915e-02 5.233195e-03 -9.314856e-03
2.504824e-03 1.719587e-02 -1.795825e-02
-3.091234e-03 -2.099857e-02 -1.229218e-02
-1.735228e-02 1.848336e-03 -1.796432e-02
2.114705e-02 -2.550730e-03 -1.221271e-02
-1.392565e-02 -1.049578e-02 -1.789277e-02
1.715608e-02 1.271011e-02 -1.233873e-02
7.708391e-04 1.767191e-02 -1.760636e-02
-1.051775e-03 -2.127749e-02 -1.204921e-02
-4.790743e-04 -6.150984e-05 2.275664e-02
-9.326766e-04 1.794222e-02 -1.742517e-02
7.166953e-04 -2.121518e-02 -1.240320e-02
-6.633025e-03 1.606525e-02 -1.805511e-02
8.333647e-03 -1.948290e-02 -1.223257e-02
1.520734e-02 -1.644814e-02 -8.125780e-03
-1.011548e-02 1.430801e-02 -1.782232e-02
1.200341e-02 -1.747582e-02 -1.229150e-02
-1.034054e-02 -1.455232e-02 -1.705896e-02
1.248096e-02 1.680811e-02 -1.246565e-02
-1.731611e-02 1.035089e-03 -1.801490e-02
-1.945072e-04 -4.244900e-04 2.278748e-02
2.112225e-02 -1.322610e-03 -1.231834e-02
1.610557e-03 1.737639e-02 -1.796735e-02
-2.267030e-03 -2.116749e-02 -1.220307e-02
2.248307e-03 -2.219548e-02 -9.318013e-03
-1.634736e-02 -7.456628e-03 -1.698108e-02
1.926641e-02 8.807712e-03 -1.273022e-02
-1.656292e-02 5.287825e-03 -1.801825e-02
2.021074e-02 -6.439192e-03 -1.226417e-02
1.258681e-02 1.857830e-02 -9.665138e-03
-8.232169e-03 1.711573e-02 -1.606806e-02
-7.970852e-05 3.818119e-05 2.267445e-02
9.349614e-03 -1.909405e-02 -1.225627e-02
1.939938e-02 -1.100730e-02 -9.318377e-03
-1.337082e-02 -1.120472e-02 -1.795970e-02
1.652139e-02 1.345589e-02 -1.221316e-02
1.771226e-02 -1.390115e-02 -8.061374e-03
-1.177606e-02 1.365965e-02 -1.705554e-02
1.361219e-02 -1.612856e-02 -1.262351e-02
-1.760796e-02 -3.400495e-03 -1.747995e-02
2.092844e-02 3.472561e-03 -1.235373e-02
1.411533e-02 1.731184e-02 -9.159092e-03
-4.114638e-04 -3.750598e-04 2.273225e-02
-1.696078e-02 -5.844756e-03 -1.740189e-02
1.991049e-02 6.912344e-03 -1.233996e-02
-1.742012e-02 1.331873e-04 -1.799216e-02
2.123731e-02 -2.002212e-04 -1.226448e-02
-1.347111e-02 1.185035e-02 -1.743432e-02
1.588241e-02 -1.391218e-02 -1.226796e-02
1.158035e-02 1.923587e-02 -9.702158e-03
-1.421502e-02 1.035410e-02 -1.778352e-02
1.729853e-02 -1.231985e-02 -1.229221e-02
-1.198030e-02 -1.333622e-02 -1.742163e-02
-2.260450e-04 -4.856456e-04 2.277673e-02
1.453565e-02 1.566699e-02 -1.227271e-02
-1.767464e-02 -4.022457e-04 -1.766886e-02
2.123106e-02 5.357124e-04 -1.224318e-02
-1.684833e-02 4.552995e-03 -1.784596e-02
2.051433e-02 -5.738109e-03 -1.227997e-02
-1.742309e-02 -1.217108e-03 -1.794595e-02
2.118512e-02 1.636634e-03 -1.223408e-02
-1.516628e-02 -9.169879e-03 -1.704338e-02
1.807108e-02 1.109359e-02 -1.249726e-02
2.234022e-02 -2.487737e-03 -9.272649e-03
1.770774e-04 -2.638842e-04 2.271472e-02
2.234037e-02 2.487823e-03 -9.272700e-03
-2.846606e-03 -2.248879e-02 -8.976365e-03
-4.117752e-04 -2.282351e-02 -8.929476e-03
-2.223579e-02 -5.807348e-03 -7.584266e-03
-2.222866e-02 5.801748e-03 -7.609884e-03
8.373248e-03 1.628263e-02 -1.676330e-02
-1.599055e-02 1.277662e-02 -1.379693e-02
-1.003426e-02 -2.068886e-02 -7.913705e-03
-1.063628e-02 -2.059647e-02 -7.332356e-03
-1.105258e-02 -2.040360e-02 -7.393169e-03
-1.921047e-04 -2.027661e-04 2.273894e-02
5.477429e-05 3.027375e-04 2.282641e-02
-1.171955e-02 -1.986745e-02 -7.241443e-03
-1.204367e-02 -1.980745e-02 -7.396276e-03
-1.273714e-02 -1.923769e-02 -7.262032e-03
-1.304383e-02 -1.929880e-02 -7.540263e-03
-2.350788e-02 3.440389e-03 -5.344319e-03
-2.350833e-02 -3.440692e-03 -5.345234e-03
1.437309e-02 -1.673426e-02 -1.046816e-02
3.943325e-03 1.194026e-02 -2.181098e-02
-2.275470e-02 7.092538e-03 -3.622891e-03
-2.261402e-02 -7.167044e-03 -4.485937e-03
-2.165018e-04 -4.017502e-04 2.277674e-02
2.524785e-03 -2.253529e-02 -9.511996e-03
-1.393248e-02 1.790920e-02 -9.606713e-03
-1.627300e-02 -1.548680e-02 -9.542115e-03
-1.502164e-02 -1.688457e-02 -9.528145e-03
-2.372083e-02 -2.248536e-03 -4.941334e-03
-2.372074e-02 2.248577e-03 -4.941332e-03
1.275639e-03 2.348480e-02 -4.841770e-03
2.097280e-03 2.357715e-02 -3.579390e-03
1.328530e-02 1.965079e-02 -4.621965e-03
2.401160e-04 2.378954e-02 -4.916473e-03
2.318462e-04 3.635433e-06 2.281114e-02
3.025204e-03 2.374422e-02 -4.938097e-03
-1.336215e-02 -4.574646e-03 -2.070250e-02
-1.382266e-02 -7.125331e-03 -1.952667e-02
-2.233563e-02 8.460471e-03 -4.867861e-03
-2.343187e-02 4.845145e-03 -3.428094e-03
-2.342994e-02 -4.846383e-03 -3.427992e-03
-3.930040e-03 1.497308e-02 -1.981648e-02
1.422049e-02 1.488680e-02 -1.339211e-02
-1.069414e-02 -1.129706e-02 -1.889515e-02
1.447808e-02 -1.480111e-02 -1.348687e-02
2.466549e-04 1.494430e-04 2.278304e-02
-1.143695e-02 1.162541e-02 -1.841319e-02
1.181907e-02 -1.691840e-02 -1.326367e-02
-8.813030e-03 1.272271e-02 -1.897929e-02
-3.098225e-03 2.042192e-02 -1.344105e-02
2.565465e-03 -1.641874e-02 -1.873027e-02
-2.183447e-02 9.398854e-03 -3.426033e-03
-5.209694e-03 2.294180e-02 -6.236566e-03
-2.116566e-02 -1.013874e-02 -6.314010e-03
1.055394e-02 -2.092414e-02 -6.215813e-03
1.882168e-02 1.404264e-02 -5.591017e-03
1.439774e-04 2.573203e-04 2.281056e-02
-7.510727e-04 4.542916e-03 -2.485913e-02
1.863231e-02 1.490754e-02 -4.549912e-03
8.729522e-03 -1.014152e-02 -2.092386e-02
1.387165e-02 8.942397e-03 -1.876810e-02
9.600985e-03 -6.971045e-03 -2.217981e-02
6.492948e-03 6.514160e-03 -2.354630e-02
5.369409e-03 -7.359977e-03 -2.366103e-02
1.667410e-02 -1.714198e-02 6.738954e-04
1.691955e-02 1.699397e-02 4.431762e-05
1.423159e-02 -1.929777e-02 -1.154231e-04
-1.225685e-04 2.332460e-05 2.284078e-02
-3.525574e-03 2.369934e-02 5.342263e-05
-4.272749e-03 2.367282e-02 -4.305368e-04
1.350825e-02 -1.966262e-02 -1.504927e-04
1.629475e-02 1.748144e-02 -4.718902e-04
1.629189e-02 -1.765827e-02 -4.278826e-04
-1.159199e-02 2.085324e-02 -2.632998e-03
6.646532e-03 2.323954e-02 -3.320969e-03
2.221890e-02 7.570538e-03 -6.382294e-03
-1.828948e-02 1.547292e-02 -1.969613e-03
1.295981e-02 -8.031851e-03 -1.952873e-02
-8.901078e-05 9.938827e-05 2.258909e-02
-2.119094e-02 1.091179e-02 -4.606803e-03
-1.856113e-02 -1.386733e-02 -7.615853e-03
-1.022656e-03 7.775491e-03 -2.410873e-02
5.179412e-03 5.757004e-03 -2.408050e-02
-2.254772e-02 7.512856e-03 -3.608715e-03
-4.437333e-03 -2.077834e-03 -2.457319e-02
-1.082024e-02 1.882147e-02 -1.162913e-02
-1.771917e-02 -2.212422e-03 -1.773273e-02
-1.771942e-02 2.212813e-03 -1.773261e-02
6.404252e-04 1.831996e-02 -1.667975e-02
1.578646e-04 5.880606e-05 2.262421e-02
1.833444e-03 1.866680e-02 -1.598324e-02
1.942871e-02 1.314193e-02 -4.938026e-03
4.737953e-03 1.783102e-02 -1.686479e-02
2.224443e-02 -7.489886e-03 -5.446048e-03
2.244674e-02 -7.172347e-03 -4.600812e-03
3.806994e-03 -7.075191e-03 -2.384298e-02
8.471766e-03 2.200919e-02 -5.158386e-03
8.396678e-03 2.250997e-02 -1.506289e-03
-1.315239e-02 -1.897572e-02 -8.259666e-03
1.012346e-02 2.171803e-02 -2.546367e-03
-2.056074e-04 -4.662682e-05 2.252558e-02
9.131585e-03 2.097130e-02 -8.515897e-03
8.701610e-03 2.159579e-02 -7.239206e-03
8.278969e-03 2.163776e-02 -6.960562e-03
7.763728e-03 2.185982e-02 -7.585456e-03
1.018046e-02 -2.174386e-02 -2.464032e-03
9.155540e-03 -2.095941e-02 -8.490745e-03
8.707924e-03 -2.158927e-02 -7.178899e-03
8.126397e-03 -2.177440e-02 -7.054524e-03
7.755711e-03 -2.173348e-02 -7.611644e-03
7.521363e-03 -1.257070e-02 -2.023194e-02
1.089543e-04 -1.844619e-04 2.264570e-02
-1.906787e-02 8.863313e-03 -1.291116e-02
-1.825803e-02 -1.431940e-02 -7.830930e-03
2.203540e-02 4.845215e-03 -9.358420e-03
2.203420e-02 -4.844031e-03 -9.356559e-03
5.227875e-03 2.266838e-02 4.606377e-03
1.717069e-02 1.016523e-02 -1.453075e-02
1.730483e-02 -1.007612e-02 -1.452169e-02
-1.430499e-03 2.346631e-02 -7.045232e-03
1.462980e-02 1.826461e-02 -7.120460e-03
2.162308e-02 -8.618095e-03 -6.681015e-03
1.767133e-04 -1.205953e-05 2.265200e-02
1.934779e-04 3.317522e-04 2.270237e-02
1.385976e-03 -1.982184e-02 -1.474395e-02
-1.248217e-02 -1.547581e-02 -1.475161e-02
1.761448e-02 -1.511608e-02 5.167517e-03
-7.437238e-03 2.274200e-02 -2.918182e-03
-1.363329e-02 -1.948163e-02 2.664964e-03
1.582976e-03 2.367970e-02 2.277210e-03
-2.142947e-02 -9.396951e-03 3.857719e-03
1.535799e-02 1.755673e-02 5.329689e-03
-6.155815e-04 2.290111e-02 6.141192e-03
-2.562690e-03 2.315868e-02 5.341136e-03
-2.437556e-04 3.378195e-05 2.298723e-02
1.368399e-02 1.840393e-02 6.052145e-03
1.449701e-02 -1.823738e-02 4.914334e-03
-2.320794e-02 -1.497795e-03 4.823740e-03
-2.321519e-02 1.498633e-03 4.823950e-03
1.715243e-02 1.564450e-02 4.427660e-03
1.763669e-02 1.558533e-02 -2.520798e-03
1.734772e-02 -1.590579e-02 3.747043e-03
-1.979834e-02 1.361613e-02 -2.764361e-03
3.914106e-03 2.309179e-02 4.185940e-03
2.223551e-02 -3.786430e-03 -9.065653e-03
1.283060e-06 6.753811e-05 2.284096e-02
2.276670e-02 -3.598695e-03 -7.794309e-03
-2.360031e-02 4.020683e-03 -3.036377e-03
2.223585e-02 3.786522e-03 -9.066348e-03
2.276681e-02 3.598791e-03 -7.794593e-03
-2.359971e-02 -4.020946e-03 -3.036745e-03
2.279170e-02 4.574993e-03 4.277012e-04
2.279111e-02 -4.574417e-03 4.284694e-04
4.060042e-03 1.833339e-02 -1.651051e-02
-3.612481e-03 -1.661054e-02 -1.793506e-02
-4.137851e-03 -2.058658e-02 -1.293244e-02
-1.454329e-04 -1.764290e-04 2.281038e-02
-4.137632e-03 -2.371216e-02 -1.783069e-03
-1.304925e-02 -2.029061e-02 3.344293e-05
-1.322872e-02 -1.981466e-02 1.580258e-03
2.125956e-02 -1.001196e-02 -6.505319e-03
2.127156e-02 -1.047453e-02 2.692274e-03
-9.455042e-04 3.501213e-03 -2.503244e-02
-2.234006e-02 8.864573e-03 1.376657e-03
2.148683e-02 -9.147005e-03 -7.135955e-03
2.190251e-02 -9.607413e-03 -3.200292e-03
-9.347486e-03 -2.204477e-02 1.898072e-06
2.573273e-04 -1.307034e-04 2.279555e-02
-3.836942e-03 -8.467653e-03 -2.334307e-02
6.469923e-04 4.807545e-04 -2.542054e-02
-1.994261e-02 -7.625208e-03 -1.209824e-02
-2.114177e-02 -9.063467e-03 -7.848961e-03
-2.236436e-02 -8.260464e-03 -2.769114e-03
-1.869824e-02 -1.017838e-02 -1.221826e-02
-2.050425e-02 -1.027113e-02 -7.810247e-03
-2.075665e-02 -1.168552e-02 -2.607676e-03
-1.323877e-02 1.673316e-02 -1.226048e-02
-1.356867e-02 1.852069e-02 -7.816958e-03
6.002473e-05 3.480501e-04 2.270912e-02
-1.514272e-02 1.852621e-02 -2.752397e-03
-1.331866e-02 -1.672426e-02 -1.222360e-02
-1.477605e-02 -1.758987e-02 -7.897831e-03
-1.465526e-02 -1.892549e-02 -2.817913e-03
-6.193315e-03 2.048372e-02 -1.223357e-02
-6.102403e-03 2.235748e-02 -7.705591e-03
-5.723616e-03 2.236823e-02 -7.293028e-03
-4.885083e-03 2.272392e-02 -7.404586e-03
-4.383083e-03 2.281358e-02 -7.778255e-03
-7.176883e-03 2.190527e-02 -7.820178e-03
-6.938625e-05 -3.422455e-05 2.280706e-02
-3.826333e-03 2.382430e-02 -1.391142e-03
-2.063811e-02 -5.320524e-03 -1.212282e-02
-2.243598e-02 -5.019414e-03 -7.847780e-03
-2.313368e-02 -6.195098e-03 -2.761526e-03
-1.928175e-02 8.891871e-03 -1.236026e-02
-2.109352e-02 9.142144e-03 -7.646631e-03
-2.121135e-02 1.034508e-02 -3.064466e-03
-1.474621e-02 1.531663e-02 -1.228665e-02
-1.546776e-02 1.706625e-02 -7.671687e-03
-1.675124e-02 1.699075e-02 -2.589190e-03
-8.909573e-05 -8.756864e-05 2.268474e-02
-2.483607e-03 2.117712e-02 -1.212843e-02
-1.929712e-03 2.292282e-02 -7.855823e-03
-3.197618e-03 2.376262e-02 -2.779953e-03
-1.870093e-02 1.022189e-02 -1.213081e-02
-1.979258e-02 1.167820e-02 -7.891095e-03
-2.124115e-02 1.114129e-02 -2.789970e-03
-1.651416e-02 1.343633e-02 -1.222422e-02
-1.827744e-02 1.392404e-02 -7.813919e-03
-1.817100e-02 1.537548e-02 -2.693163e-03
1.916893e-02 6.252359e-04 1.278699e-02
-2.239164e-04 -5.234522e-05 2.262737e-02
2.388121e-02 1.131669e-03 1.238196e-03
2.167969e-02 1.307961e-03 -1.152723e-02
1.910539e-02 -4.662471e-04 1.308899e-02
2.385500e-02 -1.138043e-03 1.205936e-03
2.167623e-02 -1.307604e-03 -1.152152e-02
-3.472956e-03 -2.349421e-02 -4.848628e-03
-1.977810e-02 -1.338990e-02 -2.235287e-03
-8.189331e-03 2.255375e-02 -1.181861e-04
-8.149169e-03 -2.247349e-02 -2.320653e-06
-1.782303e-02 1.573692e-02 -4.889783e-03
-2.741244e-05 -2.678417e-04 2.255026e-02
-1.409011e-02 1.286638e-02 -1.576407e-02
-1.728827e-02 1.671988e-02 -2.874243e-03
-1.588140e-02 1.780778e-02 8.025923e-04
2.339464e-02 -1.893843e-03 2.568689e-03
2.339549e-02 1.892686e-03 2.568668e-03
-8.670024e-03 2.238486e-02 -5.163131e-04
-8.624161e-03 -2.237335e-02 -4.868075e-04
-2.175818e-02 -8.191060e-03 4.987192e-03
-2.218072e-02 -9.292964e-03 -4.639383e-04
-2.196281e-02 -7.314241e-03 5.709080e-03
-6.429284e-05 2.984867e-05 2.267795e-02
1.214299e-04 8.167421e-05 2.259793e-02
-6.765532e-03 -3.867503e-03 -2.401107e-02
-2.092015e-02 -1.165519e-02 -2.309539e-03
-6.817188e-03 3.893387e-03 -2.382118e-02
-2.084965e-02 1.196746e-02 -2.078803e-03
4.367075e-03 8.944980e-03 -2.290700e-02
-1.129778e-03 -2.371172e-02 9.522934e-04
-1.773057e-03 -2.197109e-02 -1.072620e-02
-9.946462e-03 -2.194466e-02 9.441169e-04
-9.977215e-03 2.194488e-02 9.742203e-04
-7.292211e-03 5.466640e-03 -2.356125e-02
-4.502027e-04 -1.543735e-05 2.266621e-02
-1.904077e-02 1.400095e-02 1.747823e-03
-1.645239e-03 6.247201e-03 -2.417208e-02
-6.455368e-03 2.319148e-02 -3.796949e-03
-8.352433e-03 -2.235032e-02 1.364305e-03
-7.193267e-03 -2.270720e-02 1.137157e-03
-1.854565e-02 -1.493944e-02 1.651908e-03
-2.256758e-02 -7.390279e-03 2.337280e-03
-2.357245e-02 -3.549029e-03 1.704043e-03
-1.715250e-02 -1.658523e-02 1.912649e-03
-2.315189e-02 5.547104e-03 1.570142e-03
-1.075353e-04 -5.621791e-04 2.267516e-02
-2.372330e-02 2.025828e-03 1.647845e-03
-2.286881e-02 6.519476e-03 1.793483e-03
-2.253742e-02 7.868329e-03 1.564622e-03
-1.105535e-02 2.102581e-02 1.779552e-03
-2.336630e-02 4.357489e-03 1.893309e-03
-2.379256e-02 6.160501e-04 1.767152e-03
-3.569878e-04 2.392733e-02 1.673251e-03
2.651025e-03 2.370956e-02 1.721051e-03
-1.208994e-02 2.051493e-02 1.604107e-03
-8.418424e-03 2.235561e-02 1.244848e-03
-1.641798e-04 -3.960167e-04 2.277597e-02
-1.997530e-02 -1.281247e-02 1.753238e-03
-2.374470e-02 -2.146178e-03 1.700151e-03
-2.363401e-02 2.966838e-03 1.654633e-03
1.674103e-03 2.390743e-02 2.120737e-03
-1.967024e-02 1.355042e-02 1.648462e-03
-9.522450e-03 2.178546e-02 1.741360e-03
7.223231e-04 2.368149e-02 2.816741e-03
-2.363108e-02 -3.831688e-04 2.930546e-03
-1.323554e-02 1.988041e-02 1.260495e-03
-1.936302e-02 -1.378922e-02 1.873748e-03
2.276418e-04 -9.026171e-05 2.269279e-02
-2.385236e-02 -1.151519e-03 1.870694e-03
3.847541e-03 2.346950e-02 1.762040e-03
-1.755076e-02 1.595222e-02 1.990243e-03
-1.791854e-02 -1.565330e-02 1.642203e-03
-1.631521e-02 -1.731071e-02 2.100069e-03
5.085601e-03 2.323217e-02 1.925784e-03
6.395113e-03 2.300351e-02 1.616084e-03
1.532126e-03 -3.126160e-04 -2.518920e-02
4.235952e-04 -1.459907e-04 -2.551764e-02
-1.399291e-02 -1.043422e-02 -1.756208e-02
1.034451e-04 1.652441e-04 2.272968e-02
-7.860564e-03 1.572115e-02 -1.757846e-02
-1.620035e-02 6.065030e-03 -1.792624e-02
-1.743175e-02 2.425637e-05 -1.753401e-02
-9.239141e-03 1.483061e-02 -1.760831e-02
-6.330972e-04 1.729868e-02 -1.791687e-02
-7.385186e-03 1.581118e-02 -1.762079e-02
-6.738717e-03 1.617622e-02 -1.756610e-02
-1.744741e-02 9.603447e-04 -1.756613e-02
2.518298e-03 1.729750e-02 -1.756832e-02
-1.267721e-02 -1.180745e-02 -1.765287e-02
-3.006899e-04 -9.232016e-05 2.274667e-02
2.099769e-04 1.745313e-02 -1.766679e-02
-1.442087e-02 -9.885307e-03 -1.757877e-02
-1.268171e-02 1.206339e-02 -1.759170e-02
-1.714036e-02 3.509702e-03 -1.756670e-02
1.552406e-03 1.733049e-02 -1.761909e-02
-1.731232e-02 -2.177381e-03 -1.757916e-02
-1.448648e-02 9.473212e-03 -1.795069e-02
-1.699796e-02 -2.968927e-03 -1.800034e-02
-1.169509e-02 -1.283588e-02 -1.790697e-02
-8.533474e-03 1.523230e-02 -1.759252e-02
1.374645e-04 -1.447601e-04 2.290395e-02
-1.741150e-02 1.779184e-03 -1.756866e-02
-1.336868e-02 -1.128475e-02 -1.756562e-02
-1.723062e-02 2.822060e-03 -1.755756e-02
-1.675052e-02 -5.082336e-03 -1.764962e-02
-1.666284e-02 5.224218e-03 -1.760227e-02
-1.488951e-02 -9.040683e-03 -1.758491e-02
-1.739519e-02 -1.224963e-03 -1.759144e-02
-1.687421e-02 4.429901e-03 -1.759061e-02
3.337357e-03 1.716010e-02 -1.754192e-02
4.128755e-03 1.692599e-02 -1.759732e-02
-7.367977e-06 6.254158e-05 2.276619e-02
4.985773e-03 1.656933e-02 -1.793072e-02
1.514279e-02 -1.074347e-02 -1.683926e-02
1.215360e-02 -2.030522e-02 2.307009e-03
-1.617507e-02 1.638128e-02 5.271064e-03
-1.361402e-02 1.697140e-02 -1.153554e-02
-8.614772e-03 -2.198796e-02 3.436402e-03
2.114270e-02 1.069978e-02 2.949147e-03
5.617261e-03 -2.296486e-02 2.812592e-03
2.263138e-02 6.432676e-03 2.976583e-03
2.239458e-02 7.337772e-03 3.114982e-03
-1.132992e-04 -4.055987e-04 2.300897e-02
2.258116e-02 -6.475096e-03 3.346707e-03
-2.348845e-02 -4.717187e-03 2.396770e-03
-1.582455e-02 -1.800431e-02 2.410443e-03
-2.181156e-02 -9.746086e-03 2.674959e-03
-1.482647e-03 2.392017e-02 2.425102e-03
-7.879757e-03 2.265891e-02 2.375867e-03
-1.382181e-02 1.958896e-02 2.361134e-03
-1.933162e-02 1.418048e-02 2.364347e-03
-1.568735e-02 1.802872e-02 2.442163e-03
-2.037791e-02 1.262597e-02 2.395565e-03
-1.358899e-04 -2.517523e-05 2.260420e-02
3.811154e-04 1.528104e-04 2.287456e-02
-2.222133e-02 8.881463e-03 2.432371e-03
-2.150950e-02 -1.039262e-02 2.633931e-03
-1.391420e-02 -1.951818e-02 2.551322e-03
7.528326e-03 2.283837e-02 2.631746e-03
4.301993e-04 -1.476709e-03 -2.513178e-02
4.199685e-04 1.415867e-03 -2.515385e-02
-1.704570e-02 -1.553467e-02 5.918633e-03
-6.615042e-03 -2.231664e-02 4.023927e-03
-6.324244e-03 -2.059891e-02 -1.167010e-02
-5.387383e-03 -2.272129e-02 2.983773e-03
-2.570258e-05 3.507892e-04 2.301541e-02
-3.318267e-03 -7.303157e-03 -2.423488e-02
-3.325473e-03 7.304988e-03 -2.426978e-02
-1.325282e-02 7.082061e-03 -1.955402e-02
1.849727e-02 1.434729e-02 4.682514e-03
-2.087030e-02 1.224895e-02 -3.068367e-04
-2.005666e-02 1.297115e-02 -2.916882e-03
-2.033295e-02 -1.279721e-02 -1.980637e-03
-2.241567e-02 5.223258e-03 5.616595e-03
-2.241108e-02 -5.225867e-03 5.614395e-03
-1.455489e-02 -1.903697e-02 -2.179453e-03
-1.451529e-05 1.083352e-04 2.282787e-02
-1.092511e-02 -1.455757e-02 -1.697841e-02
1.203051e-03 -2.416874e-02 -1.889490e-03
3.948074e-04 -1.981289e-02 -1.484061e-02
2.017732e-04 -2.394905e-02 1.063818e-03
4.560137e-03 -2.338741e-02 -1.951300e-03
-2.053694e-02 -1.222744e-02 2.946482e-05
2.187003e-02 9.371283e-03 1.536598e-03
2.147759e-02 9.709707e-03 3.110906e-03
-1.890896e-02 1.278687e-02 5.875616e-03
2.283310e-02 5.438973e-03 -5.402510e-03
1.172026e-04 4.988396e-05 2.272588e-02
2.282502e-02 -5.429009e-03 -5.401179e-03
2.695781e-03 -2.317636e-02 4.797965e-03
-1.416957e-02 1.842290e-02 4.706896e-03
-1.662633e-02 -1.626028e-02 4.677004e-03
-1.550469e-02 -1.740368e-02 4.712399e-03
1.988111e-02 -1.317030e-02 7.156609e-04
-1.301053e-02 1.934954e-02 4.502381e-03
2.213871e-02 8.768012e-03 -3.814581e-03
-9.813272e-03 -2.123182e-02 4.874908e-03